<event>
 7    1  0.2787125E-009  0.9787527E+02  0.7818608E-02  0.1284828E+00
          1   -1    0    0  501    0  0.00000000000E+00  0.00000000000E+00  0.75926933963E+02  0.75926934131E+02  0.50400000000E-02 0. -1.
         -1   -1    0    0    0  501 -0.00000000000E+00 -0.00000000000E+00 -0.31542060792E+02  0.31542061195E+02  0.50400000000E-02 0.  1.
         23    2    1    2    0    0  0.00000000000E+00 -0.35527136788E-14  0.44384873171E+02  0.10746899533E+03  0.97875267509E+02 0.  0.
    9000005    2    3    3    0    0  0.36405359418E+02 -0.30328337155E+02  0.16036389567E+02  0.52253103124E+02  0.15101747145E+02 0.  0.
         22    1    3    3    0    0 -0.36405359418E+02  0.30328337155E+02  0.28348483604E+02  0.55215892201E+02  0.00000000000E+00 0.  1.
         22    1    4    4    0    0  0.28670955603E+02 -0.21217166992E+02  0.50578099269E+01  0.36024620909E+02  0.00000000000E+00 0.  1.
         22    1    4    4    0    0  0.77344038154E+01 -0.91111701625E+01  0.10978579640E+02  0.16228482216E+02  0.00000000000E+00 0.  1.
<mgrwt>
<rscale>  0 0.97875268E+02</rscale>
<asrwt>0</asrwt>
<pdfrwt beam="1">  1        1 0.11681067E-01 0.97875268E+02</pdfrwt>
<pdfrwt beam="2">  1       -1 0.48526249E-02 0.97875268E+02</pdfrwt>
<totfact> 0.82129098E+04</totfact>
</mgrwt>
</event>
<event>
 7    1  0.2787125E-009  0.9224839E+02  0.7818608E-02  0.1297496E+00
          1   -1    0    0  501    0  0.00000000000E+00  0.00000000000E+00  0.28533365671E+02  0.28533366116E+02  0.50400000000E-02 0. -1.
         -1   -1    0    0    0  501 -0.00000000000E+00 -0.00000000000E+00 -0.74559768995E+02  0.74559769166E+02  0.50400000000E-02 0.  1.
         23    2    1    2    0    0  0.00000000000E+00  0.00000000000E+00 -0.46026403324E+02  0.10309313528E+03  0.92248386107E+02 0.  0.
    9000005    2    3    3    0    0 -0.20767636283E+02 -0.39697780707E+02 -0.14791175932E+02  0.48477680142E+02  0.11139931626E+02 0.  0.
         22    1    3    3    0    0  0.20767636283E+02  0.39697780707E+02 -0.31235227392E+02  0.54615455140E+02  0.00000000000E+00 0.  1.
         22    1    4    4    0    0 -0.79740009731E+01 -0.26813453428E+02 -0.80465363958E+01  0.29108293049E+02  0.00000000000E+00 0. -1.
         22    1    4    4    0    0 -0.12793635310E+02 -0.12884327279E+02 -0.67446395364E+01  0.19369387093E+02  0.00000000000E+00 0. -1.
<mgrwt>
<rscale>  0 0.92248386E+02</rscale>
<asrwt>0</asrwt>
<pdfrwt beam="1">  1        1 0.43897486E-02 0.92248386E+02</pdfrwt>
<pdfrwt beam="2">  1       -1 0.11470734E-01 0.92248386E+02</pdfrwt>
<totfact> 0.83130496E+04</totfact>
</mgrwt>
</event>
<event>
 7    1  0.2787125E-009  0.8717151E+02  0.7818608E-02  0.1309850E+00
          1   -1    0    0  501    0  0.00000000000E+00  0.00000000000E+00  0.98312468982E+02  0.98312469111E+02  0.50400000000E-02 0. -1.
         -1   -1    0    0    0  501 -0.00000000000E+00 -0.00000000000E+00 -0.19323265714E+02  0.19323266371E+02  0.50400000000E-02 0.  1.
         23    2    1    2    0    0  0.35527136788E-14 -0.35527136788E-14  0.78989203268E+02  0.11763573548E+03  0.87171509276E+02 0.  0.
    9000005    2    3    3    0    0  0.28930660092E+02 -0.31536153890E+02  0.28728084441E+02  0.51622917323E+02  0.28479223494E+01 0.  0.
         22    1    3    3    0    0 -0.28930660092E+02  0.31536153890E+02  0.50261118827E+02  0.66012818159E+02  0.00000000000E+00 0. -1.
         22    1    4    4    0    0  0.14142345090E+02 -0.15408532885E+02  0.15754471283E+02  0.26184578967E+02  0.00000000000E+00 0.  1.
         22    1    4    4    0    0  0.14788315002E+02 -0.16127621005E+02  0.12973613158E+02  0.25438338355E+02  0.00000000000E+00 0.  1.
<mgrwt>
<rscale>  0 0.87171509E+02</rscale>
<asrwt>0</asrwt>
<pdfrwt beam="1">  1        1 0.15124995E-01 0.87171509E+02</pdfrwt>
<pdfrwt beam="2">  1       -1 0.29728102E-02 0.87171509E+02</pdfrwt>
<totfact> 0.11768035E+05</totfact>
</mgrwt>
</event>
<event>
 7    1  0.2787125E-009  0.9182621E+02  0.7818608E-02  0.1298489E+00
          1   -1    0    0  501    0  0.00000000000E+00  0.00000000000E+00  0.64430678211E+01  0.64430697923E+01  0.50400000000E-02 0. -1.
         -1   -1    0    0    0  501 -0.00000000000E+00 -0.00000000000E+00 -0.32717534882E+03  0.32717534886E+03  0.50400000000E-02 0.  1.
         23    2    1    2    0    0  0.00000000000E+00  0.17763568394E-14 -0.32073228100E+03  0.33361841865E+03  0.91826211882E+02 0.  0.
    9000005    2    3    3    0    0 -0.39328966773E+02  0.14162871259E+02 -0.22156058070E+03  0.22599694919E+03  0.15432937875E+02 0.  0.
         22    1    3    3    0    0  0.39328966773E+02 -0.14162871259E+02 -0.99171700299E+02  0.10762146947E+03  0.00000000000E+00 0. -1.
         22    1    4    4    0    0 -0.39711172738E+02  0.10906898106E+02 -0.20876546328E+03  0.21278852489E+03  0.00000000000E+00 0. -1.
         22    1    4    4    0    0  0.38220596574E+00  0.32559731533E+01 -0.12795117424E+02  0.13208424299E+02  0.00000000000E+00 0. -1.
<mgrwt>
<rscale>  0 0.91826212E+02</rscale>
<asrwt>0</asrwt>
<pdfrwt beam="1">  1        1 0.99124161E-03 0.91826212E+02</pdfrwt>
<pdfrwt beam="2">  1       -1 0.50334656E-01 0.91826212E+02</pdfrwt>
<totfact> 0.57402446E+04</totfact>
</mgrwt>
</event>
<event>
 7    1  0.2787125E-009  0.9140476E+02  0.7818608E-02  0.1299485E+00
          1   -1    0    0  501    0  0.00000000000E+00  0.00000000000E+00  0.77693481849E+02  0.77693482012E+02  0.50400000000E-02 0. -1.
         -1   -1    0    0    0  501 -0.00000000000E+00 -0.00000000000E+00 -0.26883945934E+02  0.26883946407E+02  0.50400000000E-02 0.  1.
         23    2    1    2    0    0  0.00000000000E+00  0.00000000000E+00  0.50809535915E+02  0.10457742842E+03  0.91404756960E+02 0.  0.
    9000005    2    3    3    0    0 -0.35954034403E+02 -0.13903921900E+02  0.36241055630E+00  0.41087869506E+02  0.14215134370E+02 0.  0.
         22    1    3    3    0    0  0.35954034403E+02  0.13903921900E+02  0.50447125358E+02  0.63489558913E+02  0.00000000000E+00 0.  1.
         22    1    4    4    0    0 -0.35098419299E+02 -0.10622534765E+02 -0.23493499500E+01  0.36745839592E+02  0.00000000000E+00 0.  1.
         22    1    4    4    0    0 -0.85561510323E+00 -0.32813871347E+01  0.27117605063E+01  0.43420299142E+01  0.00000000000E+00 0.  1.
<mgrwt>
<rscale>  0 0.91404757E+02</rscale>
<asrwt>0</asrwt>
<pdfrwt beam="1">  1        1 0.11952843E-01 0.91404757E+02</pdfrwt>
<pdfrwt beam="2">  1       -1 0.41359919E-02 0.91404757E+02</pdfrwt>
<totfact> 0.99595078E+04</totfact>
</mgrwt>
</event>
<event>
 7    1  0.2787125E-009  0.9023562E+02  0.7818608E-02  0.1302282E+00
         -1   -1    0    0    0  501 -0.00000000000E+00  0.00000000000E+00  0.25799566336E+01  0.25799615564E+01  0.50400000000E-02 0.  1.
          1   -1    0    0  501    0  0.00000000000E+00 -0.00000000000E+00 -0.78901120794E+03  0.78901120795E+03  0.50400000000E-02 0. -1.
         23    2    1    2    0    0  0.00000000000E+00  0.00000000000E+00 -0.78643125130E+03  0.79159116951E+03  0.90235617241E+02 0.  0.
    9000005    2    3    3    0    0  0.47859330545E+01 -0.28746232299E+02 -0.69336670426E+03  0.69407060274E+03  0.11285565330E+02 0.  0.
         22    1    3    3    0    0 -0.47859330545E+01  0.28746232299E+02 -0.93064547038E+02  0.97520566764E+02  0.00000000000E+00 0.  1.
         22    1    4    4    0    0  0.82994321250E+01 -0.21072504736E+02 -0.53501117878E+03  0.53549032899E+03  0.00000000000E+00 0. -1.
         22    1    4    4    0    0 -0.35134990705E+01 -0.76737275639E+01 -0.15835552549E+03  0.15858027375E+03  0.00000000000E+00 0. -1.
<mgrwt>
<rscale>  0 0.90235617E+02</rscale>
<asrwt>0</asrwt>
<pdfrwt beam="2">  1        1 0.12138615E+00 0.90235617E+02</pdfrwt>
<pdfrwt beam="1">  1       -1 0.39691741E-03 0.90235617E+02</pdfrwt>
<totfact> 0.14539304E+05</totfact>
</mgrwt>
</event>
<event>
 7    1  0.2787125E-009  0.9093629E+02  0.7818608E-02  0.1300600E+00
         -1   -1    0    0    0  501 -0.00000000000E+00  0.00000000000E+00  0.45759975129E+02  0.45759975406E+02  0.50400000000E-02 0.  1.
          1   -1    0    0  501    0  0.00000000000E+00 -0.00000000000E+00 -0.45178179399E+02  0.45178179680E+02  0.50400000000E-02 0. -1.
         23    2    1    2    0    0 -0.17763568394E-14  0.00000000000E+00  0.58179572945E+00  0.90938155086E+02  0.90936293988E+02 0.  0.
    9000005    2    3    3    0    0  0.84801777568E+01  0.42427432434E+02  0.12293402303E+02  0.46114476453E+02  0.10169403161E+02 0.  0.
         22    1    3    3    0    0 -0.84801777568E+01 -0.42427432434E+02 -0.11711606573E+02  0.44823678633E+02  0.00000000000E+00 0.  1.
         22    1    4    4    0    0  0.98222805766E+01  0.36112849352E+02  0.77459563142E+01  0.38217992141E+02  0.00000000000E+00 0. -1.
         22    1    4    4    0    0 -0.13421028198E+01  0.63145830813E+01  0.45474459884E+01  0.78964843118E+01  0.00000000000E+00 0. -1.
<mgrwt>
<rscale>  0 0.90936294E+02</rscale>
<asrwt>0</asrwt>
<pdfrwt beam="2">  1        1 0.69504892E-02 0.90936294E+02</pdfrwt>
<pdfrwt beam="1">  1       -1 0.70399962E-02 0.90936294E+02</pdfrwt>
<totfact> 0.93034255E+04</totfact>
</mgrwt>
</event>
<event>
 7    1  0.2787125E-009  0.9081014E+02  0.7818608E-02  0.1300902E+00
         -1   -1    0    0    0  501 -0.00000000000E+00  0.00000000000E+00  0.17140507617E+03  0.17140507624E+03  0.50400000000E-02 0.  1.
          1   -1    0    0  501    0  0.00000000000E+00 -0.00000000000E+00 -0.12027766918E+02  0.12027767974E+02  0.50400000000E-02 0. -1.
         23    2    1    2    0    0  0.00000000000E+00 -0.35527136788E-14  0.15937730925E+03  0.18343284422E+03  0.90810140589E+02 0.  0.
    9000005    2    3    3    0    0 -0.10616120638E+02 -0.22475047169E+02  0.15641160341E+03  0.15840036184E+03  0.28731845528E+01 0.  0.
         22    1    3    3    0    0  0.10616120638E+02  0.22475047169E+02  0.29657058452E+01  0.25032482374E+02  0.00000000000E+00 0. -1.
         22    1    4    4    0    0 -0.50163898454E+01 -0.13131573001E+02  0.94005219558E+02  0.95050427041E+02  0.00000000000E+00 0. -1.
         22    1    4    4    0    0 -0.55997307929E+01 -0.93434741681E+01  0.62406383849E+02  0.63349934803E+02  0.00000000000E+00 0. -1.
<mgrwt>
<rscale>  0 0.90810141E+02</rscale>
<asrwt>0</asrwt>
<pdfrwt beam="2">  1        1 0.18504260E-02 0.90810141E+02</pdfrwt>
<pdfrwt beam="1">  1       -1 0.26370008E-01 0.90810141E+02</pdfrwt>
<totfact> 0.73148440E+04</totfact>
</mgrwt>
</event>
<event>
 7    1  0.2787125E-009  0.9113920E+02  0.7818608E-02  0.1300116E+00
         -1   -1    0    0    0  501 -0.00000000000E+00  0.00000000000E+00  0.29156703458E+02  0.29156703893E+02  0.50400000000E-02 0. -1.
          1   -1    0    0  501    0  0.00000000000E+00 -0.00000000000E+00 -0.71221653361E+02  0.71221653540E+02  0.50400000000E-02 0.  1.
         23    2    1    2    0    0  0.00000000000E+00 -0.35527136788E-14 -0.42064949903E+02  0.10037835743E+03  0.91139204685E+02 0.  0.
    9000005    2    3    3    0    0  0.26200207893E+02  0.29830540806E+02  0.16503433570E+01  0.41324662178E+02  0.11344250198E+02 0.  0.
         22    1    3    3    0    0 -0.26200207893E+02 -0.29830540806E+02 -0.43715293260E+02  0.59053695255E+02  0.00000000000E+00 0.  1.
         22    1    4    4    0    0  0.26433440939E+02  0.30351290140E+02  0.74585577239E+00  0.40255234615E+02  0.00000000000E+00 0. -1.
         22    1    4    4    0    0 -0.23323304638E+00 -0.52074933423E+00  0.90448758463E+00  0.10694275636E+01  0.00000000000E+00 0. -1.
<mgrwt>
<rscale>  0 0.91139205E+02</rscale>
<asrwt>0</asrwt>
<pdfrwt beam="2">  1        1 0.10957177E-01 0.91139205E+02</pdfrwt>
<pdfrwt beam="1">  1       -1 0.44856468E-02 0.91139205E+02</pdfrwt>
<totfact> 0.99043911E+04</totfact>
</mgrwt>
</event>
<event>
 7    1  0.2787125E-009  0.1048147E+03  0.7818608E-02  0.1270485E+00
          1   -1    0    0  501    0  0.00000000000E+00  0.00000000000E+00  0.19701793794E+03  0.19701793801E+03  0.50400000000E-02 0. -1.
         -1   -1    0    0    0  501 -0.00000000000E+00 -0.00000000000E+00 -0.13940501868E+02  0.13940502779E+02  0.50400000000E-02 0.  1.
         23    2    1    2    0    0 -0.71054273576E-14 -0.35527136788E-14  0.18307743607E+03  0.21095844079E+03  0.10481467521E+03 0.  0.
    9000005    2    3    3    0    0 -0.39588163001E+02 -0.31990413478E+02  0.77853288506E+02  0.94070757792E+02  0.14055736770E+02 0.  0.
         22    1    3    3    0    0  0.39588163001E+02  0.31990413478E+02  0.10522414757E+03  0.11688768299E+03  0.00000000000E+00 0.  1.
         22    1    4    4    0    0 -0.82665031775E+01 -0.14767268238E+02  0.28226256490E+02  0.32910922829E+02  0.00000000000E+00 0. -1.
         22    1    4    4    0    0 -0.31321659824E+02 -0.17223145240E+02  0.49627032016E+02  0.61159834964E+02  0.00000000000E+00 0. -1.
<mgrwt>
<rscale>  0 0.10481468E+03</rscale>
<asrwt>0</asrwt>
<pdfrwt beam="1">  1        1 0.30310453E-01 0.10481468E+03</pdfrwt>
<pdfrwt beam="2">  1       -1 0.21446926E-02 0.10481468E+03</pdfrwt>
<totfact> 0.80978989E+04</totfact>
</mgrwt>
</event>
<event>
 7    1  0.2787125E-009  0.9113028E+02  0.7818608E-02  0.1300137E+00
         -1   -1    0    0    0  501 -0.00000000000E+00  0.00000000000E+00  0.21900886771E+02  0.21900887351E+02  0.50400000000E-02 0.  1.
          1   -1    0    0  501    0  0.00000000000E+00 -0.00000000000E+00 -0.94798986755E+02  0.94798986889E+02  0.50400000000E-02 0. -1.
         23    2    1    2    0    0  0.00000000000E+00  0.00000000000E+00 -0.72898099984E+02  0.11669987424E+03  0.91130278537E+02 0.  0.
    9000005    2    3    3    0    0 -0.27658684855E+02  0.36095206356E+02 -0.34779226738E+02  0.57362573431E+02  0.36060294445E+01 0.  0.
         22    1    3    3    0    0  0.27658684855E+02 -0.36095206356E+02 -0.38118873246E+02  0.59337300809E+02  0.00000000000E+00 0. -1.
         22    1    4    4    0    0 -0.17476940843E+02  0.20410015304E+02 -0.21770531685E+02  0.34582773685E+02  0.00000000000E+00 0. -1.
         22    1    4    4    0    0 -0.10181744011E+02  0.15685191052E+02 -0.13008695053E+02  0.22779799745E+02  0.00000000000E+00 0. -1.
<mgrwt>
<rscale>  0 0.91130279E+02</rscale>
<asrwt>0</asrwt>
<pdfrwt beam="2">  1        1 0.14584459E-01 0.91130279E+02</pdfrwt>
<pdfrwt beam="1">  1       -1 0.33693673E-02 0.91130279E+02</pdfrwt>
<totfact> 0.10367880E+05</totfact>
</mgrwt>
</event>
<event>
 7    1  0.2787125E-009  0.9274842E+02  0.7818608E-02  0.1296329E+00
         -1   -1    0    0    0  501 -0.00000000000E+00  0.00000000000E+00  0.87842508690E+02  0.87842508834E+02  0.50400000000E-02 0. -1.
          1   -1    0    0  501    0  0.00000000000E+00 -0.00000000000E+00 -0.24482082006E+02  0.24482082525E+02  0.50400000000E-02 0.  1.
         23    2    1    2    0    0 -0.35527136788E-14  0.35527136788E-14  0.63360426683E+02  0.11232459136E+03  0.92748424000E+02 0.  0.
    9000005    2    3    3    0    0 -0.15644428987E+02  0.25928609224E+02  0.73077279249E+02  0.80521161381E+02  0.15044193333E+02 0.  0.
         22    1    3    3    0    0  0.15644428987E+02 -0.25928609224E+02 -0.97168525654E+01  0.31803429979E+02  0.00000000000E+00 0.  1.
         22    1    4    4    0    0  0.58251693675E-01  0.10145929684E+02  0.34706955739E+02  0.36159591522E+02  0.00000000000E+00 0. -1.
         22    1    4    4    0    0 -0.15702680681E+02  0.15782679540E+02  0.38370323510E+02  0.44361569858E+02  0.00000000000E+00 0. -1.
<mgrwt>
<rscale>  0 0.92748424E+02</rscale>
<asrwt>0</asrwt>
<pdfrwt beam="2">  1        1 0.37664742E-02 0.92748424E+02</pdfrwt>
<pdfrwt beam="1">  1       -1 0.13514232E-01 0.92748424E+02</pdfrwt>
<totfact> 0.79718982E+04</totfact>
</mgrwt>
</event>
<event>
 7    1  0.2787125E-009  0.9289695E+02  0.7818608E-02  0.1295984E+00
         -1   -1    0    0    0  501 -0.00000000000E+00  0.00000000000E+00  0.52022779933E+02  0.52022780177E+02  0.50400000000E-02 0.  1.
          1   -1    0    0  501    0  0.00000000000E+00 -0.00000000000E+00 -0.41471461619E+02  0.41471461926E+02  0.50400000000E-02 0. -1.
         23    2    1    2    0    0  0.00000000000E+00 -0.35527136788E-14  0.10551318314E+02  0.93494242103E+02  0.92896948218E+02 0.  0.
    9000005    2    3    3    0    0  0.18077107669E+02  0.28877721121E+02 -0.25169861870E+02  0.44131226468E+02  0.12382996577E+02 0.  0.
         22    1    3    3    0    0 -0.18077107669E+02 -0.28877721121E+02  0.35721180184E+02  0.49363015635E+02  0.00000000000E+00 0.  1.
         22    1    4    4    0    0 -0.49102757161E+00  0.44034362815E+01 -0.74453812288E+01  0.86640095108E+01  0.00000000000E+00 0. -1.
         22    1    4    4    0    0  0.18568135240E+02  0.24474284839E+02 -0.17724480642E+02  0.35467216958E+02  0.00000000000E+00 0. -1.
<mgrwt>
<rscale>  0 0.92896948E+02</rscale>
<asrwt>0</asrwt>
<pdfrwt beam="2">  1        1 0.63802249E-02 0.92896948E+02</pdfrwt>
<pdfrwt beam="1">  1       -1 0.80035046E-02 0.92896948E+02</pdfrwt>
<totfact> 0.86470441E+04</totfact>
</mgrwt>
</event>
<event>
 7    1  0.2787125E-009  0.8909537E+02  0.7818608E-02  0.1305057E+00
          1   -1    0    0  501    0  0.00000000000E+00  0.00000000000E+00  0.26535824280E+03  0.26535824284E+03  0.50400000000E-02 0. -1.
         -1   -1    0    0    0  501 -0.00000000000E+00 -0.00000000000E+00 -0.74785549237E+01  0.74785566220E+01  0.50400000000E-02 0.  1.
         23    2    1    2    0    0  0.00000000000E+00  0.00000000000E+00  0.25787968787E+03  0.27283679947E+03  0.89095374322E+02 0.  0.
    9000005    2    3    3    0    0 -0.41892975638E+02  0.31402620603E+01  0.95273458249E+02  0.10489136617E+03  0.12660339490E+02 0.  0.
         22    1    3    3    0    0  0.41892975638E+02 -0.31402620603E+01  0.16260622962E+03  0.16794543330E+03  0.00000000000E+00 0. -1.
         22    1    4    4    0    0 -0.20960017834E+02  0.56897723311E+01  0.36791835536E+02  0.42723939646E+02  0.00000000000E+00 0. -1.
         22    1    4    4    0    0 -0.20932957804E+02 -0.25495102708E+01  0.58481622714E+02  0.62167426521E+02  0.00000000000E+00 0. -1.
<mgrwt>
<rscale>  0 0.89095374E+02</rscale>
<asrwt>0</asrwt>
<pdfrwt beam="1">  1        1 0.40824351E-01 0.89095374E+02</pdfrwt>
<pdfrwt beam="2">  1       -1 0.11505469E-02 0.89095374E+02</pdfrwt>
<totfact> 0.13305827E+05</totfact>
</mgrwt>
</event>
<event>
 7    1  0.2787125E-009  0.9672931E+02  0.7818608E-02  0.1287328E+00
          1   -1    0    0  501    0  0.00000000000E+00  0.00000000000E+00  0.36068827096E+02  0.36068827448E+02  0.50400000000E-02 0. -1.
         -1   -1    0    0    0  501 -0.00000000000E+00 -0.00000000000E+00 -0.64852111482E+02  0.64852111678E+02  0.50400000000E-02 0.  1.
         23    2    1    2    0    0  0.00000000000E+00  0.00000000000E+00 -0.28783284387E+02  0.10092093913E+03  0.96729305249E+02 0.  0.
    9000005    2    3    3    0    0 -0.31187749598E+02 -0.23265838714E+02 -0.43877340860E+02  0.59185995531E+02  0.79866169335E+01 0.  0.
         22    1    3    3    0    0  0.31187749598E+02  0.23265838714E+02  0.15094056473E+02  0.41734943595E+02  0.00000000000E+00 0. -1.
         22    1    4    4    0    0 -0.13301263232E+02 -0.14878072369E+02 -0.22663480950E+02  0.30197913996E+02  0.00000000000E+00 0.  1.
         22    1    4    4    0    0 -0.17886486366E+02 -0.83877663449E+01 -0.21213859910E+02  0.28988081535E+02  0.00000000000E+00 0.  1.
<mgrwt>
<rscale>  0 0.96729305E+02</rscale>
<asrwt>0</asrwt>
<pdfrwt beam="1">  1        1 0.55490504E-02 0.96729305E+02</pdfrwt>
<pdfrwt beam="2">  1       -1 0.99772479E-02 0.96729305E+02</pdfrwt>
<totfact> 0.75366291E+04</totfact>
</mgrwt>
</event>
<event>
 7    1  0.2787125E-009  0.9133158E+02  0.7818608E-02  0.1299659E+00
         -1   -1    0    0    0  501 -0.00000000000E+00  0.00000000000E+00  0.89700314977E+02  0.89700315119E+02  0.50400000000E-02 0.  1.
          1   -1    0    0  501    0  0.00000000000E+00 -0.00000000000E+00 -0.23248128887E+02  0.23248129434E+02  0.50400000000E-02 0. -1.
         23    2    1    2    0    0  0.00000000000E+00  0.11102230246E-15  0.66452186090E+02  0.11294844455E+03  0.91331583205E+02 0.  0.
    9000005    2    3    3    0    0  0.19998344699E+02  0.85794890139E+00  0.83899309412E+02  0.86395253045E+02  0.49371815607E+01 0.  0.
         22    1    3    3    0    0 -0.19998344699E+02 -0.85794890139E+00 -0.17447123322E+02  0.26553191508E+02  0.00000000000E+00 0. -1.
         22    1    4    4    0    0  0.11599995379E+02  0.24651527142E+01  0.42589075009E+02  0.44209344949E+02  0.00000000000E+00 0. -1.
         22    1    4    4    0    0  0.83983493201E+01 -0.16072038128E+01  0.41310234403E+02  0.42185908095E+02  0.00000000000E+00 0. -1.
<mgrwt>
<rscale>  0 0.91331583E+02</rscale>
<asrwt>0</asrwt>
<pdfrwt beam="2">  1        1 0.35766352E-02 0.91331583E+02</pdfrwt>
<pdfrwt beam="1">  1       -1 0.13800049E-01 0.91331583E+02</pdfrwt>
<totfact> 0.82630124E+04</totfact>
</mgrwt>
</event>
<event>
 7    1  0.2787125E-009  0.9286627E+02  0.7818608E-02  0.1296055E+00
         -1   -1    0    0    0  501 -0.00000000000E+00  0.00000000000E+00  0.46842144952E+01  0.46842172066E+01  0.50400000000E-02 0.  1.
          1   -1    0    0  501    0  0.00000000000E+00 -0.00000000000E+00 -0.46027685183E+03  0.46027685186E+03  0.50400000000E-02 0. -1.
         23    2    1    2    0    0  0.00000000000E+00  0.00000000000E+00 -0.45559263733E+03  0.46496106906E+03  0.92866272412E+02 0.  0.
    9000005    2    3    3    0    0 -0.45314332519E+02 -0.22191059644E+01 -0.26610819664E+03  0.27012096429E+03  0.96669471475E+01 0.  0.
         22    1    3    3    0    0  0.45314332519E+02  0.22191059644E+01 -0.18948444069E+03  0.19484010477E+03  0.00000000000E+00 0. -1.
         22    1    4    4    0    0 -0.42551267306E+02 -0.44373832363E+01 -0.24916961360E+03  0.25281573737E+03  0.00000000000E+00 0. -1.
         22    1    4    4    0    0 -0.27630652126E+01  0.22182772719E+01 -0.16938583035E+02  0.17305226918E+02  0.00000000000E+00 0. -1.
<mgrwt>
<rscale>  0 0.92866272E+02</rscale>
<asrwt>0</asrwt>
<pdfrwt beam="2">  1        1 0.70811787E-01 0.92866272E+02</pdfrwt>
<pdfrwt beam="1">  1       -1 0.72064896E-03 0.92866272E+02</pdfrwt>
<totfact> 0.13123709E+05</totfact>
</mgrwt>
</event>
<event>
 7    1  0.2787125E-009  0.9040036E+02  0.7818608E-02  0.1301885E+00
          1   -1    0    0  501    0  0.00000000000E+00  0.00000000000E+00  0.43606635174E+02  0.43606635466E+02  0.50400000000E-02 0. -1.
         -1   -1    0    0    0  501 -0.00000000000E+00 -0.00000000000E+00 -0.46851963250E+02  0.46851963521E+02  0.50400000000E-02 0.  1.
         23    2    1    2    0    0 -0.17763568394E-14 -0.24980018054E-15 -0.32453280757E+01  0.90458598987E+02  0.90400364913E+02 0.  0.
    9000005    2    3    3    0    0 -0.13965904219E+02  0.19023528084E+00  0.40184435567E+02  0.44838131649E+02  0.14162856978E+02 0.  0.
         22    1    3    3    0    0  0.13965904219E+02 -0.19023528084E+00 -0.43429763643E+02  0.45620467338E+02  0.00000000000E+00 0.  1.
         22    1    4    4    0    0 -0.65496206766E+01 -0.62811603878E+01  0.12430350985E+02  0.15390390913E+02  0.00000000000E+00 0. -1.
         22    1    4    4    0    0 -0.74162835421E+01  0.64713956687E+01  0.27754084582E+02  0.29447740736E+02  0.00000000000E+00 0. -1.
<mgrwt>
<rscale>  0 0.90400365E+02</rscale>
<asrwt>0</asrwt>
<pdfrwt beam="1">  1        1 0.67087132E-02 0.90400365E+02</pdfrwt>
<pdfrwt beam="2">  1       -1 0.72079944E-02 0.90400365E+02</pdfrwt>
<totfact> 0.94089151E+04</totfact>
</mgrwt>
</event>
<event>
 7    1  0.2787125E-009  0.9133335E+02  0.7818608E-02  0.1299655E+00
         -1   -1    0    0    0  501 -0.00000000000E+00  0.00000000000E+00  0.86497035855E+01  0.86497050539E+01  0.50400000000E-02 0.  1.
          1   -1    0    0  501    0  0.00000000000E+00 -0.00000000000E+00 -0.24110016119E+03  0.24110016125E+03  0.50400000000E-02 0. -1.
         23    2    1    2    0    0  0.00000000000E+00  0.00000000000E+00 -0.23245045761E+03  0.24974986630E+03  0.91333348098E+02 0.  0.
    9000005    2    3    3    0    0 -0.55632254359E+01  0.44810528181E+02 -0.12333367226E+03  0.13165919877E+03  0.91660784681E+01 0.  0.
         22    1    3    3    0    0  0.55632254359E+01 -0.44810528181E+02 -0.10911678535E+03  0.11809066754E+03  0.00000000000E+00 0. -1.
         22    1    4    4    0    0 -0.34251720822E+01  0.33475055758E+02 -0.79394587925E+02  0.86231153034E+02  0.00000000000E+00 0.  1.
         22    1    4    4    0    0 -0.21380533537E+01  0.11335472423E+02 -0.43939084330E+02  0.45428045731E+02  0.00000000000E+00 0.  1.
<mgrwt>
<rscale>  0 0.91333348E+02</rscale>
<asrwt>0</asrwt>
<pdfrwt beam="2">  1        1 0.37092327E-01 0.91333348E+02</pdfrwt>
<pdfrwt beam="1">  1       -1 0.13307239E-02 0.91333348E+02</pdfrwt>
<totfact> 0.12223721E+05</totfact>
</mgrwt>
</event>
<event>
 7    1  0.2787125E-009  0.9900734E+02  0.7818608E-02  0.1282397E+00
         -1   -1    0    0    0  501 -0.00000000000E+00  0.00000000000E+00  0.29283227577E+02  0.29283228011E+02  0.50400000000E-02 0.  1.
          1   -1    0    0  501    0  0.00000000000E+00 -0.00000000000E+00 -0.83686579798E+02  0.83686579950E+02  0.50400000000E-02 0. -1.
         23    2    1    2    0    0  0.00000000000E+00  0.00000000000E+00 -0.54403352221E+02  0.11296980796E+03  0.99007336990E+02 0.  0.
    9000005    2    3    3    0    0  0.26234335029E+02 -0.36154556914E+02 -0.39454515985E+01  0.45579956683E+02  0.81592611704E+01 0.  0.
         22    1    3    3    0    0 -0.26234335029E+02  0.36154556914E+02 -0.50457900622E+02  0.67389851278E+02  0.00000000000E+00 0. -1.
         22    1    4    4    0    0 -0.14225805292E+00 -0.28180985909E+01  0.39664972671E+00  0.28494294214E+01  0.00000000000E+00 0. -1.
         22    1    4    4    0    0  0.26376593082E+02 -0.33336458323E+02 -0.43421013252E+01  0.42730527261E+02  0.00000000000E+00 0. -1.
<mgrwt>
<rscale>  0 0.99007337E+02</rscale>
<asrwt>0</asrwt>
<pdfrwt beam="2">  1        1 0.12874858E-01 0.99007337E+02</pdfrwt>
<pdfrwt beam="1">  1       -1 0.45051120E-02 0.99007337E+02</pdfrwt>
<totfact> 0.80838165E+04</totfact>
</mgrwt>
</event>
<event>
 7    1  0.2787125E-009  0.9120680E+02  0.7818608E-02  0.1299955E+00
          1   -1    0    0  501    0  0.00000000000E+00  0.00000000000E+00  0.70954100588E+02  0.70954100767E+02  0.50400000000E-02 0. -1.
         -1   -1    0    0    0  501 -0.00000000000E+00 -0.00000000000E+00 -0.29310077290E+02  0.29310077724E+02  0.50400000000E-02 0.  1.
         23    2    1    2    0    0 -0.88817841970E-15  0.00000000000E+00  0.41644023297E+02  0.10026417849E+03  0.91206802443E+02 0.  0.
    9000005    2    3    3    0    0  0.42585034576E+01 -0.35020885875E+02  0.51389859529E+02  0.63663924078E+02  0.12945279737E+02 0.  0.
         22    1    3    3    0    0 -0.42585034576E+01  0.35020885875E+02 -0.97458362317E+01  0.36600254412E+02  0.00000000000E+00 0.  1.
         22    1    4    4    0    0 -0.22094322497E+01 -0.23116310669E+01  0.12150816767E+01  0.34207678285E+01  0.00000000000E+00 0.  1.
         22    1    4    4    0    0  0.64679357074E+01 -0.32709254808E+02  0.50174777852E+02  0.60243156250E+02  0.00000000000E+00 0.  1.
<mgrwt>
<rscale>  0 0.91206802E+02</rscale>
<asrwt>0</asrwt>
<pdfrwt beam="1">  1        1 0.10916016E-01 0.91206802E+02</pdfrwt>
<pdfrwt beam="2">  1       -1 0.45092427E-02 0.91206802E+02</pdfrwt>
<totfact> 0.98783965E+04</totfact>
</mgrwt>
</event>
<event>
 7    1  0.2787125E-009  0.9408182E+02  0.7818608E-02  0.1293258E+00
         -1   -1    0    0    0  501 -0.00000000000E+00  0.00000000000E+00  0.66398043166E+02  0.66398043358E+02  0.50400000000E-02 0.  1.
          1   -1    0    0  501    0  0.00000000000E+00 -0.00000000000E+00 -0.33326996780E+02  0.33326997161E+02  0.50400000000E-02 0. -1.
         23    2    1    2    0    0  0.00000000000E+00  0.00000000000E+00  0.33071046386E+02  0.99725040519E+02  0.94081823948E+02 0.  0.
    9000005    2    3    3    0    0 -0.26812039493E+02  0.29967617404E+02  0.42075049853E+02  0.58518055273E+02  0.60917499996E+01 0.  0.
         22    1    3    3    0    0  0.26812039493E+02 -0.29967617404E+02 -0.90040034672E+01  0.41206985247E+02  0.00000000000E+00 0. -1.
         22    1    4    4    0    0 -0.12855739086E+01 -0.16508168812E-01  0.11586898781E+01  0.17307614012E+01  0.00000000000E+00 0.  1.
         22    1    4    4    0    0 -0.25526465585E+02  0.29984125573E+02  0.40916359975E+02  0.56787293871E+02  0.00000000000E+00 0.  1.
<mgrwt>
<rscale>  0 0.94081824E+02</rscale>
<asrwt>0</asrwt>
<pdfrwt beam="2">  1        1 0.51272304E-02 0.94081824E+02</pdfrwt>
<pdfrwt beam="1">  1       -1 0.10215083E-01 0.94081824E+02</pdfrwt>
<totfact> 0.80574187E+04</totfact>
</mgrwt>
</event>
<event>
 7    1  0.2787125E-009  0.9186269E+02  0.7818608E-02  0.1298403E+00
         -1   -1    0    0    0  501 -0.00000000000E+00  0.00000000000E+00  0.23325540232E+02  0.23325540776E+02  0.50400000000E-02 0.  1.
          1   -1    0    0  501    0  0.00000000000E+00 -0.00000000000E+00 -0.90445434303E+02  0.90445434443E+02  0.50400000000E-02 0. -1.
         23    2    1    2    0    0  0.00000000000E+00  0.19428902931E-15 -0.67119894071E+02  0.11377097522E+03  0.91862694399E+02 0.  0.
    9000005    2    3    3    0    0 -0.34872657735E+02  0.36972966057E-01 -0.69715165670E+02  0.78801859429E+02  0.11550978336E+02 0.  0.
         22    1    3    3    0    0  0.34872657735E+02 -0.36972966057E-01  0.25952715990E+01  0.34969115790E+02  0.00000000000E+00 0.  1.
         22    1    4    4    0    0 -0.11781317646E+02 -0.53916529031E+01 -0.22532619157E+02  0.25992081344E+02  0.00000000000E+00 0. -1.
         22    1    4    4    0    0 -0.23091340088E+02  0.54286258692E+01 -0.47182546513E+02  0.52809778085E+02  0.00000000000E+00 0. -1.
<mgrwt>
<rscale>  0 0.91862694E+02</rscale>
<asrwt>0</asrwt>
<pdfrwt beam="2">  1        1 0.13914682E-01 0.91862694E+02</pdfrwt>
<pdfrwt beam="1">  1       -1 0.35885448E-02 0.91862694E+02</pdfrwt>
<totfact> 0.10065587E+05</totfact>
</mgrwt>
</event>
<event>
 7    1  0.2787125E-009  0.9391178E+02  0.7818608E-02  0.1293646E+00
          1   -1    0    0  501    0  0.00000000000E+00  0.00000000000E+00  0.24654402608E+02  0.24654403123E+02  0.50400000000E-02 0. -1.
         -1   -1    0    0    0  501 -0.00000000000E+00 -0.00000000000E+00 -0.89430493777E+02  0.89430493919E+02  0.50400000000E-02 0.  1.
         23    2    1    2    0    0  0.00000000000E+00  0.00000000000E+00 -0.64776091169E+02  0.11408489704E+03  0.93911776397E+02 0.  0.
    9000005    2    3    3    0    0  0.12963884485E+02 -0.20906364945E+02  0.14080485481E+02  0.31480429384E+02  0.13697407297E+02 0.  0.
         22    1    3    3    0    0 -0.12963884485E+02  0.20906364945E+02 -0.78856576650E+02  0.82604467658E+02  0.00000000000E+00 0.  1.
         22    1    4    4    0    0  0.61192522138E+01 -0.62976769400E+01  0.12492422763E+02  0.15269794006E+02  0.00000000000E+00 0.  1.
         22    1    4    4    0    0  0.68446322709E+01 -0.14608688005E+02  0.15880627182E+01  0.16210635377E+02  0.00000000000E+00 0.  1.
<mgrwt>
<rscale>  0 0.93911776E+02</rscale>
<asrwt>0</asrwt>
<pdfrwt beam="1">  1        1 0.37929851E-02 0.93911776E+02</pdfrwt>
<pdfrwt beam="2">  1       -1 0.13758537E-01 0.93911776E+02</pdfrwt>
<totfact> 0.76959014E+04</totfact>
</mgrwt>
</event>
<event>
 7    1  0.2787125E-009  0.8846617E+02  0.7818608E-02  0.1306609E+00
         -1   -1    0    0    0  501 -0.00000000000E+00  0.00000000000E+00  0.15257870688E+03  0.15257870697E+03  0.50400000000E-02 0. -1.
          1   -1    0    0  501    0  0.00000000000E+00 -0.00000000000E+00 -0.12823319810E+02  0.12823320800E+02  0.50400000000E-02 0.  1.
         23    2    1    2    0    0 -0.17763568394E-14 -0.35527136788E-14  0.13975538707E+03  0.16540202777E+03  0.88466166262E+02 0.  0.
    9000005    2    3    3    0    0  0.11975483953E+02  0.30904498619E+02  0.18706174853E+02  0.39897398250E+02  0.11974187184E+02 0.  0.
         22    1    3    3    0    0 -0.11975483953E+02 -0.30904498619E+02  0.12104921222E+03  0.12550462952E+03  0.00000000000E+00 0. -1.
         22    1    4    4    0    0  0.12224562124E+02  0.15351258900E+02  0.92646404944E+01  0.21701028373E+02  0.00000000000E+00 0.  1.
         22    1    4    4    0    0 -0.24907817076E+00  0.15553239718E+02  0.94415343582E+01  0.18196369877E+02  0.00000000000E+00 0.  1.
<mgrwt>
<rscale>  0 0.88466166E+02</rscale>
<asrwt>0</asrwt>
<pdfrwt beam="2">  1        1 0.19728184E-02 0.88466166E+02</pdfrwt>
<pdfrwt beam="1">  1       -1 0.23473648E-01 0.88466166E+02</pdfrwt>
<totfact> 0.80550351E+04</totfact>
</mgrwt>
</event>
<event>
 7    1  0.2787125E-009  0.7420741E+02  0.7818608E-02  0.1346343E+00
          1   -1    0    0  501    0  0.00000000000E+00  0.00000000000E+00  0.37528289821E+02  0.37528290160E+02  0.50400000000E-02 0. -1.
         -1   -1    0    0    0  501 -0.00000000000E+00 -0.00000000000E+00 -0.36683926801E+02  0.36683927147E+02  0.50400000000E-02 0.  1.
         23    2    1    2    0    0  0.00000000000E+00  0.00000000000E+00  0.84436302048E+00  0.74212217307E+02  0.74207413705E+02 0.  0.
    9000005    2    3    3    0    0  0.84388431694E+01 -0.32970643127E+02 -0.12108640986E+02  0.37797142200E+02  0.11123281427E+02 0.  0.
         22    1    3    3    0    0 -0.84388431694E+01  0.32970643127E+02  0.12953004006E+02  0.36415075107E+02  0.00000000000E+00 0. -1.
         22    1    4    4    0    0 -0.25486187170E+01 -0.10155630245E+02 -0.39824272869E+01  0.11202321641E+02  0.00000000000E+00 0. -1.
         22    1    4    4    0    0  0.10987461886E+02 -0.22815012882E+02 -0.81262136988E+01  0.26594820559E+02  0.00000000000E+00 0. -1.
<mgrwt>
<rscale>  0 0.74207414E+02</rscale>
<asrwt>0</asrwt>
<pdfrwt beam="1">  1        1 0.57735831E-02 0.74207414E+02</pdfrwt>
<pdfrwt beam="2">  1       -1 0.56436811E-02 0.74207414E+02</pdfrwt>
<totfact> 0.15927812E+05</totfact>
</mgrwt>
</event>
<event>
 7    1  0.2787125E-009  0.9116630E+02  0.7818608E-02  0.1300052E+00
          1   -1    0    0  501    0  0.00000000000E+00  0.00000000000E+00  0.69908250790E+02  0.69908250972E+02  0.50400000000E-02 0.  1.
         -1   -1    0    0    0  501 -0.00000000000E+00 -0.00000000000E+00 -0.29722147585E+02  0.29722148013E+02  0.50400000000E-02 0. -1.
         23    2    1    2    0    0  0.00000000000E+00  0.00000000000E+00  0.40186103205E+02  0.99630398985E+02  0.91166295916E+02 0.  0.
    9000005    2    3    3    0    0 -0.40165240139E+01 -0.22012983109E+02 -0.23260620722E+02  0.32353429169E+02  0.22324901167E+01 0.  0.
         22    1    3    3    0    0  0.40165240139E+01  0.22012983109E+02  0.63446723927E+02  0.67276969816E+02  0.00000000000E+00 0.  1.
         22    1    4    4    0    0 -0.22311177383E+01 -0.71881095565E+01 -0.70283541232E+01  0.10297794280E+02  0.00000000000E+00 0. -1.
         22    1    4    4    0    0 -0.17854062756E+01 -0.14824873552E+02 -0.16232266599E+02  0.22055634889E+02  0.00000000000E+00 0. -1.
<mgrwt>
<rscale>  0 0.91166296E+02</rscale>
<asrwt>0</asrwt>
<pdfrwt beam="1">  1        1 0.10755116E-01 0.91166296E+02</pdfrwt>
<pdfrwt beam="2">  1       -1 0.45726382E-02 0.91166296E+02</pdfrwt>
<totfact> 0.98678496E+04</totfact>
</mgrwt>
</event>
<event>
 7    1  0.2787125E-009  0.9192659E+02  0.7818608E-02  0.1298252E+00
          1   -1    0    0  501    0  0.00000000000E+00  0.00000000000E+00  0.84374856964E+01  0.84374872017E+01  0.50400000000E-02 0. -1.
         -1   -1    0    0    0  501 -0.00000000000E+00 -0.00000000000E+00 -0.25038550632E+03  0.25038550637E+03  0.50400000000E-02 0.  1.
         23    2    1    2    0    0  0.00000000000E+00  0.00000000000E+00 -0.24194802063E+03  0.25882299357E+03  0.91926586569E+02 0.  0.
    9000005    2    3    3    0    0  0.21048876202E+02 -0.39262173705E+02 -0.13814538633E+03  0.14586476962E+03  0.14415608799E+02 0.  0.
         22    1    3    3    0    0 -0.21048876202E+02  0.39262173705E+02 -0.10380263429E+03  0.11295822396E+03  0.00000000000E+00 0. -1.
         22    1    4    4    0    0  0.12131331266E+02 -0.31315652679E+02 -0.11521780217E+03  0.12001242118E+03  0.00000000000E+00 0.  1.
         22    1    4    4    0    0  0.89175449358E+01 -0.79465210266E+01 -0.22927584165E+02  0.25852348438E+02  0.00000000000E+00 0.  1.
<mgrwt>
<rscale>  0 0.91926587E+02</rscale>
<asrwt>0</asrwt>
<pdfrwt beam="1">  1        1 0.12980750E-02 0.91926587E+02</pdfrwt>
<pdfrwt beam="2">  1       -1 0.38520842E-01 0.91926587E+02</pdfrwt>
<totfact> 0.63360244E+04</totfact>
</mgrwt>
</event>
<event>
 7    1  0.2787125E-009  0.9484746E+02  0.7818608E-02  0.1291520E+00
         -1   -1    0    0    0  501 -0.00000000000E+00  0.00000000000E+00  0.14591217953E+02  0.14591218824E+02  0.50400000000E-02 0.  1.
          1   -1    0    0  501    0  0.00000000000E+00 -0.00000000000E+00 -0.15413448538E+03  0.15413448546E+03  0.50400000000E-02 0. -1.
         23    2    1    2    0    0  0.00000000000E+00  0.35527136788E-14 -0.13954326743E+03  0.16872570429E+03  0.94847455436E+02 0.  0.
    9000005    2    3    3    0    0  0.36839334720E+02 -0.18807220535E+02 -0.35354283674E+02  0.56626674574E+02  0.15678226061E+02 0.  0.
         22    1    3    3    0    0 -0.36839334720E+02  0.18807220535E+02 -0.10418898375E+03  0.11209902971E+03  0.00000000000E+00 0. -1.
         22    1    4    4    0    0 -0.13402031688E+01 -0.16625187132E+01 -0.57999244255E+00  0.22128046093E+01  0.00000000000E+00 0. -1.
         22    1    4    4    0    0  0.38179537888E+02 -0.17144701821E+02 -0.34774291231E+02  0.54413869965E+02  0.00000000000E+00 0. -1.
<mgrwt>
<rscale>  0 0.94847455E+02</rscale>
<asrwt>0</asrwt>
<pdfrwt beam="2">  1        1 0.23712997E-01 0.94847455E+02</pdfrwt>
<pdfrwt beam="1">  1       -1 0.22448029E-02 0.94847455E+02</pdfrwt>
<totfact> 0.10128665E+05</totfact>
</mgrwt>
</event>
<event>
 7    1  0.2787125E-009  0.9146277E+02  0.7818608E-02  0.1299348E+00
          1   -1    0    0  501    0  0.00000000000E+00  0.00000000000E+00  0.30525211164E+03  0.30525211168E+03  0.50400000000E-02 0. -1.
         -1   -1    0    0    0  501 -0.00000000000E+00 -0.00000000000E+00 -0.68512528484E+01  0.68512547022E+01  0.50400000000E-02 0.  1.
         23    2    1    2    0    0 -0.17763568394E-14  0.22204460493E-15  0.29840085879E+03  0.31210336638E+03  0.91462772648E+02 0.  0.
    9000005    2    3    3    0    0 -0.10960395745E+02  0.18222633440E+01  0.30024856227E+03  0.30083993321E+03  0.15232050120E+02 0.  0.
         22    1    3    3    0    0  0.10960395745E+02 -0.18222633440E+01 -0.18477034819E+01  0.11263433169E+02  0.00000000000E+00 0.  1.
         22    1    4    4    0    0 -0.11402053706E+02  0.71072531507E+01  0.22942691771E+03  0.22981999575E+03  0.00000000000E+00 0.  1.
         22    1    4    4    0    0  0.44165796110E+00 -0.52849898067E+01  0.70821644557E+02  0.71019937460E+02  0.00000000000E+00 0.  1.
<mgrwt>
<rscale>  0 0.91462773E+02</rscale>
<asrwt>0</asrwt>
<pdfrwt beam="1">  1        1 0.46961862E-01 0.91462773E+02</pdfrwt>
<pdfrwt beam="2">  1       -1 0.10540391E-02 0.91462773E+02</pdfrwt>
<totfact> 0.12747680E+05</totfact>
</mgrwt>
</event>
<event>
 7    1  0.2787125E-009  0.9181876E+02  0.7818608E-02  0.1298506E+00
          1   -1    0    0  501    0  0.00000000000E+00  0.00000000000E+00  0.29957433885E+01  0.29957476281E+01  0.50400000000E-02 0. -1.
         -1   -1    0    0    0  501 -0.00000000000E+00 -0.00000000000E+00 -0.70355475147E+03  0.70355475149E+03  0.50400000000E-02 0.  1.
         23    2    1    2    0    0  0.88817841970E-15  0.00000000000E+00 -0.70055900808E+03  0.70655049911E+03  0.91818756238E+02 0.  0.
    9000005    2    3    3    0    0 -0.44432089620E+01 -0.42766417939E+02 -0.45854370028E+03  0.46074545885E+03  0.13241758819E+02 0.  0.
         22    1    3    3    0    0  0.44432089620E+01  0.42766417939E+02 -0.24201530780E+03  0.24580504026E+03  0.00000000000E+00 0. -1.
         22    1    4    4    0    0 -0.76188008144E+01 -0.35364928790E+02 -0.33727277626E+03  0.33920738483E+03  0.00000000000E+00 0. -1.
         22    1    4    4    0    0  0.31755918524E+01 -0.74014891487E+01 -0.12127092402E+03  0.12153807403E+03  0.00000000000E+00 0. -1.
<mgrwt>
<rscale>  0 0.91818756E+02</rscale>
<asrwt>0</asrwt>
<pdfrwt beam="1">  1        1 0.46088449E-03 0.91818756E+02</pdfrwt>
<pdfrwt beam="2">  1       -1 0.10823906E+00 0.91818756E+02</pdfrwt>
<totfact> 0.36017074E+04</totfact>
</mgrwt>
</event>
<event>
 7    1  0.2787125E-009  0.8950396E+02  0.7818608E-02  0.1304057E+00
         -1   -1    0    0    0  501 -0.00000000000E+00  0.00000000000E+00  0.75951416370E+02  0.75951416537E+02  0.50400000000E-02 0.  1.
          1   -1    0    0  501    0  0.00000000000E+00 -0.00000000000E+00 -0.26368694951E+02  0.26368695433E+02  0.50400000000E-02 0. -1.
         23    2    1    2    0    0  0.44408920985E-15  0.00000000000E+00  0.49582721419E+02  0.10232011197E+03  0.89503961087E+02 0.  0.
    9000005    2    3    3    0    0 -0.66398375071E+00  0.43374160644E+02  0.34250644000E+02  0.56311077163E+02  0.10773676756E+02 0.  0.
         22    1    3    3    0    0  0.66398375071E+00 -0.43374160644E+02  0.15332077419E+02  0.46009034808E+02  0.00000000000E+00 0. -1.
         22    1    4    4    0    0 -0.41776686893E+01  0.34642107677E+02  0.23747426402E+02  0.42207449587E+02  0.00000000000E+00 0.  1.
         22    1    4    4    0    0  0.35136849386E+01  0.87320529670E+01  0.10503217599E+02  0.14103627575E+02  0.00000000000E+00 0.  1.
<mgrwt>
<rscale>  0 0.89503961E+02</rscale>
<asrwt>0</asrwt>
<pdfrwt beam="2">  1        1 0.40567224E-02 0.89503961E+02</pdfrwt>
<pdfrwt beam="1">  1       -1 0.11684833E-01 0.89503961E+02</pdfrwt>
<totfact> 0.89524426E+04</totfact>
</mgrwt>
</event>
<event>
 7    1  0.2787125E-009  0.9012111E+02  0.7818608E-02  0.1302559E+00
          1   -1    0    0  501    0  0.00000000000E+00  0.00000000000E+00  0.19135878712E+03  0.19135878718E+03  0.50400000000E-02 0. -1.
         -1   -1    0    0    0  501 -0.00000000000E+00 -0.00000000000E+00 -0.10610714040E+02  0.10610715237E+02  0.50400000000E-02 0.  1.
         23    2    1    2    0    0 -0.35527136788E-14  0.00000000000E+00  0.18074807308E+03  0.20196950242E+03  0.90121107333E+02 0.  0.
    9000005    2    3    3    0    0  0.17124079975E+02  0.40206823145E+02  0.10357156053E+03  0.11327882179E+03  0.13971419839E+02 0.  0.
         22    1    3    3    0    0 -0.17124079975E+02 -0.40206823145E+02  0.77176512548E+02  0.88690680634E+02  0.00000000000E+00 0. -1.
         22    1    4    4    0    0 -0.70002401420E+00  0.11749353335E+02  0.35019985534E+02  0.36945050063E+02  0.00000000000E+00 0.  1.
         22    1    4    4    0    0  0.17824103989E+02  0.28457469810E+02  0.68551574997E+02  0.76333771724E+02  0.00000000000E+00 0.  1.
<mgrwt>
<rscale>  0 0.90121107E+02</rscale>
<asrwt>0</asrwt>
<pdfrwt beam="1">  1        1 0.29439815E-01 0.90121107E+02</pdfrwt>
<pdfrwt beam="2">  1       -1 0.16324176E-02 0.90121107E+02</pdfrwt>
<totfact> 0.12112167E+05</totfact>
</mgrwt>
</event>
<event>
 7    1  0.2787125E-009  0.9066520E+02  0.7818608E-02  0.1301249E+00
         -1   -1    0    0    0  501 -0.00000000000E+00  0.00000000000E+00  0.69003044440E+01  0.69003062846E+01  0.50400000000E-02 0.  1.
          1   -1    0    0  501    0  0.00000000000E+00 -0.00000000000E+00 -0.29781939837E+03  0.29781939841E+03  0.50400000000E-02 0. -1.
         23    2    1    2    0    0  0.00000000000E+00  0.00000000000E+00 -0.29091909392E+03  0.30471970470E+03  0.90665204020E+02 0.  0.
    9000005    2    3    3    0    0  0.72319206792E+01  0.28917901002E+02 -0.26016263812E+03  0.26188857993E+03  0.35333198864E+01 0.  0.
         22    1    3    3    0    0 -0.72319206792E+01 -0.28917901002E+02 -0.30756455809E+02  0.42831124769E+02  0.00000000000E+00 0.  1.
         22    1    4    4    0    0  0.33889493330E+00  0.57942368234E-01 -0.27031850910E+01  0.27249617851E+01  0.00000000000E+00 0. -1.
         22    1    4    4    0    0  0.68930257459E+01  0.28859958634E+02 -0.25745945303E+03  0.25916361814E+03  0.00000000000E+00 0. -1.
<mgrwt>
<rscale>  0 0.90665204E+02</rscale>
<asrwt>0</asrwt>
<pdfrwt beam="2">  1        1 0.45818359E-01 0.90665204E+02</pdfrwt>
<pdfrwt beam="1">  1       -1 0.10615857E-02 0.90665204E+02</pdfrwt>
<totfact> 0.12987557E+05</totfact>
</mgrwt>
</event>
<event>
 7    1  0.3105208E-009  0.8896637E+02  0.7818608E-02  0.1305374E+00
         -1   -1    0    0    0  501 -0.00000000000E+00  0.00000000000E+00  0.13801849905E+02  0.13801850825E+02  0.50400000000E-02 0.  1.
          1   -1    0    0  501    0  0.00000000000E+00 -0.00000000000E+00 -0.14336873893E+03  0.14336873902E+03  0.50400000000E-02 0. -1.
         23    2    1    2    0    0  0.00000000000E+00  0.00000000000E+00 -0.12956688903E+03  0.15717058985E+03  0.88966373313E+02 0.  0.
    9000005    2    3    3    0    0 -0.86828810455E+01 -0.30037405826E+02 -0.14330726589E+02  0.37767862468E+02  0.15601395412E+02 0.  0.
         22    1    3    3    0    0  0.86828810455E+01  0.30037405826E+02 -0.11523616244E+03  0.11940272738E+03  0.00000000000E+00 0. -1.
         22    1    4    4    0    0 -0.11791490482E+02 -0.12823425457E+02 -0.79372825014E+01  0.19143665839E+02  0.00000000000E+00 0. -1.
         22    1    4    4    0    0  0.31086094362E+01 -0.17213980369E+02 -0.63934440879E+01  0.18624196629E+02  0.00000000000E+00 0. -1.
<mgrwt>
<rscale>  0 0.88966373E+02</rscale>
<asrwt>0</asrwt>
<pdfrwt beam="2">  1        1 0.22056728E-01 0.88966373E+02</pdfrwt>
<pdfrwt beam="1">  1       -1 0.21233617E-02 0.88966373E+02</pdfrwt>
<totfact> 0.11881221E+05</totfact>
</mgrwt>
</event>
<event>
 7    1  0.2787125E-009  0.9112063E+02  0.7818608E-02  0.1300160E+00
         -1   -1    0    0    0  501 -0.00000000000E+00  0.00000000000E+00  0.15623769663E+02  0.15623770476E+02  0.50400000000E-02 0.  1.
          1   -1    0    0  501    0  0.00000000000E+00 -0.00000000000E+00 -0.13285795258E+03  0.13285795268E+03  0.50400000000E-02 0. -1.
         23    2    1    2    0    0  0.71054273576E-14  0.00000000000E+00 -0.11723418292E+03  0.14848172316E+03  0.91120625910E+02 0.  0.
    9000005    2    3    3    0    0 -0.34161695235E+02  0.24687556499E+01 -0.13491676427E+02  0.39231442473E+02  0.13563353932E+02 0.  0.
         22    1    3    3    0    0  0.34161695235E+02 -0.24687556499E+01 -0.10374250649E+03  0.10925028068E+03  0.00000000000E+00 0. -1.
         22    1    4    4    0    0 -0.12012008344E+00  0.24295415764E+01  0.39871959957E+00  0.24649702686E+01  0.00000000000E+00 0. -1.
         22    1    4    4    0    0 -0.34041575152E+02  0.39214073547E-01 -0.13890396027E+02  0.36766472204E+02  0.00000000000E+00 0. -1.
<mgrwt>
<rscale>  0 0.91120626E+02</rscale>
<asrwt>0</asrwt>
<pdfrwt beam="2">  1        1 0.20439684E-01 0.91120626E+02</pdfrwt>
<pdfrwt beam="1">  1       -1 0.24036570E-02 0.91120626E+02</pdfrwt>
<totfact> 0.10987504E+05</totfact>
</mgrwt>
</event>
<event>
 7    1  0.2787125E-009  0.9072145E+02  0.7818608E-02  0.1301114E+00
          1   -1    0    0  501    0  0.00000000000E+00  0.00000000000E+00  0.43361842869E+03  0.43361842872E+03  0.50400000000E-02 0. -1.
         -1   -1    0    0    0  501 -0.00000000000E+00 -0.00000000000E+00 -0.47451741937E+01  0.47451768702E+01  0.50400000000E-02 0.  1.
         23    2    1    2    0    0  0.00000000000E+00 -0.35527136788E-14  0.42887325450E+03  0.43836360559E+03  0.90721454371E+02 0.  0.
    9000005    2    3    3    0    0  0.37070732332E+02  0.24681155609E+02  0.21675196389E+03  0.22161757779E+03  0.12228585285E+02 0.  0.
         22    1    3    3    0    0 -0.37070732332E+02 -0.24681155609E+02  0.21212129061E+03  0.21674602780E+03  0.00000000000E+00 0. -1.
         22    1    4    4    0    0  0.18285676420E+02  0.16652297731E+02  0.14134161509E+03  0.14348908369E+03  0.00000000000E+00 0.  1.
         22    1    4    4    0    0  0.18785055913E+02  0.80288578781E+01  0.75410348801E+02  0.78128494103E+02  0.00000000000E+00 0.  1.
<mgrwt>
<rscale>  0 0.90721454E+02</rscale>
<asrwt>0</asrwt>
<pdfrwt beam="1">  1        1 0.66710539E-01 0.90721454E+02</pdfrwt>
<pdfrwt beam="2">  1       -1 0.73002689E-03 0.90721454E+02</pdfrwt>
<totfact> 0.13843955E+05</totfact>
</mgrwt>
</event>
<event>
 7    1  0.2787125E-009  0.9370138E+02  0.7818608E-02  0.1294128E+00
          1   -1    0    0  501    0  0.00000000000E+00  0.00000000000E+00  0.51344754108E+02  0.51344754356E+02  0.50400000000E-02 0. -1.
         -1   -1    0    0    0  501 -0.00000000000E+00 -0.00000000000E+00 -0.42749979083E+02  0.42749979380E+02  0.50400000000E-02 0.  1.
         23    2    1    2    0    0  0.00000000000E+00  0.00000000000E+00  0.85947750250E+01  0.94094733736E+02  0.93701380775E+02 0.  0.
    9000005    2    3    3    0    0 -0.10319243920E+02 -0.26615896245E+02  0.41513948853E+02  0.50522211047E+02  0.37673772987E+01 0.  0.
         22    1    3    3    0    0  0.10319243920E+02  0.26615896245E+02 -0.32919173828E+02  0.43572522689E+02  0.00000000000E+00 0.  1.
         22    1    4    4    0    0 -0.53833900920E+01 -0.99505470820E+01  0.14347327821E+02  0.18271291463E+02  0.00000000000E+00 0. -1.
         22    1    4    4    0    0 -0.49358538276E+01 -0.16665349163E+02  0.27166621032E+02  0.32250919584E+02  0.00000000000E+00 0. -1.
<mgrwt>
<rscale>  0 0.93701381E+02</rscale>
<asrwt>0</asrwt>
<pdfrwt beam="1">  1        1 0.78991930E-02 0.93701381E+02</pdfrwt>
<pdfrwt beam="2">  1       -1 0.65769199E-02 0.93701381E+02</pdfrwt>
<totfact> 0.87205977E+04</totfact>
</mgrwt>
</event>
<event>
 7    1  0.2787125E-009  0.7415801E+02  0.7818608E-02  0.1346498E+00
          1   -1    0    0  501    0  0.00000000000E+00  0.00000000000E+00  0.15506006379E+03  0.15506006387E+03  0.50400000000E-02 0. -1.
         -1   -1    0    0    0  501 -0.00000000000E+00 -0.00000000000E+00 -0.88665806023E+01  0.88665820348E+01  0.50400000000E-02 0.  1.
         23    2    1    2    0    0  0.00000000000E+00  0.00000000000E+00  0.14619348319E+03  0.16392664590E+03  0.74158011783E+02 0.  0.
    9000005    2    3    3    0    0  0.21527193719E+02  0.21354257090E+02  0.11930262998E+03  0.12339835515E+03  0.86378335484E+01 0.  0.
         22    1    3    3    0    0 -0.21527193719E+02 -0.21354257090E+02  0.26890853204E+02  0.40528290752E+02  0.00000000000E+00 0.  1.
         22    1    4    4    0    0  0.17657947256E+02  0.17837015417E+02  0.10890623468E+03  0.11176104049E+03  0.00000000000E+00 0.  1.
         22    1    4    4    0    0  0.38692464632E+01  0.35172416723E+01  0.10396395307E+02  0.11637314663E+02  0.00000000000E+00 0.  1.
<mgrwt>
<rscale>  0 0.74158012E+02</rscale>
<asrwt>0</asrwt>
<pdfrwt beam="1">  1        1 0.23855393E-01 0.74158012E+02</pdfrwt>
<pdfrwt beam="2">  1       -1 0.13640895E-02 0.74158012E+02</pdfrwt>
<totfact> 0.19556803E+05</totfact>
</mgrwt>
</event>
<event>
 7    1  0.2787125E-009  0.9247698E+02  0.7818608E-02  0.1296962E+00
         -1   -1    0    0    0  501 -0.00000000000E+00  0.00000000000E+00  0.12014122235E+03  0.12014122245E+03  0.50400000000E-02 0.  1.
          1   -1    0    0  501    0  0.00000000000E+00 -0.00000000000E+00 -0.17795706302E+02  0.17795707016E+02  0.50400000000E-02 0. -1.
         23    2    1    2    0    0  0.00000000000E+00 -0.88817841970E-15  0.10234551605E+03  0.13793692947E+03  0.92476980145E+02 0.  0.
    9000005    2    3    3    0    0 -0.39659272937E+02  0.40730526365E+01  0.83731687221E+02  0.93937812305E+02  0.14962267478E+02 0.  0.
         22    1    3    3    0    0  0.39659272937E+02 -0.40730526365E+01  0.18613828825E+02  0.43999117164E+02  0.00000000000E+00 0. -1.
         22    1    4    4    0    0 -0.28852038527E+02  0.96271477452E+01  0.60991708873E+02  0.68155048618E+02  0.00000000000E+00 0. -1.
         22    1    4    4    0    0 -0.10807234410E+02 -0.55540951086E+01  0.22739978349E+02  0.25782763688E+02  0.00000000000E+00 0. -1.
<mgrwt>
<rscale>  0 0.92476980E+02</rscale>
<asrwt>0</asrwt>
<pdfrwt beam="2">  1        1 0.27378010E-02 0.92476980E+02</pdfrwt>
<pdfrwt beam="1">  1       -1 0.18483265E-01 0.92476980E+02</pdfrwt>
<totfact> 0.75686489E+04</totfact>
</mgrwt>
</event>
<event>
 7    1  0.2787125E-009  0.8845132E+02  0.7818608E-02  0.1306646E+00
          1   -1    0    0  501    0  0.00000000000E+00  0.00000000000E+00  0.15922422744E+03  0.15922422752E+03  0.50400000000E-02 0. -1.
         -1   -1    0    0    0  501 -0.00000000000E+00 -0.00000000000E+00 -0.12283991915E+02  0.12283992949E+02  0.50400000000E-02 0.  1.
         23    2    1    2    0    0  0.00000000000E+00  0.00000000000E+00  0.14694023552E+03  0.17150822047E+03  0.88451324874E+02 0.  0.
    9000005    2    3    3    0    0  0.35816154567E+02  0.19366018722E+02  0.10443389945E+03  0.11264712792E+03  0.11184653137E+02 0.  0.
         22    1    3    3    0    0 -0.35816154567E+02 -0.19366018722E+02  0.42506336074E+02  0.58861092545E+02  0.00000000000E+00 0. -1.
         22    1    4    4    0    0  0.11506054456E+02  0.10423988324E+02  0.50181330069E+02  0.52528227738E+02  0.00000000000E+00 0. -1.
         22    1    4    4    0    0  0.24310100112E+02  0.89420303982E+01  0.54252569378E+02  0.60118900183E+02  0.00000000000E+00 0. -1.
<mgrwt>
<rscale>  0 0.88451325E+02</rscale>
<asrwt>0</asrwt>
<pdfrwt beam="1">  1        1 0.24496033E-01 0.88451325E+02</pdfrwt>
<pdfrwt beam="2">  1       -1 0.18898451E-02 0.88451325E+02</pdfrwt>
<totfact> 0.12301149E+05</totfact>
</mgrwt>
</event>
<event>
 7    1  0.2787125E-009  0.9598773E+02  0.7818608E-02  0.1288967E+00
          1   -1    0    0  501    0  0.00000000000E+00  0.00000000000E+00  0.14439521868E+03  0.14439521876E+03  0.50400000000E-02 0. -1.
         -1   -1    0    0    0  501 -0.00000000000E+00 -0.00000000000E+00 -0.15952127039E+02  0.15952127835E+02  0.50400000000E-02 0.  1.
         23    2    1    2    0    0  0.00000000000E+00  0.71054273576E-14  0.12844309164E+03  0.16034734660E+03  0.95987727194E+02 0.  0.
    9000005    2    3    3    0    0 -0.16223964112E+02 -0.42212298730E+02  0.41256807220E+02  0.62130528457E+02  0.10629357870E+02 0.  0.
         22    1    3    3    0    0  0.16223964112E+02  0.42212298730E+02  0.87186284416E+02  0.98216818142E+02  0.00000000000E+00 0.  1.
         22    1    4    4    0    0 -0.15783659802E+02 -0.42851817888E+02  0.40370997599E+02  0.60952601751E+02  0.00000000000E+00 0.  1.
         22    1    4    4    0    0 -0.44030430935E+00  0.63951915833E+00  0.88580962147E+00  0.11779267058E+01  0.00000000000E+00 0.  1.
<mgrwt>
<rscale>  0 0.95987727E+02</rscale>
<asrwt>0</asrwt>
<pdfrwt beam="1">  1        1 0.22214649E-01 0.95987727E+02</pdfrwt>
<pdfrwt beam="2">  1       -1 0.24541734E-02 0.95987727E+02</pdfrwt>
<totfact> 0.96867824E+04</totfact>
</mgrwt>
</event>
<event>
 7    1  0.2787125E-009  0.9232599E+02  0.7818608E-02  0.1297315E+00
         -1   -1    0    0    0  501 -0.00000000000E+00  0.00000000000E+00  0.26619717378E+01  0.26619765090E+01  0.50400000000E-02 0.  1.
          1   -1    0    0  501    0  0.00000000000E+00 -0.00000000000E+00 -0.80054207156E+03  0.80054207158E+03  0.50400000000E-02 0. -1.
         23    2    1    2    0    0  0.00000000000E+00 -0.17763568394E-14 -0.79788009982E+03  0.80320404809E+03  0.92325993998E+02 0.  0.
    9000005    2    3    3    0    0  0.36988379370E+02 -0.83454696134E+01 -0.62325600224E+03  0.62451056043E+03  0.11296401972E+02 0.  0.
         22    1    3    3    0    0 -0.36988379370E+02  0.83454696134E+01 -0.17462409759E+03  0.17869348765E+03  0.00000000000E+00 0. -1.
         22    1    4    4    0    0 -0.80114456297E+00 -0.77489329688E-01 -0.19478756629E+02  0.19495378863E+02  0.00000000000E+00 0. -1.
         22    1    4    4    0    0  0.37789523933E+02 -0.82679802837E+01 -0.60377724561E+03  0.60501518157E+03  0.00000000000E+00 0. -1.
<mgrwt>
<rscale>  0 0.92325994E+02</rscale>
<asrwt>0</asrwt>
<pdfrwt beam="2">  1        1 0.12316013E+00 0.92325994E+02</pdfrwt>
<pdfrwt beam="1">  1       -1 0.40953512E-03 0.92325994E+02</pdfrwt>
<totfact> 0.13668532E+05</totfact>
</mgrwt>
</event>
<event>
 7    1  0.2787125E-009  0.9537274E+02  0.7818608E-02  0.1290339E+00
          1   -1    0    0  501    0  0.00000000000E+00  0.00000000000E+00  0.19983432473E+03  0.19983432479E+03  0.50400000000E-02 0. -1.
         -1   -1    0    0    0  501 -0.00000000000E+00 -0.00000000000E+00 -0.11379376228E+02  0.11379377344E+02  0.50400000000E-02 0.  1.
         23    2    1    2    0    0  0.35527136788E-14 -0.35527136788E-14  0.18845494850E+03  0.21121370214E+03  0.95372744301E+02 0.  0.
    9000005    2    3    3    0    0 -0.18599169256E+02  0.15244316655E+02  0.18531532323E+03  0.18696137165E+03  0.58708754840E+01 0.  0.
         22    1    3    3    0    0  0.18599169256E+02 -0.15244316655E+02  0.31396252777E+01  0.24252330490E+02  0.00000000000E+00 0.  1.
         22    1    4    4    0    0 -0.16939281430E+02  0.12955338151E+02  0.14660451953E+03  0.14814744409E+03  0.00000000000E+00 0.  1.
         22    1    4    4    0    0 -0.16598878266E+01  0.22889785048E+01  0.38710803693E+02  0.38813927562E+02  0.00000000000E+00 0.  1.
<mgrwt>
<rscale>  0 0.95372744E+02</rscale>
<asrwt>0</asrwt>
<pdfrwt beam="1">  1        1 0.30743742E-01 0.95372744E+02</pdfrwt>
<pdfrwt beam="2">  1       -1 0.17506734E-02 0.95372744E+02</pdfrwt>
<totfact> 0.10489011E+05</totfact>
</mgrwt>
</event>
<event>
 7    1  0.2787125E-009  0.9236419E+02  0.7818608E-02  0.1297225E+00
          1   -1    0    0  501    0  0.00000000000E+00  0.00000000000E+00  0.25901303487E+02  0.25901303977E+02  0.50400000000E-02 0. -1.
         -1   -1    0    0    0  501 -0.00000000000E+00 -0.00000000000E+00 -0.82342801239E+02  0.82342801393E+02  0.50400000000E-02 0.  1.
         23    2    1    2    0    0 -0.71054273576E-14  0.00000000000E+00 -0.56441497752E+02  0.10824410537E+03  0.92364190458E+02 0.  0.
    9000005    2    3    3    0    0  0.35148940606E+02 -0.16672597096E+02 -0.91268472077E+00  0.40443864985E+02  0.11020422040E+02 0.  0.
         22    1    3    3    0    0 -0.35148940606E+02  0.16672597096E+02 -0.55528813031E+02  0.67800240385E+02  0.00000000000E+00 0.  1.
         22    1    4    4    0    0  0.28020312888E+01 -0.36437012943E+01  0.27877404420E+01  0.53758194945E+01  0.00000000000E+00 0.  1.
         22    1    4    4    0    0  0.32346909317E+02 -0.13028895801E+02 -0.37004251627E+01  0.35068045491E+02  0.00000000000E+00 0.  1.
<mgrwt>
<rscale>  0 0.92364190E+02</rscale>
<asrwt>0</asrwt>
<pdfrwt beam="1">  1        1 0.39848160E-02 0.92364190E+02</pdfrwt>
<pdfrwt beam="2">  1       -1 0.12668123E-01 0.92364190E+02</pdfrwt>
<totfact> 0.81486620E+04</totfact>
</mgrwt>
</event>
<event>
 7    1  0.2787125E-009  0.8622204E+02  0.7818608E-02  0.1312267E+00
          1   -1    0    0  501    0  0.00000000000E+00  0.00000000000E+00  0.30190625286E+03  0.30190625290E+03  0.50400000000E-02 0. -1.
         -1   -1    0    0    0  501 -0.00000000000E+00 -0.00000000000E+00 -0.61560828954E+01  0.61560849585E+01  0.50400000000E-02 0.  1.
         23    2    1    2    0    0  0.35527136788E-14  0.35527136788E-14  0.29575016996E+03  0.30806233786E+03  0.86222044594E+02 0.  0.
    9000005    2    3    3    0    0  0.30410870115E+02  0.27261325316E+02  0.19199371999E+03  0.19655717300E+03  0.10253431771E+02 0.  0.
         22    1    3    3    0    0 -0.30410870115E+02 -0.27261325316E+02  0.10375644997E+03  0.11150516485E+03  0.00000000000E+00 0.  1.
         22    1    4    4    0    0  0.23684832501E+02  0.16116183855E+02  0.11804921991E+03  0.12147559835E+03  0.00000000000E+00 0.  1.
         22    1    4    4    0    0  0.67260376141E+01  0.11145141461E+02  0.73944500081E+02  0.75081574653E+02  0.00000000000E+00 0.  1.
<mgrwt>
<rscale>  0 0.86222045E+02</rscale>
<asrwt>0</asrwt>
<pdfrwt beam="1">  1        1 0.46447113E-01 0.86222045E+02</pdfrwt>
<pdfrwt beam="2">  1       -1 0.94708990E-03 0.86222045E+02</pdfrwt>
<totfact> 0.14879269E+05</totfact>
</mgrwt>
</event>
<event>
 7    1  0.2787125E-009  0.8694857E+02  0.7818608E-02  0.1310414E+00
          1   -1    0    0  501    0  0.00000000000E+00  0.00000000000E+00  0.10340545885E+03  0.10340545897E+03  0.50400000000E-02 0.  1.
         -1   -1    0    0    0  501 -0.00000000000E+00 -0.00000000000E+00 -0.18277693988E+02  0.18277694682E+02  0.50400000000E-02 0. -1.
         23    2    1    2    0    0 -0.17763568394E-14  0.00000000000E+00  0.85127764860E+02  0.12168315365E+03  0.86948568320E+02 0.  0.
    9000005    2    3    3    0    0 -0.99240663352E+01  0.20574094033E+02  0.93985604832E+02  0.97183321676E+02  0.94616942700E+01 0.  0.
         22    1    3    3    0    0  0.99240663352E+01 -0.20574094033E+02 -0.88578399725E+01  0.24499831976E+02  0.00000000000E+00 0. -1.
         22    1    4    4    0    0 -0.10328983970E+02  0.12684696971E+02  0.53936910913E+02  0.56362929359E+02  0.00000000000E+00 0. -1.
         22    1    4    4    0    0  0.40491763507E+00  0.78893970617E+01  0.40048693920E+02  0.40820392318E+02  0.00000000000E+00 0. -1.
<mgrwt>
<rscale>  0 0.86948568E+02</rscale>
<asrwt>0</asrwt>
<pdfrwt beam="1">  1        1 0.15908532E-01 0.86948568E+02</pdfrwt>
<pdfrwt beam="2">  1       -1 0.28119529E-02 0.86948568E+02</pdfrwt>
<totfact> 0.11947834E+05</totfact>
</mgrwt>
</event>
<event>
 7    1  0.2787125E-009  0.9266645E+02  0.7818608E-02  0.1296520E+00
          1   -1    0    0  501    0  0.00000000000E+00  0.00000000000E+00  0.29192303238E+03  0.29192303243E+03  0.50400000000E-02 0. -1.
         -1   -1    0    0    0  501 -0.00000000000E+00 -0.00000000000E+00 -0.73538823344E+01  0.73538840615E+01  0.50400000000E-02 0.  1.
         23    2    1    2    0    0  0.00000000000E+00  0.00000000000E+00  0.28456915005E+03  0.29927691649E+03  0.92666453386E+02 0.  0.
    9000005    2    3    3    0    0 -0.41634758453E+02  0.15290069293E+02  0.17180751082E+03  0.17810585306E+03  0.15382938280E+02 0.  0.
         22    1    3    3    0    0  0.41634758453E+02 -0.15290069293E+02  0.11276163923E+03  0.12117106343E+03  0.00000000000E+00 0.  1.
         22    1    4    4    0    0 -0.38756789351E+02  0.17722690245E+02  0.16384461589E+03  0.16929631014E+03  0.00000000000E+00 0.  1.
         22    1    4    4    0    0 -0.28779691018E+01 -0.24326209515E+01  0.79628949278E+01  0.88095429209E+01  0.00000000000E+00 0.  1.
<mgrwt>
<rscale>  0 0.92666453E+02</rscale>
<asrwt>0</asrwt>
<pdfrwt beam="1">  1        1 0.44911237E-01 0.92666453E+02</pdfrwt>
<pdfrwt beam="2">  1       -1 0.11313666E-02 0.92666453E+02</pdfrwt>
<totfact> 0.12205847E+05</totfact>
</mgrwt>
</event>
<event>
 7    1  0.2787125E-009  0.9100864E+02  0.7818608E-02  0.1300427E+00
          1   -1    0    0  501    0  0.00000000000E+00  0.00000000000E+00  0.49659995990E+03  0.49659995993E+03  0.50400000000E-02 0. -1.
         -1   -1    0    0    0  501 -0.00000000000E+00 -0.00000000000E+00 -0.41696385753E+01  0.41696416213E+01  0.50400000000E-02 0.  1.
         23    2    1    2    0    0  0.00000000000E+00  0.00000000000E+00  0.49243032133E+03  0.50076960155E+03  0.91008639554E+02 0.  0.
    9000005    2    3    3    0    0  0.20894984883E+02  0.38618147446E+02  0.31157749568E+03  0.31466289493E+03  0.20591075335E+01 0.  0.
         22    1    3    3    0    0 -0.20894984883E+02 -0.38618147446E+02  0.18085282565E+03  0.18610670662E+03  0.00000000000E+00 0. -1.
         22    1    4    4    0    0  0.54015464637E+01  0.11886357839E+02  0.90741465390E+02  0.91675927855E+02  0.00000000000E+00 0.  1.
         22    1    4    4    0    0  0.15493438419E+02  0.26731789607E+02  0.22083603029E+03  0.22298696707E+03  0.00000000000E+00 0.  1.
<mgrwt>
<rscale>  0 0.91008640E+02</rscale>
<asrwt>0</asrwt>
<pdfrwt beam="1">  1        1 0.76399957E-01 0.91008640E+02</pdfrwt>
<pdfrwt beam="2">  1       -1 0.64148341E-03 0.91008640E+02</pdfrwt>
<totfact> 0.13983485E+05</totfact>
</mgrwt>
</event>
<event>
 7    1  0.2787125E-009  0.9117883E+02  0.7818608E-02  0.1300022E+00
         -1   -1    0    0    0  501 -0.00000000000E+00  0.00000000000E+00  0.46147556507E+02  0.46147556782E+02  0.50400000000E-02 0.  1.
          1   -1    0    0  501    0  0.00000000000E+00 -0.00000000000E+00 -0.45038023172E+02  0.45038023454E+02  0.50400000000E-02 0. -1.
         23    2    1    2    0    0  0.00000000000E+00  0.35527136788E-14  0.11095333354E+01  0.91185580236E+02  0.91178829663E+02 0.  0.
    9000005    2    3    3    0    0  0.22212574087E+02  0.19398856454E+02  0.35175608702E+02  0.46127711109E+02  0.45528238835E+01 0.  0.
         22    1    3    3    0    0 -0.22212574087E+02 -0.19398856454E+02 -0.34066075367E+02  0.45057869126E+02  0.00000000000E+00 0. -1.
         22    1    4    4    0    0  0.11003507923E+01  0.23772040053E+01  0.42809020976E+01  0.50187641425E+01  0.00000000000E+00 0.  1.
         22    1    4    4    0    0  0.21112223295E+02  0.17021652449E+02  0.30894706604E+02  0.41108946967E+02  0.00000000000E+00 0.  1.
<mgrwt>
<rscale>  0 0.91178830E+02</rscale>
<asrwt>0</asrwt>
<pdfrwt beam="2">  1        1 0.69289267E-02 0.91178830E+02</pdfrwt>
<pdfrwt beam="1">  1       -1 0.70996241E-02 0.91178830E+02</pdfrwt>
<totfact> 0.92297842E+04</totfact>
</mgrwt>
</event>
<event>
 7    1  0.2787125E-009  0.9224258E+02  0.7818608E-02  0.1297510E+00
         -1   -1    0    0    0  501 -0.00000000000E+00  0.00000000000E+00  0.24937400343E+01  0.24937451274E+01  0.50400000000E-02 0.  1.
          1   -1    0    0  501    0  0.00000000000E+00 -0.00000000000E+00 -0.85300432864E+03  0.85300432865E+03  0.50400000000E-02 0. -1.
         23    2    1    2    0    0  0.00000000000E+00  0.88817841970E-15 -0.85051058860E+03  0.85549807378E+03  0.92242576475E+02 0.  0.
    9000005    2    3    3    0    0  0.32585436074E+02 -0.50459571806E+01 -0.72042839277E+03  0.72130176236E+03  0.13110718334E+02 0.  0.
         22    1    3    3    0    0 -0.32585436074E+02  0.50459571806E+01 -0.13008219583E+03  0.13419631143E+03  0.00000000000E+00 0.  1.
         22    1    4    4    0    0  0.14287651850E+02  0.34100115223E+01 -0.37300099345E+03  0.37329011009E+03  0.00000000000E+00 0.  1.
         22    1    4    4    0    0  0.18297784223E+02 -0.84559687028E+01 -0.34742739932E+03  0.34801165227E+03  0.00000000000E+00 0.  1.
<mgrwt>
<rscale>  0 0.92242576E+02</rscale>
<asrwt>0</asrwt>
<pdfrwt beam="2">  1        1 0.13123120E+00 0.92242576E+02</pdfrwt>
<pdfrwt beam="1">  1       -1 0.38365339E-03 0.92242576E+02</pdfrwt>
<totfact> 0.13606682E+05</totfact>
</mgrwt>
</event>
<event>
 7    1  0.2787125E-009  0.9130327E+02  0.7818608E-02  0.1299726E+00
          1   -1    0    0  501    0  0.00000000000E+00  0.00000000000E+00  0.44463831728E+02  0.44463832013E+02  0.50400000000E-02 0. -1.
         -1   -1    0    0    0  501 -0.00000000000E+00 -0.00000000000E+00 -0.46871167415E+02  0.46871167686E+02  0.50400000000E-02 0.  1.
         23    2    1    2    0    0  0.17763568394E-14  0.00000000000E+00 -0.24073356873E+01  0.91334999699E+02  0.91303268863E+02 0.  0.
    9000005    2    3    3    0    0 -0.12304007978E+02 -0.10653476462E+01  0.41601853196E+02  0.45625785266E+02  0.14088098307E+02 0.  0.
         22    1    3    3    0    0  0.12304007978E+02  0.10653476462E+01 -0.44009188883E+02  0.45709214433E+02  0.00000000000E+00 0.  1.
         22    1    4    4    0    0 -0.23589393203E+01  0.11151679127E+01 -0.18565281237E+00  0.26158480760E+01  0.00000000000E+00 0. -1.
         22    1    4    4    0    0 -0.99450686572E+01 -0.21805155589E+01  0.41787506009E+02  0.43009937190E+02  0.00000000000E+00 0. -1.
<mgrwt>
<rscale>  0 0.91303269E+02</rscale>
<asrwt>0</asrwt>
<pdfrwt beam="1">  1        1 0.68405895E-02 0.91303269E+02</pdfrwt>
<pdfrwt beam="2">  1       -1 0.72109489E-02 0.91303269E+02</pdfrwt>
<totfact> 0.91766988E+04</totfact>
</mgrwt>
</event>
<event>
 7    1  0.2787125E-009  0.9148671E+02  0.7818608E-02  0.1299291E+00
          1   -1    0    0  501    0  0.00000000000E+00  0.00000000000E+00  0.82249184443E+01  0.82249199885E+01  0.50400000000E-02 0. -1.
         -1   -1    0    0    0  501 -0.00000000000E+00 -0.00000000000E+00 -0.25440427238E+03  0.25440427243E+03  0.50400000000E-02 0.  1.
         23    2    1    2    0    0  0.00000000000E+00  0.71054273576E-14 -0.24617935394E+03  0.26262919242E+03  0.91486711638E+02 0.  0.
    9000005    2    3    3    0    0 -0.89117091619E+01 -0.38912683650E+02 -0.18469394573E+03  0.18932113740E+03  0.11705723659E+02 0.  0.
         22    1    3    3    0    0  0.89117091619E+01  0.38912683650E+02 -0.61485408208E+02  0.73308055025E+02  0.00000000000E+00 0. -1.
         22    1    4    4    0    0  0.19182230969E+01 -0.17263077012E+02 -0.73983054045E+02  0.75994642532E+02  0.00000000000E+00 0. -1.
         22    1    4    4    0    0 -0.10829932259E+02 -0.21649606638E+02 -0.11071089169E+03  0.11332649486E+03  0.00000000000E+00 0. -1.
<mgrwt>
<rscale>  0 0.91486712E+02</rscale>
<asrwt>0</asrwt>
<pdfrwt beam="1">  1        1 0.12653724E-02 0.91486712E+02</pdfrwt>
<pdfrwt beam="2">  1       -1 0.39139113E-01 0.91486712E+02</pdfrwt>
<totfact> 0.63811814E+04</totfact>
</mgrwt>
</event>
<event>
 7    1  0.2787125E-009  0.9190312E+02  0.7818608E-02  0.1298307E+00
         -1   -1    0    0    0  501 -0.00000000000E+00  0.00000000000E+00  0.21605261533E+03  0.21605261539E+03  0.50400000000E-02 0.  1.
          1   -1    0    0  501    0  0.00000000000E+00 -0.00000000000E+00 -0.97732935817E+01  0.97732948812E+01  0.50400000000E-02 0. -1.
         23    2    1    2    0    0  0.00000000000E+00  0.00000000000E+00  0.20627932175E+03  0.22582591027E+03  0.91903118383E+02 0.  0.
    9000005    2    3    3    0    0  0.15268866652E+02  0.39943128573E+02  0.13757096332E+03  0.14489735952E+03  0.15520407123E+02 0.  0.
         22    1    3    3    0    0 -0.15268866652E+02 -0.39943128573E+02  0.68708358429E+02  0.80928550753E+02  0.00000000000E+00 0. -1.
         22    1    4    4    0    0  0.50863843839E+00 -0.47942879886E+00 -0.54321397643E-01  0.70108191278E+00  0.00000000000E+00 0. -1.
         22    1    4    4    0    0  0.14760228214E+02  0.40422557372E+02  0.13762528472E+03  0.14419627761E+03  0.00000000000E+00 0. -1.
<mgrwt>
<rscale>  0 0.91903118E+02</rscale>
<asrwt>0</asrwt>
<pdfrwt beam="2">  1        1 0.15035838E-02 0.91903118E+02</pdfrwt>
<pdfrwt beam="1">  1       -1 0.33238864E-01 0.91903118E+02</pdfrwt>
<totfact> 0.66473674E+04</totfact>
</mgrwt>
</event>
<event>
 7    1  0.2787125E-009  0.9007082E+02  0.7818608E-02  0.1302680E+00
         -1   -1    0    0    0  501 -0.00000000000E+00  0.00000000000E+00  0.25201278278E+03  0.25201278283E+03  0.50400000000E-02 0.  1.
          1   -1    0    0  501    0  0.00000000000E+00 -0.00000000000E+00 -0.80479568207E+01  0.80479583988E+01  0.50400000000E-02 0. -1.
         23    2    1    2    0    0  0.00000000000E+00 -0.17763568394E-14  0.24396482596E+03  0.26006074123E+03  0.90070821154E+02 0.  0.
    9000005    2    3    3    0    0 -0.16859164714E+02 -0.98947992507E+01  0.23886602823E+03  0.23985835956E+03  0.96392282486E+01 0.  0.
         22    1    3    3    0    0  0.16859164714E+02  0.98947992507E+01  0.50987977367E+01  0.20202381677E+02  0.00000000000E+00 0. -1.
         22    1    4    4    0    0  0.10279379527E+01 -0.12543558326E+01  0.31902889135E+02  0.31944082397E+02  0.00000000000E+00 0. -1.
         22    1    4    4    0    0 -0.17887102666E+02 -0.86404434181E+01  0.20696313909E+03  0.20791427716E+03  0.00000000000E+00 0. -1.
<mgrwt>
<rscale>  0 0.90070821E+02</rscale>
<asrwt>0</asrwt>
<pdfrwt beam="2">  1        1 0.12381474E-02 0.90070821E+02</pdfrwt>
<pdfrwt beam="1">  1       -1 0.38771194E-01 0.90070821E+02</pdfrwt>
<totfact> 0.66678325E+04</totfact>
</mgrwt>
</event>
<event>
 7    1  0.2787125E-009  0.9594752E+02  0.7818608E-02  0.1289056E+00
          1   -1    0    0  501    0  0.00000000000E+00  0.00000000000E+00  0.22067874932E+03  0.22067874938E+03  0.50400000000E-02 0. -1.
         -1   -1    0    0    0  501 -0.00000000000E+00 -0.00000000000E+00 -0.10429103098E+02  0.10429104316E+02  0.50400000000E-02 0.  1.
         23    2    1    2    0    0  0.00000000000E+00  0.88817841970E-15  0.21024964622E+03  0.23110785369E+03  0.95947518480E+02 0.  0.
    9000005    2    3    3    0    0 -0.18507506565E+02  0.75888665907E+01  0.20982255453E+03  0.21110032754E+03  0.11735638086E+02 0.  0.
         22    1    3    3    0    0  0.18507506565E+02 -0.75888665907E+01  0.42709168566E+00  0.20007526151E+02  0.00000000000E+00 0.  1.
         22    1    4    4    0    0 -0.75628920656E+01 -0.25980310859E+01  0.59241836020E+02  0.59779112045E+02  0.00000000000E+00 0.  1.
         22    1    4    4    0    0 -0.10944614499E+02  0.10186897677E+02  0.15058071851E+03  0.15132121550E+03  0.00000000000E+00 0.  1.
<mgrwt>
<rscale>  0 0.95947518E+02</rscale>
<asrwt>0</asrwt>
<pdfrwt beam="1">  1        1 0.33950573E-01 0.95947518E+02</pdfrwt>
<pdfrwt beam="2">  1       -1 0.16044777E-02 0.95947518E+02</pdfrwt>
<totfact> 0.10524269E+05</totfact>
</mgrwt>
</event>
<event>
 7    1  0.2787125E-009  0.9089250E+02  0.7818608E-02  0.1300705E+00
         -1   -1    0    0    0  501 -0.00000000000E+00  0.00000000000E+00  0.36558848903E+03  0.36558848907E+03  0.50400000000E-02 0.  1.
          1   -1    0    0  501    0  0.00000000000E+00 -0.00000000000E+00 -0.56494157500E+01  0.56494179982E+01  0.50400000000E-02 0. -1.
         23    2    1    2    0    0  0.00000000000E+00  0.00000000000E+00  0.35993907328E+03  0.37123790706E+03  0.90892503359E+02 0.  0.
    9000005    2    3    3    0    0 -0.16759126576E+02  0.10090572039E+02  0.34723863644E+03  0.34791433393E+03  0.93287271323E+01 0.  0.
         22    1    3    3    0    0  0.16759126576E+02 -0.10090572039E+02  0.12700436837E+02  0.23323573130E+02  0.00000000000E+00 0. -1.
         22    1    4    4    0    0 -0.66144581974E+01  0.34056282258E-02  0.71663759616E+02  0.71968364655E+02  0.00000000000E+00 0.  1.
         22    1    4    4    0    0 -0.10144668379E+02  0.10087166411E+02  0.27557487683E+03  0.27594596928E+03  0.00000000000E+00 0.  1.
<mgrwt>
<rscale>  0 0.90892503E+02</rscale>
<asrwt>0</asrwt>
<pdfrwt beam="2">  1        1 0.86914065E-03 0.90892503E+02</pdfrwt>
<pdfrwt beam="1">  1       -1 0.56244410E-01 0.90892503E+02</pdfrwt>
<totfact> 0.56125513E+04</totfact>
</mgrwt>
</event>
<event>
 7    1  0.2787125E-009  0.9223055E+02  0.7818608E-02  0.1297538E+00
          1   -1    0    0  501    0  0.00000000000E+00  0.00000000000E+00  0.81622131017E+01  0.81622146578E+01  0.50400000000E-02 0. -1.
         -1   -1    0    0    0  501 -0.00000000000E+00 -0.00000000000E+00 -0.26054434363E+03  0.26054434368E+03  0.50400000000E-02 0.  1.
         23    2    1    2    0    0  0.35527136788E-14  0.17763568394E-14 -0.25238213053E+03  0.26870655834E+03  0.92230551788E+02 0.  0.
    9000005    2    3    3    0    0 -0.22804413433E+02 -0.14669078966E+02 -0.23396429009E+03  0.23592790681E+03  0.13691786726E+02 0.  0.
         22    1    3    3    0    0  0.22804413433E+02  0.14669078966E+02 -0.18417840442E+02  0.32778651532E+02  0.00000000000E+00 0. -1.
         22    1    4    4    0    0 -0.15905250851E+02 -0.16815344228E+02 -0.17654043129E+03  0.17805127544E+03  0.00000000000E+00 0. -1.
         22    1    4    4    0    0 -0.68991625815E+01  0.21462652615E+01 -0.57423858803E+02  0.57876631370E+02  0.00000000000E+00 0. -1.
<mgrwt>
<rscale>  0 0.92230552E+02</rscale>
<asrwt>0</asrwt>
<pdfrwt beam="1">  1        1 0.12557254E-02 0.92230552E+02</pdfrwt>
<pdfrwt beam="2">  1       -1 0.40083739E-01 0.92230552E+02</pdfrwt>
<totfact> 0.61958807E+04</totfact>
</mgrwt>
</event>
<event>
 7    1  0.2787125E-009  0.9184847E+02  0.7818608E-02  0.1298436E+00
          1   -1    0    0  501    0  0.00000000000E+00  0.00000000000E+00  0.12427324063E+04  0.12427324063E+04  0.50400000000E-02 0. -1.
         -1   -1    0    0    0  501 -0.00000000000E+00 -0.00000000000E+00 -0.16970914155E+01  0.16970988994E+01  0.50400000000E-02 0.  1.
         23    2    1    2    0    0  0.00000000000E+00  0.00000000000E+00  0.12410353149E+04  0.12444295052E+04  0.91848465669E+02 0.  0.
    9000005    2    3    3    0    0  0.23523029356E+02 -0.17384091923E+02  0.10983944070E+04  0.10988205489E+04  0.89880888723E+01 0.  0.
         22    1    3    3    0    0 -0.23523029356E+02  0.17384091923E+02  0.14264090783E+03  0.14560895628E+03  0.00000000000E+00 0.  1.
         22    1    4    4    0    0  0.16701725034E+02 -0.11096384523E+02  0.58792074500E+03  0.58826259423E+03  0.00000000000E+00 0. -1.
         22    1    4    4    0    0  0.68213043218E+01 -0.62877074001E+01  0.51047366205E+03  0.51055795470E+03  0.00000000000E+00 0. -1.
<mgrwt>
<rscale>  0 0.91848466E+02</rscale>
<asrwt>0</asrwt>
<pdfrwt beam="1">  1        1 0.19119035E+00 0.91848466E+02</pdfrwt>
<pdfrwt beam="2">  1       -1 0.26109054E-03 0.91848466E+02</pdfrwt>
<totfact> 0.12271665E+05</totfact>
</mgrwt>
</event>
<event>
 7    1  0.2787125E-009  0.9595208E+02  0.7818608E-02  0.1289046E+00
          1   -1    0    0  501    0  0.00000000000E+00  0.00000000000E+00  0.82000008719E+02  0.82000008874E+02  0.50400000000E-02 0. -1.
         -1   -1    0    0    0  501 -0.00000000000E+00 -0.00000000000E+00 -0.28069512149E+02  0.28069512601E+02  0.50400000000E-02 0.  1.
         23    2    1    2    0    0 -0.71054273576E-14  0.00000000000E+00  0.53930496571E+02  0.11006952148E+03  0.95952077088E+02 0.  0.
    9000005    2    3    3    0    0  0.42956931027E+02  0.18833474487E+02  0.31187591873E+02  0.57942394194E+02  0.13588873155E+02 0.  0.
         22    1    3    3    0    0 -0.42956931027E+02 -0.18833474487E+02  0.22742904698E+02  0.52127127281E+02  0.00000000000E+00 0. -1.
         22    1    4    4    0    0  0.34787892143E+02  0.90596071738E+01  0.24956292079E+02  0.43761746266E+02  0.00000000000E+00 0.  1.
         22    1    4    4    0    0  0.81690388838E+01  0.97738673135E+01  0.62312997936E+01  0.14180647928E+02  0.00000000000E+00 0.  1.
<mgrwt>
<rscale>  0 0.95952077E+02</rscale>
<asrwt>0</asrwt>
<pdfrwt beam="1">  1        1 0.12615386E-01 0.95952077E+02</pdfrwt>
<pdfrwt beam="2">  1       -1 0.43183866E-02 0.95952077E+02</pdfrwt>
<totfact> 0.87871583E+04</totfact>
</mgrwt>
</event>
<event>
 7    1  0.2787125E-009  0.9156435E+02  0.7818608E-02  0.1299107E+00
         -1   -1    0    0    0  501 -0.00000000000E+00  0.00000000000E+00  0.24204951788E+01  0.24205004260E+01  0.50400000000E-02 0.  1.
          1   -1    0    0  501    0  0.00000000000E+00 -0.00000000000E+00 -0.86594073974E+03  0.86594073975E+03  0.50400000000E-02 0. -1.
         23    2    1    2    0    0  0.00000000000E+00 -0.35527136788E-14 -0.86352024456E+03  0.86836124018E+03  0.91564352677E+02 0.  0.
    9000005    2    3    3    0    0 -0.15932599556E+02 -0.24089178806E+02 -0.76861971185E+03  0.76916321916E+03  0.12884140166E+01 0.  0.
         22    1    3    3    0    0  0.15932599556E+02  0.24089178806E+02 -0.94900532711E+02  0.99198021014E+02  0.00000000000E+00 0.  1.
         22    1    4    4    0    0 -0.16770578091E+01 -0.31357792095E+01 -0.87793273508E+02  0.87865263371E+02  0.00000000000E+00 0.  1.
         22    1    4    4    0    0 -0.14255541747E+02 -0.20953399597E+02 -0.68082643834E+03  0.68129795579E+03  0.00000000000E+00 0.  1.
<mgrwt>
<rscale>  0 0.91564353E+02</rscale>
<asrwt>0</asrwt>
<pdfrwt beam="2">  1        1 0.13322141E+00 0.91564353E+02</pdfrwt>
<pdfrwt beam="1">  1       -1 0.37238497E-03 0.91564353E+02</pdfrwt>
<totfact> 0.13846361E+05</totfact>
</mgrwt>
</event>
<event>
 7    1  0.2787125E-009  0.9139437E+02  0.7818608E-02  0.1299510E+00
          1   -1    0    0  501    0  0.00000000000E+00  0.00000000000E+00  0.43799503800E+02  0.43799504090E+02  0.50400000000E-02 0. -1.
         -1   -1    0    0    0  501 -0.00000000000E+00 -0.00000000000E+00 -0.47677086956E+02  0.47677087223E+02  0.50400000000E-02 0.  1.
         23    2    1    2    0    0  0.00000000000E+00  0.00000000000E+00 -0.38775831565E+01  0.91476591312E+02  0.91394371309E+02 0.  0.
    9000005    2    3    3    0    0 -0.25072277542E+02 -0.24056577148E+02 -0.30509912847E+02  0.47697384033E+02  0.11698190307E+02 0.  0.
         22    1    3    3    0    0  0.25072277542E+02  0.24056577148E+02  0.26632329691E+02  0.43779207279E+02  0.00000000000E+00 0. -1.
         22    1    4    4    0    0 -0.14855815083E+02 -0.14174257175E+02 -0.25242010137E+02  0.32538652154E+02  0.00000000000E+00 0. -1.
         22    1    4    4    0    0 -0.10216462459E+02 -0.98823199727E+01 -0.52679027101E+01  0.15158731879E+02  0.00000000000E+00 0. -1.
<mgrwt>
<rscale>  0 0.91394371E+02</rscale>
<asrwt>0</asrwt>
<pdfrwt beam="1">  1        1 0.67383853E-02 0.91394371E+02</pdfrwt>
<pdfrwt beam="2">  1       -1 0.73349365E-02 0.91394371E+02</pdfrwt>
<totfact> 0.91302130E+04</totfact>
</mgrwt>
</event>
<event>
 7    1  0.2787125E-009  0.9214046E+02  0.7818608E-02  0.1297750E+00
         -1   -1    0    0    0  501 -0.00000000000E+00  0.00000000000E+00  0.10717360523E+03  0.10717360535E+03  0.50400000000E-02 0.  1.
          1   -1    0    0  501    0  0.00000000000E+00 -0.00000000000E+00 -0.19803999660E+02  0.19804000301E+02  0.50400000000E-02 0. -1.
         23    2    1    2    0    0  0.35527136788E-14  0.71054273576E-14  0.87369605568E+02  0.12697760565E+03  0.92140459944E+02 0.  0.
    9000005    2    3    3    0    0  0.17054012223E+02  0.36426587309E+02  0.17334616767E+02  0.46214772288E+02  0.14750615014E+02 0.  0.
         22    1    3    3    0    0 -0.17054012223E+02 -0.36426587309E+02  0.70034988800E+02  0.80762833359E+02  0.00000000000E+00 0.  1.
         22    1    4    4    0    0  0.95465779268E+01  0.65938730829E+01  0.17637144017E+01  0.11735714756E+02  0.00000000000E+00 0. -1.
         22    1    4    4    0    0  0.75074342959E+01  0.29832714226E+02  0.15570902366E+02  0.34479057532E+02  0.00000000000E+00 0. -1.
<mgrwt>
<rscale>  0 0.92140460E+02</rscale>
<asrwt>0</asrwt>
<pdfrwt beam="2">  1        1 0.30467693E-02 0.92140460E+02</pdfrwt>
<pdfrwt beam="1">  1       -1 0.16488247E-01 0.92140460E+02</pdfrwt>
<totfact> 0.78160287E+04</totfact>
</mgrwt>
</event>
<event>
 7    1  0.2787125E-009  0.8680475E+02  0.7818608E-02  0.1310779E+00
          1   -1    0    0  501    0  0.00000000000E+00  0.00000000000E+00  0.22366537596E+03  0.22366537602E+03  0.50400000000E-02 0. -1.
         -1   -1    0    0    0  501 -0.00000000000E+00 -0.00000000000E+00 -0.84222509547E+01  0.84222524627E+01  0.50400000000E-02 0.  1.
         23    2    1    2    0    0  0.00000000000E+00  0.35527136788E-14  0.21524312501E+03  0.23208762848E+03  0.86804748898E+02 0.  0.
    9000005    2    3    3    0    0 -0.25562714549E+02 -0.30366155408E+02  0.15136786419E+03  0.15688387383E+03  0.11169771202E+02 0.  0.
         22    1    3    3    0    0  0.25562714549E+02  0.30366155408E+02  0.63875260814E+02  0.75203754650E+02  0.00000000000E+00 0.  1.
         22    1    4    4    0    0 -0.12958327363E+02 -0.22362657429E+02  0.10674273202E+03  0.10982721673E+03  0.00000000000E+00 0.  1.
         22    1    4    4    0    0 -0.12604387186E+02 -0.80034979789E+01  0.44625132177E+02  0.47056657106E+02  0.00000000000E+00 0.  1.
<mgrwt>
<rscale>  0 0.86804749E+02</rscale>
<asrwt>0</asrwt>
<pdfrwt beam="1">  1        1 0.34410048E-01 0.86804749E+02</pdfrwt>
<pdfrwt beam="2">  1       -1 0.12957314E-02 0.86804749E+02</pdfrwt>
<totfact> 0.13796335E+05</totfact>
</mgrwt>
</event>
<event>
 7    1  0.2787125E-009  0.9207134E+02  0.7818608E-02  0.1297912E+00
          1   -1    0    0  501    0  0.00000000000E+00  0.00000000000E+00  0.67382183793E+02  0.67382183981E+02  0.50400000000E-02 0. -1.
         -1   -1    0    0    0  501 -0.00000000000E+00 -0.00000000000E+00 -0.31451680053E+02  0.31451680456E+02  0.50400000000E-02 0.  1.
         23    2    1    2    0    0  0.00000000000E+00  0.00000000000E+00  0.35930503740E+02  0.98833864438E+02  0.92071340061E+02 0.  0.
    9000005    2    3    3    0    0 -0.26079541294E+02  0.14874835147E+02 -0.18864807110E+02  0.36352432909E+02  0.80134409789E+01 0.  0.
         22    1    3    3    0    0  0.26079541294E+02 -0.14874835147E+02  0.54795310850E+02  0.62481431529E+02  0.00000000000E+00 0. -1.
         22    1    4    4    0    0 -0.80465674864E+01  0.31017849850E+01 -0.16463032188E+01  0.87794437577E+01  0.00000000000E+00 0. -1.
         22    1    4    4    0    0 -0.18032973807E+02  0.11773050162E+02 -0.17218503891E+02  0.27572989151E+02  0.00000000000E+00 0. -1.
<mgrwt>
<rscale>  0 0.92071340E+02</rscale>
<asrwt>0</asrwt>
<pdfrwt beam="1">  1        1 0.10366490E-01 0.92071340E+02</pdfrwt>
<pdfrwt beam="2">  1       -1 0.48387201E-02 0.92071340E+02</pdfrwt>
<totfact> 0.95476220E+04</totfact>
</mgrwt>
</event>
<event>
 7    1  0.2787125E-009  0.9147194E+02  0.7818608E-02  0.1299326E+00
          1   -1    0    0  501    0  0.00000000000E+00  0.00000000000E+00  0.25388986592E+01  0.25389036617E+01  0.50400000000E-02 0. -1.
         -1   -1    0    0    0  501 -0.00000000000E+00 -0.00000000000E+00 -0.82389146882E+03  0.82389146884E+03  0.50400000000E-02 0.  1.
         23    2    1    2    0    0  0.00000000000E+00 -0.17763568394E-14 -0.82135257016E+03  0.82643037250E+03  0.91471941469E+02 0.  0.
    9000005    2    3    3    0    0  0.13436640815E+02 -0.11871875220E+02 -0.79013219122E+03  0.79042763928E+03  0.12061865742E+02 0.  0.
         22    1    3    3    0    0 -0.13436640815E+02  0.11871875220E+02 -0.31220378947E+02  0.36002733219E+02  0.00000000000E+00 0. -1.
         22    1    4    4    0    0  0.56264616366E+01 -0.89868859511E+01 -0.24193705191E+03  0.24216927608E+03  0.00000000000E+00 0.  1.
         22    1    4    4    0    0  0.78101791788E+01 -0.28849892686E+01 -0.54819513931E+03  0.54825836320E+03  0.00000000000E+00 0.  1.
<mgrwt>
<rscale>  0 0.91471941E+02</rscale>
<asrwt>0</asrwt>
<pdfrwt beam="1">  1        1 0.39060084E-03 0.91471941E+02</pdfrwt>
<pdfrwt beam="2">  1       -1 0.12675232E+00 0.91471941E+02</pdfrwt>
<totfact> 0.31453915E+04</totfact>
</mgrwt>
</event>
<event>
 6    1  0.2787125E-009  0.3919617E+03  0.7818608E-02  0.1046599E+00
          1   -1    0    0  501    0  0.00000000000E+00  0.00000000000E+00  0.55512340455E+03  0.55512340457E+03  0.50400000000E-02 0. -1.
         -1   -1    0    0    0  501 -0.00000000000E+00 -0.00000000000E+00 -0.69189102318E+02  0.69189102502E+02  0.50400000000E-02 0.  1.
    9000005    2    1    2    0    0 -0.27230760467E+02 -0.14687266741E+03  0.44499568964E+03  0.46942847061E+03  0.53694021143E+01 0.  0.
         22    1    1    2    0    0  0.27230760467E+02  0.14687266741E+03  0.40938612592E+02  0.15488403646E+03  0.00000000000E+00 0.  1.
         22    1    3    3    0    0 -0.12659506065E+02 -0.76722447901E+02  0.22469219132E+03  0.23776706657E+03  0.00000000000E+00 0.  1.
         22    1    3    3    0    0 -0.14571254402E+02 -0.70150219512E+02  0.22030349832E+03  0.23166140404E+03  0.00000000000E+00 0.  1.
<mgrwt>
<rscale>  0 0.39196168E+03</rscale>
<asrwt>0</asrwt>
<pdfrwt beam="1">  1        1 0.85403605E-01 0.39196168E+03</pdfrwt>
<pdfrwt beam="2">  1       -1 0.10644477E-01 0.39196168E+03</pdfrwt>
<totfact> 0.21746780E+03</totfact>
</mgrwt>
</event>
<event>
 7    1  0.2805686E-009  0.8894160E+02  0.7818608E-02  0.1305435E+00
          1   -1    0    0  501    0  0.00000000000E+00  0.00000000000E+00  0.83768152280E+03  0.83768152281E+03  0.50400000000E-02 0. -1.
         -1   -1    0    0    0  501 -0.00000000000E+00 -0.00000000000E+00 -0.23608611639E+01  0.23608665437E+01  0.50400000000E-02 0.  1.
         23    2    1    2    0    0  0.00000000000E+00  0.00000000000E+00  0.83532066163E+03  0.84004238936E+03  0.88941599736E+02 0.  0.
    9000005    2    3    3    0    0 -0.14683016620E+02  0.32670460785E+02  0.65711089256E+03  0.65826870650E+03  0.15492412812E+02 0.  0.
         22    1    3    3    0    0  0.14683016620E+02 -0.32670460785E+02  0.17820976907E+03  0.18177368285E+03  0.00000000000E+00 0. -1.
         22    1    4    4    0    0 -0.13819250513E+02  0.12320730061E+02  0.28488317912E+03  0.28548414635E+03  0.00000000000E+00 0. -1.
         22    1    4    4    0    0 -0.86376610633E+00  0.20349730723E+02  0.37222771345E+03  0.37278456015E+03  0.00000000000E+00 0. -1.
<mgrwt>
<rscale>  0 0.88941600E+02</rscale>
<asrwt>0</asrwt>
<pdfrwt beam="1">  1        1 0.12887425E+00 0.88941600E+02</pdfrwt>
<pdfrwt beam="2">  1       -1 0.36320936E-03 0.88941600E+02</pdfrwt>
<totfact> 0.15015772E+05</totfact>
</mgrwt>
</event>
<event>
 7    1  0.2787125E-009  0.8716474E+02  0.7818608E-02  0.1309867E+00
          1   -1    0    0  501    0  0.00000000000E+00  0.00000000000E+00  0.18907658693E+02  0.18907659365E+02  0.50400000000E-02 0. -1.
         -1   -1    0    0    0  501 -0.00000000000E+00 -0.00000000000E+00 -0.10045785395E+03  0.10045785408E+03  0.50400000000E-02 0.  1.
         23    2    1    2    0    0  0.00000000000E+00  0.00000000000E+00 -0.81550195261E+02  0.11936551344E+03  0.87164737440E+02 0.  0.
    9000005    2    3    3    0    0 -0.23155751319E+02 -0.16779606946E+02  0.41414067265E+01  0.29028396602E+02  0.27843367528E+01 0.  0.
         22    1    3    3    0    0  0.23155751319E+02  0.16779606946E+02 -0.85691601987E+02  0.90337116843E+02  0.00000000000E+00 0.  1.
         22    1    4    4    0    0 -0.42610037317E+01 -0.26447953045E+01  0.17463974230E+01  0.53104612760E+01  0.00000000000E+00 0. -1.
         22    1    4    4    0    0 -0.18894747588E+02 -0.14134811642E+02  0.23950093034E+01  0.23717935326E+02  0.00000000000E+00 0. -1.
<mgrwt>
<rscale>  0 0.87164737E+02</rscale>
<asrwt>0</asrwt>
<pdfrwt beam="1">  1        1 0.29088707E-02 0.87164737E+02</pdfrwt>
<pdfrwt beam="2">  1       -1 0.15455054E-01 0.87164737E+02</pdfrwt>
<totfact> 0.91274614E+04</totfact>
</mgrwt>
</event>
<event>
 7    1  0.2787125E-009  0.9515129E+02  0.7818608E-02  0.1290836E+00
         -1   -1    0    0    0  501 -0.00000000000E+00  0.00000000000E+00  0.58234637318E+01  0.58234659127E+01  0.50400000000E-02 0.  1.
          1   -1    0    0  501    0  0.00000000000E+00 -0.00000000000E+00 -0.38867616898E+03  0.38867616902E+03  0.50400000000E-02 0. -1.
         23    2    1    2    0    0  0.71054273576E-14  0.17763568394E-14 -0.38285270525E+03  0.39449963493E+03  0.95151290272E+02 0.  0.
    9000005    2    3    3    0    0 -0.44553472722E+02 -0.10862512389E+02 -0.16779891565E+03  0.17461071177E+03  0.15146566067E+02 0.  0.
         22    1    3    3    0    0  0.44553472722E+02  0.10862512389E+02 -0.21505378960E+03  0.21988892316E+03  0.00000000000E+00 0. -1.
         22    1    4    4    0    0 -0.92497058990E+01  0.35671646051E+01 -0.42204683329E+02  0.43353396839E+02  0.00000000000E+00 0. -1.
         22    1    4    4    0    0 -0.35303766823E+02 -0.14429676994E+02 -0.12559423233E+03  0.13125731493E+03  0.00000000000E+00 0. -1.
<mgrwt>
<rscale>  0 0.95151290E+02</rscale>
<asrwt>0</asrwt>
<pdfrwt beam="2">  1        1 0.59796314E-01 0.95151290E+02</pdfrwt>
<pdfrwt beam="1">  1       -1 0.89591797E-03 0.95151290E+02</pdfrwt>
<totfact> 0.11983154E+05</totfact>
</mgrwt>
</event>
<event>
 7    1  0.2787125E-009  0.1121514E+03  0.7818608E-02  0.1256637E+00
         -1   -1    0    0    0  501 -0.00000000000E+00  0.00000000000E+00  0.16149745289E+03  0.16149745297E+03  0.50400000000E-02 0.  1.
          1   -1    0    0  501    0  0.00000000000E+00 -0.00000000000E+00 -0.19470798861E+02  0.19470799514E+02  0.50400000000E-02 0. -1.
         23    2    1    2    0    0 -0.71054273576E-14  0.00000000000E+00  0.14202665403E+03  0.18096825248E+03  0.11215140638E+03 0.  0.
    9000005    2    3    3    0    0  0.35389168847E+02  0.16011372814E+02  0.13621458157E+03  0.14169310109E+03  0.37101659509E+01 0.  0.
         22    1    3    3    0    0 -0.35389168847E+02 -0.16011372814E+02  0.58120724576E+01  0.39275151398E+02  0.00000000000E+00 0. -1.
         22    1    4    4    0    0 -0.92151957176E-02  0.14106433404E+00  0.14285876340E+01  0.14355649390E+01  0.00000000000E+00 0. -1.
         22    1    4    4    0    0  0.35398384042E+02  0.15870308480E+02  0.13478599394E+03  0.14025753615E+03  0.00000000000E+00 0. -1.
<mgrwt>
<rscale>  0 0.11215141E+03</rscale>
<asrwt>0</asrwt>
<pdfrwt beam="2">  1        1 0.29955076E-02 0.11215141E+03</pdfrwt>
<pdfrwt beam="1">  1       -1 0.24845762E-01 0.11215141E+03</pdfrwt>
<totfact> 0.42786821E+04</totfact>
</mgrwt>
</event>
<event>
 7    1  0.2787125E-009  0.9137677E+02  0.7818608E-02  0.1299551E+00
          1   -1    0    0  501    0  0.00000000000E+00  0.00000000000E+00  0.10983729294E+03  0.10983729306E+03  0.50400000000E-02 0. -1.
         -1   -1    0    0    0  501 -0.00000000000E+00 -0.00000000000E+00 -0.19004732563E+02  0.19004733232E+02  0.50400000000E-02 0.  1.
         23    2    1    2    0    0  0.00000000000E+00 -0.71054273576E-14  0.90832560377E+02  0.12884202629E+03  0.91376767908E+02 0.  0.
    9000005    2    3    3    0    0 -0.22642003772E+02 -0.36235948001E+02  0.67490750254E+02  0.80153789904E+02  0.66275488581E+01 0.  0.
         22    1    3    3    0    0  0.22642003772E+02  0.36235948001E+02  0.23341810123E+02  0.48688236384E+02  0.00000000000E+00 0.  1.
         22    1    4    4    0    0 -0.53275980678E+01 -0.11302671102E+02  0.15051180316E+02  0.19561996425E+02  0.00000000000E+00 0.  1.
         22    1    4    4    0    0 -0.17314405705E+02 -0.24933276898E+02  0.52439569938E+02  0.60591793480E+02  0.00000000000E+00 0.  1.
<mgrwt>
<rscale>  0 0.91376768E+02</rscale>
<asrwt>0</asrwt>
<pdfrwt beam="1">  1        1 0.16898045E-01 0.91376768E+02</pdfrwt>
<pdfrwt beam="2">  1       -1 0.29238051E-02 0.91376768E+02</pdfrwt>
<totfact> 0.10548237E+05</totfact>
</mgrwt>
</event>
<event>
 7    1  0.4592983E-009  0.9099705E+02  0.7818608E-02  0.1300455E+00
          1   -1    0    0  501    0  0.00000000000E+00  0.00000000000E+00  0.52338950061E+03  0.52338950063E+03  0.50400000000E-02 0. -1.
         -1   -1    0    0    0  501 -0.00000000000E+00 -0.00000000000E+00 -0.39552090389E+01  0.39552122501E+01  0.50400000000E-02 0.  1.
         23    2    1    2    0    0  0.35527136788E-14  0.00000000000E+00  0.51943429157E+03  0.52734471288E+03  0.90997049112E+02 0.  0.
    9000005    2    3    3    0    0  0.17235986117E+02 -0.40336933772E+02  0.29880860167E+03  0.30240062541E+03  0.15343088843E+02 0.  0.
         22    1    3    3    0    0 -0.17235986117E+02  0.40336933772E+02  0.22062568990E+03  0.22494408747E+03  0.00000000000E+00 0. -1.
         22    1    4    4    0    0  0.38272395451E+01 -0.12834399157E+02  0.51765622204E+02  0.53470077674E+02  0.00000000000E+00 0.  1.
         22    1    4    4    0    0  0.13408746572E+02 -0.27502534615E+02  0.24704297946E+03  0.24893054774E+03  0.00000000000E+00 0.  1.
<mgrwt>
<rscale>  0 0.90997049E+02</rscale>
<asrwt>0</asrwt>
<pdfrwt beam="1">  1        1 0.80521434E-01 0.90997049E+02</pdfrwt>
<pdfrwt beam="2">  1       -1 0.60849416E-03 0.90997049E+02</pdfrwt>
<totfact> 0.14071271E+05</totfact>
</mgrwt>
</event>
<event>
 7    1  0.2787125E-009  0.8934606E+02  0.7818608E-02  0.1304443E+00
         -1   -1    0    0    0  501 -0.00000000000E+00  0.00000000000E+00  0.18039739278E+02  0.18039739983E+02  0.50400000000E-02 0.  1.
          1   -1    0    0  501    0  0.00000000000E+00 -0.00000000000E+00 -0.11062684477E+03  0.11062684488E+03  0.50400000000E-02 0. -1.
         23    2    1    2    0    0  0.00000000000E+00  0.00000000000E+00 -0.92587105491E+02  0.12866658487E+03  0.89346057317E+02 0.  0.
    9000005    2    3    3    0    0 -0.42285438312E+02 -0.93435110209E+01 -0.51151115468E+02  0.68730779536E+02  0.15235614546E+02 0.  0.
         22    1    3    3    0    0  0.42285438312E+02  0.93435110209E+01 -0.41435990023E+02  0.59935805331E+02  0.00000000000E+00 0. -1.
         22    1    4    4    0    0 -0.39451689120E+02 -0.61986556301E+01 -0.38824013054E+02  0.55697065414E+02  0.00000000000E+00 0.  1.
         22    1    4    4    0    0 -0.28337491918E+01 -0.31448553908E+01 -0.12327102414E+02  0.13033714123E+02  0.00000000000E+00 0.  1.
<mgrwt>
<rscale>  0 0.89346057E+02</rscale>
<asrwt>0</asrwt>
<pdfrwt beam="2">  1        1 0.17019514E-01 0.89346057E+02</pdfrwt>
<pdfrwt beam="1">  1       -1 0.27753446E-02 0.89346057E+02</pdfrwt>
<totfact> 0.11225132E+05</totfact>
</mgrwt>
</event>
<event>
 7    1  0.2787125E-009  0.8991787E+02  0.7818608E-02  0.1303051E+00
          1   -1    0    0  501    0  0.00000000000E+00  0.00000000000E+00  0.30149016196E+03  0.30149016200E+03  0.50400000000E-02 0.  1.
         -1   -1    0    0    0  501 -0.00000000000E+00 -0.00000000000E+00 -0.67043828568E+01  0.67043847512E+01  0.50400000000E-02 0. -1.
         23    2    1    2    0    0  0.00000000000E+00 -0.35527136788E-14  0.29478577910E+03  0.30819454675E+03  0.89917868563E+02 0.  0.
    9000005    2    3    3    0    0  0.25988978434E+02  0.26853716429E+02  0.22904984740E+03  0.23257866348E+03  0.15246410281E+02 0.  0.
         22    1    3    3    0    0 -0.25988978434E+02 -0.26853716429E+02  0.65735931697E+02  0.75615883266E+02  0.00000000000E+00 0. -1.
         22    1    4    4    0    0  0.21339299743E+02  0.11665824174E+02  0.14840038085E+03  0.15037995280E+03  0.00000000000E+00 0.  1.
         22    1    4    4    0    0  0.46496786909E+01  0.15187892255E+02  0.80649466554E+02  0.82198710686E+02  0.00000000000E+00 0.  1.
<mgrwt>
<rscale>  0 0.89917869E+02</rscale>
<asrwt>0</asrwt>
<pdfrwt beam="1">  1        1 0.46383096E-01 0.89917869E+02</pdfrwt>
<pdfrwt beam="2">  1       -1 0.10314438E-02 0.89917869E+02</pdfrwt>
<totfact> 0.13307691E+05</totfact>
</mgrwt>
</event>
<event>
 7    1  0.2787125E-009  0.9365781E+02  0.7818608E-02  0.1294228E+00
          1   -1    0    0  501    0  0.00000000000E+00  0.00000000000E+00  0.40838502420E+02  0.40838502731E+02  0.50400000000E-02 0. -1.
         -1   -1    0    0    0  501 -0.00000000000E+00 -0.00000000000E+00 -0.53698010949E+02  0.53698011186E+02  0.50400000000E-02 0.  1.
         23    2    1    2    0    0  0.00000000000E+00  0.00000000000E+00 -0.12859508530E+02  0.94536513916E+02  0.93657810693E+02 0.  0.
    9000005    2    3    3    0    0 -0.30084945242E+02 -0.32715145045E+02 -0.19853401921E+02  0.49544301365E+02  0.92247267914E+01 0.  0.
         22    1    3    3    0    0  0.30084945242E+02  0.32715145045E+02  0.69938933913E+01  0.44992212552E+02  0.00000000000E+00 0. -1.
         22    1    4    4    0    0 -0.85533835364E+01 -0.11999872351E+02 -0.23677934521E+01  0.14925272266E+02  0.00000000000E+00 0. -1.
         22    1    4    4    0    0 -0.21531561706E+02 -0.20715272693E+02 -0.17485608469E+02  0.34619029099E+02  0.00000000000E+00 0. -1.
<mgrwt>
<rscale>  0 0.93657811E+02</rscale>
<asrwt>0</asrwt>
<pdfrwt beam="1">  1        1 0.62828466E-02 0.93657811E+02</pdfrwt>
<pdfrwt beam="2">  1       -1 0.82612325E-02 0.93657811E+02</pdfrwt>
<totfact> 0.84293467E+04</totfact>
</mgrwt>
</event>
<event>
 7    1  0.2787125E-009  0.9077356E+02  0.7818608E-02  0.1300989E+00
         -1   -1    0    0    0  501 -0.00000000000E+00  0.00000000000E+00  0.32694194049E+03  0.32694194052E+03  0.50400000000E-02 0.  1.
          1   -1    0    0  501    0  0.00000000000E+00 -0.00000000000E+00 -0.63006895331E+01  0.63006915488E+01  0.50400000000E-02 0. -1.
         23    2    1    2    0    0  0.00000000000E+00 -0.11102230246E-15  0.32064125095E+03  0.33324263207E+03  0.90773564537E+02 0.  0.
    9000005    2    3    3    0    0 -0.44679461565E+02 -0.49504894144E+00  0.13853597186E+03  0.14573574678E+03  0.70847040101E+01 0.  0.
         22    1    3    3    0    0  0.44679461565E+02  0.49504894144E+00  0.18210527910E+03  0.18750688530E+03  0.00000000000E+00 0.  1.
         22    1    4    4    0    0 -0.15928767817E+02  0.12249656703E+01  0.59796463649E+02  0.61893806233E+02  0.00000000000E+00 0.  1.
         22    1    4    4    0    0 -0.28750693749E+02 -0.17200146118E+01  0.78739508206E+02  0.83841940542E+02  0.00000000000E+00 0.  1.
<mgrwt>
<rscale>  0 0.90773565E+02</rscale>
<asrwt>0</asrwt>
<pdfrwt beam="2">  1        1 0.96933698E-03 0.90773565E+02</pdfrwt>
<pdfrwt beam="1">  1       -1 0.50298762E-01 0.90773565E+02</pdfrwt>
<totfact> 0.59179377E+04</totfact>
</mgrwt>
</event>
<event>
 7    1  0.2787125E-009  0.9648247E+02  0.7818608E-02  0.1287872E+00
          1   -1    0    0  501    0  0.00000000000E+00  0.00000000000E+00  0.24159903840E+02  0.24159904366E+02  0.50400000000E-02 0. -1.
         -1   -1    0    0    0  501 -0.00000000000E+00 -0.00000000000E+00 -0.96325579068E+02  0.96325579200E+02  0.50400000000E-02 0.  1.
         23    2    1    2    0    0  0.00000000000E+00  0.00000000000E+00 -0.72165675228E+02  0.12048548357E+03  0.96482470268E+02 0.  0.
    9000005    2    3    3    0    0 -0.15784507828E+02 -0.43613981676E+02 -0.19771222581E+02  0.50510425487E+02  0.30119355143E+01 0.  0.
         22    1    3    3    0    0  0.15784507828E+02  0.43613981676E+02 -0.52394452646E+02  0.69975058079E+02  0.00000000000E+00 0.  1.
         22    1    4    4    0    0 -0.27231319499E+01 -0.11203445322E+02 -0.45262587871E+01  0.12386268740E+02  0.00000000000E+00 0. -1.
         22    1    4    4    0    0 -0.13061375878E+02 -0.32410536354E+02 -0.15244963794E+02  0.38124156747E+02  0.00000000000E+00 0. -1.
<mgrwt>
<rscale>  0 0.96482470E+02</rscale>
<asrwt>0</asrwt>
<pdfrwt beam="1">  1        1 0.37169084E-02 0.96482470E+02</pdfrwt>
<pdfrwt beam="2">  1       -1 0.14819320E-01 0.96482470E+02</pdfrwt>
<totfact> 0.70821274E+04</totfact>
</mgrwt>
</event>
<event>
 7    1  0.2787125E-009  0.9190219E+02  0.7818608E-02  0.1298310E+00
         -1   -1    0    0    0  501 -0.00000000000E+00  0.00000000000E+00  0.25652507867E+02  0.25652508362E+02  0.50400000000E-02 0.  1.
          1   -1    0    0  501    0  0.00000000000E+00 -0.00000000000E+00 -0.82311765029E+02  0.82311765183E+02  0.50400000000E-02 0. -1.
         23    2    1    2    0    0  0.00000000000E+00 -0.35527136788E-14 -0.56659257162E+02  0.10796427355E+03  0.91902192248E+02 0.  0.
    9000005    2    3    3    0    0 -0.29359626933E+02  0.29060015977E+02 -0.50227396318E+02  0.66157084496E+02  0.12144804067E+02 0.  0.
         22    1    3    3    0    0  0.29359626933E+02 -0.29060015977E+02 -0.64318608442E+01  0.41807189049E+02  0.00000000000E+00 0.  1.
         22    1    4    4    0    0 -0.13402160838E+02  0.61327125475E+01 -0.21688619314E+02  0.26222591139E+02  0.00000000000E+00 0. -1.
         22    1    4    4    0    0 -0.15957466096E+02  0.22927303430E+02 -0.28538777004E+02  0.39934493356E+02  0.00000000000E+00 0. -1.
<mgrwt>
<rscale>  0 0.91902192E+02</rscale>
<asrwt>0</asrwt>
<pdfrwt beam="2">  1        1 0.12663348E-01 0.91902192E+02</pdfrwt>
<pdfrwt beam="1">  1       -1 0.39465398E-02 0.91902192E+02</pdfrwt>
<totfact> 0.99020976E+04</totfact>
</mgrwt>
</event>
<event>
 7    1  0.2787125E-009  0.9162045E+02  0.7818608E-02  0.1298974E+00
          1   -1    0    0  501    0  0.00000000000E+00  0.00000000000E+00  0.48243872923E+03  0.48243872925E+03  0.50400000000E-02 0. -1.
         -1   -1    0    0    0  501 -0.00000000000E+00 -0.00000000000E+00 -0.43499330364E+01  0.43499359562E+01  0.50400000000E-02 0.  1.
         23    2    1    2    0    0  0.00000000000E+00  0.00000000000E+00  0.47808879619E+03  0.48678866521E+03  0.91620453685E+02 0.  0.
    9000005    2    3    3    0    0  0.83237038545E+01  0.44704696954E+02  0.22094724361E+03  0.22565733419E+03  0.59794682020E+01 0.  0.
         22    1    3    3    0    0 -0.83237038545E+01 -0.44704696954E+02  0.25714155258E+03  0.26113133102E+03  0.00000000000E+00 0. -1.
         22    1    4    4    0    0  0.78955667897E+01  0.28313366502E+02  0.13558920172E+03  0.13873866916E+03  0.00000000000E+00 0. -1.
         22    1    4    4    0    0  0.42813706482E+00  0.16391330452E+02  0.85358041889E+02  0.86918665029E+02  0.00000000000E+00 0. -1.
<mgrwt>
<rscale>  0 0.91620454E+02</rscale>
<asrwt>0</asrwt>
<pdfrwt beam="1">  1        1 0.74221331E-01 0.91620454E+02</pdfrwt>
<pdfrwt beam="2">  1       -1 0.66922081E-03 0.91620454E+02</pdfrwt>
<totfact> 0.13688222E+05</totfact>
</mgrwt>
</event>
<event>
 7    1  0.2787125E-009  0.8955253E+02  0.7818608E-02  0.1303939E+00
          1   -1    0    0  501    0  0.00000000000E+00  0.00000000000E+00  0.11667278834E+02  0.11667279922E+02  0.50400000000E-02 0. -1.
         -1   -1    0    0    0  501 -0.00000000000E+00 -0.00000000000E+00 -0.17184074446E+03  0.17184074454E+03  0.50400000000E-02 0.  1.
         23    2    1    2    0    0  0.71054273576E-14 -0.17763568394E-14 -0.16017346563E+03  0.18350802446E+03  0.89552531785E+02 0.  0.
    9000005    2    3    3    0    0  0.40571765026E+02 -0.14462794270E+02 -0.72061929450E+02  0.85432118431E+02  0.15826706796E+02 0.  0.
         22    1    3    3    0    0 -0.40571765026E+02  0.14462794270E+02 -0.88111536180E+02  0.98075906029E+02  0.00000000000E+00 0.  1.
         22    1    4    4    0    0  0.38370306583E+02 -0.17389975198E+02 -0.64642874837E+02  0.77158233079E+02  0.00000000000E+00 0. -1.
         22    1    4    4    0    0  0.22014584434E+01  0.29271809279E+01 -0.74190546128E+01  0.82738853515E+01  0.00000000000E+00 0. -1.
<mgrwt>
<rscale>  0 0.89552532E+02</rscale>
<asrwt>0</asrwt>
<pdfrwt beam="1">  1        1 0.17949662E-02 0.89552532E+02</pdfrwt>
<pdfrwt beam="2">  1       -1 0.26437036E-01 0.89552532E+02</pdfrwt>
<totfact> 0.75796443E+04</totfact>
</mgrwt>
</event>
<event>
 7    1  0.2787125E-009  0.8868256E+02  0.7818608E-02  0.1306074E+00
         -1   -1    0    0    0  501 -0.00000000000E+00  0.00000000000E+00  0.22791353581E+01  0.22791409307E+01  0.50400000000E-02 0.  1.
          1   -1    0    0  501    0  0.00000000000E+00 -0.00000000000E+00 -0.86267212232E+03  0.86267212233E+03  0.50400000000E-02 0. -1.
         23    2    1    2    0    0 -0.44408920985E-15  0.00000000000E+00 -0.86039298696E+03  0.86495126326E+03  0.88682556408E+02 0.  0.
    9000005    2    3    3    0    0 -0.30064618495E+01  0.10432680431E+02 -0.84939631762E+03  0.84949790213E+03  0.73960596534E+01 0.  0.
         22    1    3    3    0    0  0.30064618495E+01 -0.10432680431E+02 -0.10996669339E+02  0.15453361135E+02  0.00000000000E+00 0.  1.
         22    1    4    4    0    0 -0.41068050586E+01  0.52256424970E+01 -0.63794254150E+03  0.63797716216E+03  0.00000000000E+00 0.  1.
         22    1    4    4    0    0  0.11003432091E+01  0.52070379337E+01 -0.21145377612E+03  0.21152073996E+03  0.00000000000E+00 0.  1.
<mgrwt>
<rscale>  0 0.88682556E+02</rscale>
<asrwt>0</asrwt>
<pdfrwt beam="2">  1        1 0.13271853E+00 0.88682556E+02</pdfrwt>
<pdfrwt beam="1">  1       -1 0.35063733E-03 0.88682556E+02</pdfrwt>
<totfact> 0.15074394E+05</totfact>
</mgrwt>
</event>
<event>
 7    1  0.2787125E-009  0.9175166E+02  0.7818608E-02  0.1298664E+00
         -1   -1    0    0    0  501 -0.00000000000E+00  0.00000000000E+00  0.52594226623E+03  0.52594226626E+03  0.50400000000E-02 0.  1.
          1   -1    0    0  501    0  0.00000000000E+00 -0.00000000000E+00 -0.40015624170E+01  0.40015655909E+01  0.50400000000E-02 0. -1.
         23    2    1    2    0    0  0.00000000000E+00  0.88817841970E-15  0.52194070382E+03  0.52994383185E+03  0.91751657281E+02 0.  0.
    9000005    2    3    3    0    0 -0.38290927076E+02  0.79894486485E+01  0.39362565946E+03  0.39579921961E+03  0.13632170318E+02 0.  0.
         22    1    3    3    0    0  0.38290927076E+02 -0.79894486485E+01  0.12831504435E+03  0.13414461224E+03  0.00000000000E+00 0.  1.
         22    1    4    4    0    0 -0.20084922982E+02  0.10272247476E+02  0.24752111727E+03  0.24854703115E+03  0.00000000000E+00 0.  1.
         22    1    4    4    0    0 -0.18206004094E+02 -0.22827988280E+01  0.14610454219E+03  0.14725218845E+03  0.00000000000E+00 0.  1.
<mgrwt>
<rscale>  0 0.91751657E+02</rscale>
<asrwt>0</asrwt>
<pdfrwt beam="2">  1        1 0.61562557E-03 0.91751657E+02</pdfrwt>
<pdfrwt beam="1">  1       -1 0.80914151E-01 0.91751657E+02</pdfrwt>
<totfact> 0.44818160E+04</totfact>
</mgrwt>
</event>
<event>
 7    1  0.2787125E-009  0.9132014E+02  0.7818608E-02  0.1299686E+00
         -1   -1    0    0    0  501 -0.00000000000E+00  0.00000000000E+00  0.88059387976E+01  0.88059402399E+01  0.50400000000E-02 0.  1.
          1   -1    0    0  501    0  0.00000000000E+00 -0.00000000000E+00 -0.23675406977E+03  0.23675406982E+03  0.50400000000E-02 0. -1.
         23    2    1    2    0    0 -0.88817841970E-15  0.00000000000E+00 -0.22794813097E+03  0.24556001006E+03  0.91320140870E+02 0.  0.
    9000005    2    3    3    0    0 -0.67976325243E+01 -0.44872926236E+02 -0.10506423020E+03  0.11456290939E+03  0.51361875501E+01 0.  0.
         22    1    3    3    0    0  0.67976325243E+01  0.44872926236E+02 -0.12288390077E+03  0.13099710067E+03  0.00000000000E+00 0.  1.
         22    1    4    4    0    0 -0.29125811124E+01 -0.33660545981E+02 -0.76175720233E+02  0.83332201684E+02  0.00000000000E+00 0. -1.
         22    1    4    4    0    0 -0.38850514119E+01 -0.11212380254E+02 -0.28888509968E+02  0.31230707703E+02  0.00000000000E+00 0. -1.
<mgrwt>
<rscale>  0 0.91320141E+02</rscale>
<asrwt>0</asrwt>
<pdfrwt beam="2">  1        1 0.36423698E-01 0.91320141E+02</pdfrwt>
<pdfrwt beam="1">  1       -1 0.13547601E-02 0.91320141E+02</pdfrwt>
<totfact> 0.12185113E+05</totfact>
</mgrwt>
</event>
<event>
 7    1  0.3495167E-009  0.9179367E+02  0.7818608E-02  0.1298565E+00
          1   -1    0    0  501    0  0.00000000000E+00  0.00000000000E+00  0.75169196030E+02  0.75169196199E+02  0.50400000000E-02 0. -1.
         -1   -1    0    0    0  501 -0.00000000000E+00 -0.00000000000E+00 -0.28023705491E+02  0.28023705944E+02  0.50400000000E-02 0.  1.
         23    2    1    2    0    0  0.00000000000E+00  0.71054273576E-14  0.47145490538E+02  0.10319290214E+03  0.91793669578E+02 0.  0.
    9000005    2    3    3    0    0  0.19228760068E+02 -0.40209368424E+02  0.31659567292E+02  0.56008663868E+02  0.12169786541E+02 0.  0.
         22    1    3    3    0    0 -0.19228760068E+02  0.40209368424E+02  0.15485923247E+02  0.47184238275E+02  0.00000000000E+00 0.  1.
         22    1    4    4    0    0  0.13783711835E+02 -0.14958248423E+02  0.14952700089E+02  0.25245259907E+02  0.00000000000E+00 0. -1.
         22    1    4    4    0    0  0.54450482330E+01 -0.25251120001E+02  0.16706867203E+02  0.30763403961E+02  0.00000000000E+00 0. -1.
<mgrwt>
<rscale>  0 0.91793670E+02</rscale>
<asrwt>0</asrwt>
<pdfrwt beam="1">  1        1 0.11564492E-01 0.91793670E+02</pdfrwt>
<pdfrwt beam="2">  1       -1 0.43113394E-02 0.91793670E+02</pdfrwt>
<totfact> 0.97928335E+04</totfact>
</mgrwt>
</event>
<event>
 7    1  0.2787125E-009  0.9006220E+02  0.7818608E-02  0.1302701E+00
         -1   -1    0    0    0  501 -0.00000000000E+00  0.00000000000E+00  0.52876840410E+03  0.52876840413E+03  0.50400000000E-02 0.  1.
          1   -1    0    0  501    0  0.00000000000E+00 -0.00000000000E+00 -0.38349474002E+01  0.38349507120E+01  0.50400000000E-02 0. -1.
         23    2    1    2    0    0 -0.71054273576E-14  0.00000000000E+00  0.52493345670E+03  0.53260335484E+03  0.90062198617E+02 0.  0.
    9000005    2    3    3    0    0  0.41027687145E+02 -0.12042390591E+02  0.32743264492E+03  0.33052698081E+03  0.14410336710E+02 0.  0.
         22    1    3    3    0    0 -0.41027687145E+02  0.12042390591E+02  0.19750081179E+03  0.20207637403E+03  0.00000000000E+00 0. -1.
         22    1    4    4    0    0  0.21890853838E+02 -0.14264552922E+01  0.20328820309E+03  0.20446842732E+03  0.00000000000E+00 0. -1.
         22    1    4    4    0    0  0.19136833307E+02 -0.10615935299E+02  0.12414444182E+03  0.12605855349E+03  0.00000000000E+00 0. -1.
<mgrwt>
<rscale>  0 0.90062199E+02</rscale>
<asrwt>0</asrwt>
<pdfrwt beam="2">  1        1 0.58999222E-03 0.90062199E+02</pdfrwt>
<pdfrwt beam="1">  1       -1 0.81348978E-01 0.90062199E+02</pdfrwt>
<totfact> 0.46893854E+04</totfact>
</mgrwt>
</event>
<event>
 7    1  0.2787125E-009  0.1058271E+03  0.7818608E-02  0.1268499E+00
          1   -1    0    0  501    0  0.00000000000E+00  0.00000000000E+00  0.32371268937E+02  0.32371269329E+02  0.50400000000E-02 0. -1.
         -1   -1    0    0    0  501 -0.00000000000E+00 -0.00000000000E+00 -0.86491650749E+02  0.86491650895E+02  0.50400000000E-02 0.  1.
         23    2    1    2    0    0  0.00000000000E+00  0.00000000000E+00 -0.54120381812E+02  0.11886292022E+03  0.10582711409E+03 0.  0.
    9000005    2    3    3    0    0 -0.13571659199E+02  0.16248208897E+02  0.26595651545E+02  0.35416696425E+02  0.99407986992E+01 0.  0.
         22    1    3    3    0    0  0.13571659199E+02 -0.16248208897E+02 -0.80716033356E+02  0.83446223800E+02  0.00000000000E+00 0.  1.
         22    1    4    4    0    0  0.10753239223E+01  0.33267459389E+01  0.65742214696E+01  0.74460692994E+01  0.00000000000E+00 0. -1.
         22    1    4    4    0    0 -0.14646983121E+02  0.12921462958E+02  0.20021430075E+02  0.27970627125E+02  0.00000000000E+00 0. -1.
<mgrwt>
<rscale>  0 0.10582711E+03</rscale>
<asrwt>0</asrwt>
<pdfrwt beam="1">  1        1 0.49801953E-02 0.10582711E+03</pdfrwt>
<pdfrwt beam="2">  1       -1 0.13306408E-01 0.10582711E+03</pdfrwt>
<totfact> 0.56947590E+04</totfact>
</mgrwt>
</event>
<event>
 7    1  0.2787125E-009  0.9657758E+02  0.7818608E-02  0.1287662E+00
         -1   -1    0    0    0  501 -0.00000000000E+00  0.00000000000E+00  0.19835440431E+02  0.19835441072E+02  0.50400000000E-02 0.  1.
          1   -1    0    0  501    0  0.00000000000E+00 -0.00000000000E+00 -0.11755761337E+03  0.11755761348E+03  0.50400000000E-02 0. -1.
         23    2    1    2    0    0  0.00000000000E+00  0.00000000000E+00 -0.97722172943E+02  0.13739305455E+03  0.96577576874E+02 0.  0.
    9000005    2    3    3    0    0  0.21412690494E+02  0.42722081343E+02 -0.44549652548E+02  0.65901821010E+02  0.86428537989E+01 0.  0.
         22    1    3    3    0    0 -0.21412690494E+02 -0.42722081343E+02 -0.53172520396E+02  0.71491233544E+02  0.00000000000E+00 0. -1.
         22    1    4    4    0    0  0.22040610569E+02  0.41223778534E+02 -0.41804979318E+02  0.62712396914E+02  0.00000000000E+00 0.  1.
         22    1    4    4    0    0 -0.62792007466E+00  0.14983028093E+01 -0.27446732292E+01  0.31894240960E+01  0.00000000000E+00 0.  1.
<mgrwt>
<rscale>  0 0.96577577E+02</rscale>
<asrwt>0</asrwt>
<pdfrwt beam="2">  1        1 0.18085786E-01 0.96577577E+02</pdfrwt>
<pdfrwt beam="1">  1       -1 0.30516064E-02 0.96577577E+02</pdfrwt>
<totfact> 0.91771445E+04</totfact>
</mgrwt>
</event>
<event>
 7    1  0.2787125E-009  0.8607012E+02  0.7818608E-02  0.1312658E+00
         -1   -1    0    0    0  501 -0.00000000000E+00  0.00000000000E+00  0.11889888340E+03  0.11889888351E+03  0.50400000000E-02 0.  1.
          1   -1    0    0  501    0  0.00000000000E+00 -0.00000000000E+00 -0.15576397985E+02  0.15576398800E+02  0.50400000000E-02 0. -1.
         23    2    1    2    0    0  0.00000000000E+00  0.00000000000E+00  0.10332248542E+03  0.13447528231E+03  0.86070120015E+02 0.  0.
    9000005    2    3    3    0    0 -0.34894370955E+02  0.23918347985E+02  0.54643849626E+02  0.69982537934E+02  0.11040870390E+02 0.  0.
         22    1    3    3    0    0  0.34894370955E+02 -0.23918347985E+02  0.48678635791E+02  0.64492744376E+02  0.00000000000E+00 0.  1.
         22    1    4    4    0    0 -0.63913790833E+01  0.62486445358E+01  0.55276847300E+01  0.10509547259E+02  0.00000000000E+00 0.  1.
         22    1    4    4    0    0 -0.28502991872E+02  0.17669703449E+02  0.49116164896E+02  0.59472990674E+02  0.00000000000E+00 0.  1.
<mgrwt>
<rscale>  0 0.86070120E+02</rscale>
<asrwt>0</asrwt>
<pdfrwt beam="2">  1        1 0.23963690E-02 0.86070120E+02</pdfrwt>
<pdfrwt beam="1">  1       -1 0.18292136E-01 0.86070120E+02</pdfrwt>
<totfact> 0.91290828E+04</totfact>
</mgrwt>
</event>
<event>
 7    1  0.2787125E-009  0.9225909E+02  0.7818608E-02  0.1297471E+00
         -1   -1    0    0    0  501 -0.00000000000E+00  0.00000000000E+00  0.10146820211E+03  0.10146820224E+03  0.50400000000E-02 0.  1.
          1   -1    0    0  501    0  0.00000000000E+00 -0.00000000000E+00 -0.20971444445E+02  0.20971445050E+02  0.50400000000E-02 0. -1.
         23    2    1    2    0    0  0.00000000000E+00  0.00000000000E+00  0.80496757670E+02  0.12243964729E+03  0.92259087537E+02 0.  0.
    9000005    2    3    3    0    0 -0.31937285428E+02  0.78590979303E+01 -0.12043251070E+01  0.34366822039E+02  0.98930499481E+01 0.  0.
         22    1    3    3    0    0  0.31937285428E+02 -0.78590979303E+01  0.81701082777E+02  0.88072825251E+02  0.00000000000E+00 0.  1.
         22    1    4    4    0    0 -0.31403009901E+01 -0.22010914493E+01 -0.35589881647E+00  0.38513579221E+01  0.00000000000E+00 0. -1.
         22    1    4    4    0    0 -0.28796984438E+02  0.10060189380E+02 -0.84842629050E+00  0.30515464117E+02  0.00000000000E+00 0. -1.
<mgrwt>
<rscale>  0 0.92259088E+02</rscale>
<asrwt>0</asrwt>
<pdfrwt beam="2">  1        1 0.32263762E-02 0.92259088E+02</pdfrwt>
<pdfrwt beam="1">  1       -1 0.15610492E-01 0.92259088E+02</pdfrwt>
<totfact> 0.78717085E+04</totfact>
</mgrwt>
</event>
<event>
 7    1  0.2787125E-009  0.9653312E+02  0.7818608E-02  0.1287760E+00
         -1   -1    0    0    0  501 -0.00000000000E+00  0.00000000000E+00  0.52633337812E+02  0.52633338053E+02  0.50400000000E-02 0.  1.
          1   -1    0    0  501    0  0.00000000000E+00 -0.00000000000E+00 -0.44262078764E+02  0.44262079051E+02  0.50400000000E-02 0. -1.
         23    2    1    2    0    0  0.00000000000E+00  0.00000000000E+00  0.83712590477E+01  0.96895417104E+02  0.96533123215E+02 0.  0.
    9000005    2    3    3    0    0  0.25802278111E+02  0.29053146214E+02  0.31520915491E+02  0.51665455196E+02  0.12880539064E+02 0.  0.
         22    1    3    3    0    0 -0.25802278111E+02 -0.29053146214E+02 -0.23149656444E+02  0.45229961907E+02  0.00000000000E+00 0. -1.
         22    1    4    4    0    0  0.60986870359E+01  0.35753901969E+00  0.52579427726E+01  0.80602592956E+01  0.00000000000E+00 0. -1.
         22    1    4    4    0    0  0.19703591075E+02  0.28695607195E+02  0.26262972719E+02  0.43605195901E+02  0.00000000000E+00 0. -1.
<mgrwt>
<rscale>  0 0.96533123E+02</rscale>
<asrwt>0</asrwt>
<pdfrwt beam="2">  1        1 0.68095507E-02 0.96533123E+02</pdfrwt>
<pdfrwt beam="1">  1       -1 0.80974365E-02 0.96533123E+02</pdfrwt>
<totfact> 0.78344025E+04</totfact>
</mgrwt>
</event>
<event>
 7    1  0.3282140E-009  0.9079117E+02  0.7818608E-02  0.1300947E+00
          1   -1    0    0  501    0  0.00000000000E+00  0.00000000000E+00  0.13337510004E+02  0.13337510957E+02  0.50400000000E-02 0. -1.
         -1   -1    0    0    0  501 -0.00000000000E+00 -0.00000000000E+00 -0.15450851791E+03  0.15450851800E+03  0.50400000000E-02 0.  1.
         23    2    1    2    0    0  0.00000000000E+00  0.00000000000E+00 -0.14117100791E+03  0.16784602895E+03  0.90791166756E+02 0.  0.
    9000005    2    3    3    0    0  0.18899369882E+02 -0.28005440728E+02 -0.19454122065E+02  0.41527023289E+02  0.14301744846E+02 0.  0.
         22    1    3    3    0    0 -0.18899369882E+02  0.28005440728E+02 -0.12171688584E+03  0.12631900566E+03  0.00000000000E+00 0.  1.
         22    1    4    4    0    0  0.15629425070E+02 -0.10964618792E+02 -0.77942245535E+01  0.20621632566E+02  0.00000000000E+00 0.  1.
         22    1    4    4    0    0  0.32699448114E+01 -0.17040821936E+02 -0.11659897512E+02  0.20905390723E+02  0.00000000000E+00 0.  1.
<mgrwt>
<rscale>  0 0.90791167E+02</rscale>
<asrwt>0</asrwt>
<pdfrwt beam="1">  1        1 0.20519248E-02 0.90791167E+02</pdfrwt>
<pdfrwt beam="2">  1       -1 0.23770540E-01 0.90791167E+02</pdfrwt>
<totfact> 0.75088501E+04</totfact>
</mgrwt>
</event>
<event>
 7    1  0.2787125E-009  0.1164704E+03  0.7818608E-02  0.1249036E+00
          1   -1    0    0  501    0  0.00000000000E+00  0.00000000000E+00  0.51335840372E+03  0.51335840375E+03  0.50400000000E-02 0. -1.
         -1   -1    0    0    0  501 -0.00000000000E+00 -0.00000000000E+00 -0.66061849081E+01  0.66061868307E+01  0.50400000000E-02 0.  1.
         23    2    1    2    0    0  0.71054273576E-14  0.00000000000E+00  0.50675221881E+03  0.51996459058E+03  0.11647044338E+03 0.  0.
    9000005    2    3    3    0    0 -0.46883277227E+02  0.16363732764E+02  0.38713857494E+03  0.39045305737E+03  0.10559373449E+02 0.  0.
         22    1    3    3    0    0  0.46883277227E+02 -0.16363732764E+02  0.11961364387E+03  0.12951153320E+03  0.00000000000E+00 0.  1.
         22    1    4    4    0    0 -0.19879910534E+02  0.19210817389E+01  0.13741288127E+03  0.13885676554E+03  0.00000000000E+00 0. -1.
         22    1    4    4    0    0 -0.27003366693E+02  0.14442651025E+02  0.24972569368E+03  0.25159629183E+03  0.00000000000E+00 0. -1.
<mgrwt>
<rscale>  0 0.11647044E+03</rscale>
<asrwt>0</asrwt>
<pdfrwt beam="1">  1        1 0.78978210E-01 0.11647044E+03</pdfrwt>
<pdfrwt beam="2">  1       -1 0.10163364E-02 0.11647044E+03</pdfrwt>
<totfact> 0.72442727E+04</totfact>
</mgrwt>
</event>
<event>
 7    1  0.2787125E-009  0.9548104E+02  0.7818608E-02  0.1290096E+00
          1   -1    0    0  501    0  0.00000000000E+00  0.00000000000E+00  0.12888002340E+02  0.12888003326E+02  0.50400000000E-02 0. -1.
         -1   -1    0    0    0  501 -0.00000000000E+00 -0.00000000000E+00 -0.17684332514E+03  0.17684332521E+03  0.50400000000E-02 0.  1.
         23    2    1    2    0    0 -0.17763568394E-14 -0.35527136788E-14 -0.16395532280E+03  0.18973132853E+03  0.95481040810E+02 0.  0.
    9000005    2    3    3    0    0 -0.14557718421E+02  0.21987035346E+02 -0.16103740771E+03  0.16320075905E+03  0.24666137599E+01 0.  0.
         22    1    3    3    0    0  0.14557718421E+02 -0.21987035346E+02 -0.29179150901E+01  0.26530569489E+02  0.00000000000E+00 0. -1.
         22    1    4    4    0    0 -0.12167256353E+02  0.19543401618E+02 -0.13682224232E+03  0.13874549603E+03  0.00000000000E+00 0.  1.
         22    1    4    4    0    0 -0.23904620679E+01  0.24436337280E+01 -0.24215165386E+02  0.24455263020E+02  0.00000000000E+00 0.  1.
<mgrwt>
<rscale>  0 0.95481041E+02</rscale>
<asrwt>0</asrwt>
<pdfrwt beam="1">  1        1 0.19827698E-02 0.95481041E+02</pdfrwt>
<pdfrwt beam="2">  1       -1 0.27206664E-01 0.95481041E+02</pdfrwt>
<totfact> 0.63669247E+04</totfact>
</mgrwt>
</event>
<event>
 7    1  0.2787125E-009  0.9231438E+02  0.7818608E-02  0.1297342E+00
          1   -1    0    0  501    0  0.00000000000E+00  0.00000000000E+00  0.57115168458E+03  0.57115168461E+03  0.50400000000E-02 0. -1.
         -1   -1    0    0    0  501 -0.00000000000E+00 -0.00000000000E+00 -0.37301564260E+01  0.37301598309E+01  0.50400000000E-02 0.  1.
         23    2    1    2    0    0  0.00000000000E+00  0.00000000000E+00  0.56742152816E+03  0.57488184444E+03  0.92314378329E+02 0.  0.
    9000005    2    3    3    0    0  0.15493963374E+02  0.33139714790E+02  0.45643850989E+03  0.45802494930E+03  0.10603644316E+02 0.  0.
         22    1    3    3    0    0 -0.15493963374E+02 -0.33139714790E+02  0.11098301827E+03  0.11685689514E+03  0.00000000000E+00 0. -1.
         22    1    4    4    0    0  0.26913352035E+01  0.17949019984E+02  0.20382016580E+03  0.20462666148E+03  0.00000000000E+00 0.  1.
         22    1    4    4    0    0  0.12802628170E+02  0.15190694805E+02  0.25261834409E+03  0.25339828782E+03  0.00000000000E+00 0.  1.
<mgrwt>
<rscale>  0 0.92314378E+02</rscale>
<asrwt>0</asrwt>
<pdfrwt beam="1">  1        1 0.87869424E-01 0.92314378E+02</pdfrwt>
<pdfrwt beam="2">  1       -1 0.57387091E-03 0.92314378E+02</pdfrwt>
<totfact> 0.13654673E+05</totfact>
</mgrwt>
</event>
<event>
 7    1  0.2787125E-009  0.8781340E+02  0.7818608E-02  0.1308235E+00
          1   -1    0    0  501    0  0.00000000000E+00  0.00000000000E+00  0.18123428306E+02  0.18123429006E+02  0.50400000000E-02 0. -1.
         -1   -1    0    0    0  501 -0.00000000000E+00 -0.00000000000E+00 -0.10637049485E+03  0.10637049497E+03  0.50400000000E-02 0.  1.
         23    2    1    2    0    0  0.00000000000E+00 -0.35527136788E-14 -0.88247066548E+02  0.12449392398E+03  0.87813395069E+02 0.  0.
    9000005    2    3    3    0    0  0.30352798035E+02  0.23290823691E+02 -0.15147570149E+02  0.41987613976E+02  0.83520074940E+01 0.  0.
         22    1    3    3    0    0 -0.30352798035E+02 -0.23290823691E+02 -0.73099496399E+02  0.82506310004E+02  0.00000000000E+00 0.  1.
         22    1    4    4    0    0  0.62190860792E+01  0.10163560779E+01 -0.19932752188E+01  0.66093235233E+01  0.00000000000E+00 0.  1.
         22    1    4    4    0    0  0.24133711956E+02  0.22274467613E+02 -0.13154294931E+02  0.35378290452E+02  0.00000000000E+00 0.  1.
<mgrwt>
<rscale>  0 0.87813395E+02</rscale>
<asrwt>0</asrwt>
<pdfrwt beam="1">  1        1 0.27882199E-02 0.87813395E+02</pdfrwt>
<pdfrwt beam="2">  1       -1 0.16364691E-01 0.87813395E+02</pdfrwt>
<totfact> 0.88599819E+04</totfact>
</mgrwt>
</event>
<event>
 7    1  0.2787125E-009  0.9577297E+02  0.7818608E-02  0.1289445E+00
         -1   -1    0    0    0  501 -0.00000000000E+00  0.00000000000E+00  0.62828067645E+02  0.62828067847E+02  0.50400000000E-02 0.  1.
          1   -1    0    0  501    0  0.00000000000E+00 -0.00000000000E+00 -0.36498262427E+02  0.36498262775E+02  0.50400000000E-02 0. -1.
         23    2    1    2    0    0  0.44408920985E-15 -0.17763568394E-14  0.26329805218E+02  0.99326330622E+02  0.95772967543E+02 0.  0.
    9000005    2    3    3    0    0 -0.35665456029E+01 -0.12747378233E+02 -0.32834566617E+02  0.38699283902E+02  0.15630416190E+02 0.  0.
         22    1    3    3    0    0  0.35665456029E+01  0.12747378233E+02  0.59164371835E+02  0.60627046720E+02  0.00000000000E+00 0.  1.
         22    1    4    4    0    0  0.22816841256E+01 -0.13835868609E+02 -0.26674597137E+02  0.30135883512E+02  0.00000000000E+00 0. -1.
         22    1    4    4    0    0 -0.58482297286E+01  0.10884903752E+01 -0.61599694796E+01  0.85634003903E+01  0.00000000000E+00 0. -1.
<mgrwt>
<rscale>  0 0.95772968E+02</rscale>
<asrwt>0</asrwt>
<pdfrwt beam="2">  1        1 0.56151174E-02 0.95772968E+02</pdfrwt>
<pdfrwt beam="1">  1       -1 0.96658566E-02 0.95772968E+02</pdfrwt>
<totfact> 0.77695865E+04</totfact>
</mgrwt>
</event>
<event>
 7    1  0.2787125E-009  0.9251778E+02  0.7818608E-02  0.1296867E+00
         -1   -1    0    0    0  501 -0.00000000000E+00  0.00000000000E+00  0.23718747670E+02  0.23718748206E+02  0.50400000000E-02 0.  1.
          1   -1    0    0  501    0  0.00000000000E+00 -0.00000000000E+00 -0.90219138586E+02  0.90219138726E+02  0.50400000000E-02 0. -1.
         23    2    1    2    0    0  0.00000000000E+00  0.00000000000E+00 -0.66500390915E+02  0.11393788693E+03  0.92517782543E+02 0.  0.
    9000005    2    3    3    0    0  0.31423977222E+02 -0.28903168156E+02 -0.54476861378E+02  0.69582225101E+02  0.71482970297E+01 0.  0.
         22    1    3    3    0    0 -0.31423977222E+02  0.28903168156E+02 -0.12023529537E+02  0.44355661831E+02  0.00000000000E+00 0. -1.
         22    1    4    4    0    0  0.30284633574E+02 -0.28443891430E+02 -0.50363375530E+02  0.65289230239E+02  0.00000000000E+00 0.  1.
         22    1    4    4    0    0  0.11393436484E+01 -0.45927672580E+00 -0.41134858489E+01  0.42929948625E+01  0.00000000000E+00 0.  1.
<mgrwt>
<rscale>  0 0.92517783E+02</rscale>
<asrwt>0</asrwt>
<pdfrwt beam="2">  1        1 0.13879867E-01 0.92517783E+02</pdfrwt>
<pdfrwt beam="1">  1       -1 0.36490382E-02 0.92517783E+02</pdfrwt>
<totfact> 0.98674153E+04</totfact>
</mgrwt>
</event>
<event>
 7    1  0.2787125E-009  0.9136655E+02  0.7818608E-02  0.1299576E+00
         -1   -1    0    0    0  501 -0.00000000000E+00  0.00000000000E+00  0.53519527634E+02  0.53519527871E+02  0.50400000000E-02 0. -1.
          1   -1    0    0  501    0  0.00000000000E+00 -0.00000000000E+00 -0.38994394359E+02  0.38994394685E+02  0.50400000000E-02 0.  1.
         23    2    1    2    0    0  0.00000000000E+00  0.00000000000E+00  0.14525133275E+02  0.92513922556E+02  0.91366549513E+02 0.  0.
    9000005    2    3    3    0    0 -0.39985719968E+01  0.28915546614E+02 -0.28175552516E+02  0.40789209110E+02  0.42190527647E+01 0.  0.
         22    1    3    3    0    0  0.39985719968E+01 -0.28915546614E+02  0.42700685791E+02  0.51724713446E+02  0.00000000000E+00 0. -1.
         22    1    4    4    0    0 -0.19068286925E+00  0.15206163952E+01 -0.38353043857E+00  0.15797878893E+01  0.00000000000E+00 0. -1.
         22    1    4    4    0    0 -0.38078891276E+01  0.27394930218E+02 -0.27792022078E+02  0.39209421221E+02  0.00000000000E+00 0. -1.
<mgrwt>
<rscale>  0 0.91366550E+02</rscale>
<asrwt>0</asrwt>
<pdfrwt beam="2">  1        1 0.59991377E-02 0.91366550E+02</pdfrwt>
<pdfrwt beam="1">  1       -1 0.82337735E-02 0.91366550E+02</pdfrwt>
<totfact> 0.89782929E+04</totfact>
</mgrwt>
</event>
<event>
 7    1  0.2787125E-009  0.9093830E+02  0.7818608E-02  0.1300595E+00
          1   -1    0    0  501    0  0.00000000000E+00  0.00000000000E+00  0.52730168360E+03  0.52730168363E+03  0.50400000000E-02 0. -1.
         -1   -1    0    0    0  501 -0.00000000000E+00 -0.00000000000E+00 -0.39207970975E+01  0.39208003368E+01  0.50400000000E-02 0.  1.
         23    2    1    2    0    0  0.00000000000E+00  0.00000000000E+00  0.52338088651E+03  0.53122248397E+03  0.90938303863E+02 0.  0.
    9000005    2    3    3    0    0 -0.31293652762E+02 -0.25527503853E+02  0.37448715422E+03  0.37694905893E+03  0.14799263501E+02 0.  0.
         22    1    3    3    0    0  0.31293652762E+02  0.25527503853E+02  0.14889373229E+03  0.15427342503E+03  0.00000000000E+00 0.  1.
         22    1    4    4    0    0 -0.21128975523E+02 -0.21548953353E+02  0.21762952986E+03  0.21971209176E+03  0.00000000000E+00 0.  1.
         22    1    4    4    0    0 -0.10164677239E+02 -0.39785505002E+01  0.15685762436E+03  0.15723696718E+03  0.00000000000E+00 0.  1.
<mgrwt>
<rscale>  0 0.90938304E+02</rscale>
<asrwt>0</asrwt>
<pdfrwt beam="1">  1        1 0.81123290E-01 0.90938304E+02</pdfrwt>
<pdfrwt beam="2">  1       -1 0.60320014E-03 0.90938304E+02</pdfrwt>
<totfact> 0.14106296E+05</totfact>
</mgrwt>
</event>
<event>
 7    1  0.3022492E-009  0.9191078E+02  0.7818608E-02  0.1298289E+00
         -1   -1    0    0    0  501 -0.00000000000E+00  0.00000000000E+00  0.75783691661E+01  0.75783708421E+01  0.50400000000E-02 0.  1.
          1   -1    0    0  501    0  0.00000000000E+00 -0.00000000000E+00 -0.27867441613E+03  0.27867441618E+03  0.50400000000E-02 0. -1.
         23    2    1    2    0    0  0.88817841970E-15  0.71054273576E-14 -0.27109604696E+03  0.28625278702E+03  0.91910779542E+02 0.  0.
    9000005    2    3    3    0    0  0.47262363645E+01  0.37404806316E+02 -0.60581981132E+02  0.72389211908E+02  0.12188712692E+02 0.  0.
         22    1    3    3    0    0 -0.47262363645E+01 -0.37404806316E+02 -0.21051406583E+03  0.21386357511E+03  0.00000000000E+00 0. -1.
         22    1    4    4    0    0  0.42861307176E+00  0.20880248342E+01  0.17843099567E-02  0.21315628204E+01  0.00000000000E+00 0.  1.
         22    1    4    4    0    0  0.42976232928E+01  0.35316781481E+02 -0.60583765442E+02  0.70257649087E+02  0.00000000000E+00 0.  1.
<mgrwt>
<rscale>  0 0.91910780E+02</rscale>
<asrwt>0</asrwt>
<pdfrwt beam="2">  1        1 0.42872979E-01 0.91910780E+02</pdfrwt>
<pdfrwt beam="1">  1       -1 0.11659033E-02 0.91910780E+02</pdfrwt>
<totfact> 0.12364145E+05</totfact>
</mgrwt>
</event>
<event>
 7    1  0.2787125E-009  0.9107394E+02  0.7818608E-02  0.1300272E+00
          1   -1    0    0  501    0  0.00000000000E+00  0.00000000000E+00  0.51910661596E+02  0.51910661841E+02  0.50400000000E-02 0. -1.
         -1   -1    0    0    0  501 -0.00000000000E+00 -0.00000000000E+00 -0.39945848547E+02  0.39945848865E+02  0.50400000000E-02 0.  1.
         23    2    1    2    0    0  0.00000000000E+00  0.00000000000E+00  0.11964813050E+02  0.91856510705E+02  0.91073935940E+02 0.  0.
    9000005    2    3    3    0    0 -0.34554753388E+02  0.26450553240E+02 -0.60774936741E+01  0.44748256860E+02  0.84739491553E+01 0.  0.
         22    1    3    3    0    0  0.34554753388E+02 -0.26450553240E+02  0.18042306724E+02  0.47108253845E+02  0.00000000000E+00 0. -1.
         22    1    4    4    0    0 -0.26401444302E+02  0.15284052868E+02 -0.43168089609E+01  0.30810280312E+02  0.00000000000E+00 0. -1.
         22    1    4    4    0    0 -0.81533090863E+01  0.11166500372E+02 -0.17606847132E+01  0.13937976549E+02  0.00000000000E+00 0. -1.
<mgrwt>
<rscale>  0 0.91073936E+02</rscale>
<asrwt>0</asrwt>
<pdfrwt beam="1">  1        1 0.79862556E-02 0.91073936E+02</pdfrwt>
<pdfrwt beam="2">  1       -1 0.61455152E-02 0.91073936E+02</pdfrwt>
<totfact> 0.94591135E+04</totfact>
</mgrwt>
</event>
<event>
 7    1  0.2787125E-009  0.9401008E+02  0.7818608E-02  0.1293421E+00
          1   -1    0    0  501    0  0.00000000000E+00  0.00000000000E+00  0.30142739398E+02  0.30142739820E+02  0.50400000000E-02 0. -1.
         -1   -1    0    0    0  501 -0.00000000000E+00 -0.00000000000E+00 -0.73300362339E+02  0.73300362512E+02  0.50400000000E-02 0.  1.
         23    2    1    2    0    0  0.00000000000E+00  0.00000000000E+00 -0.43157622940E+02  0.10344310233E+03  0.94010079258E+02 0.  0.
    9000005    2    3    3    0    0 -0.89951259338E+01 -0.43325770709E+02 -0.35906800519E+02  0.58603286053E+02  0.13675237277E+02 0.  0.
         22    1    3    3    0    0  0.89951259338E+01  0.43325770709E+02 -0.72508224214E+01  0.44839816279E+02  0.00000000000E+00 0. -1.
         22    1    4    4    0    0  0.70529835543E+00 -0.62072980374E+01 -0.28976570454E+00  0.62539554570E+01  0.00000000000E+00 0. -1.
         22    1    4    4    0    0 -0.97004242892E+01 -0.37118472672E+02 -0.35617034814E+02  0.52349330596E+02  0.00000000000E+00 0. -1.
<mgrwt>
<rscale>  0 0.94010079E+02</rscale>
<asrwt>0</asrwt>
<pdfrwt beam="1">  1        1 0.46373446E-02 0.94010079E+02</pdfrwt>
<pdfrwt beam="2">  1       -1 0.11276979E-01 0.94010079E+02</pdfrwt>
<totfact> 0.79429598E+04</totfact>
</mgrwt>
</event>
<event>
 7    1  0.2787125E-009  0.8912476E+02  0.7818608E-02  0.1304985E+00
          1   -1    0    0  501    0  0.00000000000E+00  0.00000000000E+00  0.18186589534E+02  0.18186590233E+02  0.50400000000E-02 0. -1.
         -1   -1    0    0    0  501 -0.00000000000E+00 -0.00000000000E+00 -0.10919065072E+03  0.10919065084E+03  0.50400000000E-02 0.  1.
         23    2    1    2    0    0  0.88817841970E-15  0.71054273576E-14 -0.91004061190E+02  0.12737724107E+03  0.89124757449E+02 0.  0.
    9000005    2    3    3    0    0  0.13842245396E+01  0.37292361065E+02 -0.78084756364E+02  0.87886169822E+02  0.15300764625E+02 0.  0.
         22    1    3    3    0    0 -0.13842245396E+01 -0.37292361065E+02 -0.12919304826E+02  0.39491071251E+02  0.00000000000E+00 0. -1.
         22    1    4    4    0    0 -0.44866456912E+01  0.27121997587E+02 -0.63250642741E+02  0.68966488600E+02  0.00000000000E+00 0. -1.
         22    1    4    4    0    0  0.58708702308E+01  0.10170363479E+02 -0.14834113623E+02  0.18919681222E+02  0.00000000000E+00 0. -1.
<mgrwt>
<rscale>  0 0.89124757E+02</rscale>
<asrwt>0</asrwt>
<pdfrwt beam="1">  1        1 0.27979370E-02 0.89124757E+02</pdfrwt>
<pdfrwt beam="2">  1       -1 0.16798561E-01 0.89124757E+02</pdfrwt>
<totfact> 0.84856661E+04</totfact>
</mgrwt>
</event>
<event>
 7    1  0.2787125E-009  0.9122460E+02  0.7818608E-02  0.1299913E+00
         -1   -1    0    0    0  501 -0.00000000000E+00  0.00000000000E+00  0.72116923884E+02  0.72116924060E+02  0.50400000000E-02 0.  1.
          1   -1    0    0  501    0  0.00000000000E+00 -0.00000000000E+00 -0.28848734290E+02  0.28848734730E+02  0.50400000000E-02 0. -1.
         23    2    1    2    0    0  0.00000000000E+00  0.00000000000E+00  0.43268189593E+02  0.10096565879E+03  0.91224602078E+02 0.  0.
    9000005    2    3    3    0    0  0.28687530787E+01 -0.99639711950E+01  0.70403947826E+02  0.71916393033E+02  0.10379848323E+02 0.  0.
         22    1    3    3    0    0 -0.28687530787E+01  0.99639711950E+01 -0.27135758232E+02  0.29049265757E+02  0.00000000000E+00 0. -1.
         22    1    4    4    0    0  0.19810564461E+01 -0.10163430500E+02  0.70231047785E+02  0.70990280864E+02  0.00000000000E+00 0. -1.
         22    1    4    4    0    0  0.88769663253E+00  0.19945930481E+00  0.17290004107E+00  0.92611216917E+00  0.00000000000E+00 0. -1.
<mgrwt>
<rscale>  0 0.91224602E+02</rscale>
<asrwt>0</asrwt>
<pdfrwt beam="2">  1        1 0.44382669E-02 0.91224602E+02</pdfrwt>
<pdfrwt beam="1">  1       -1 0.11094911E-01 0.91224602E+02</pdfrwt>
<totfact> 0.86006259E+04</totfact>
</mgrwt>
</event>
<event>
 7    1  0.2787125E-009  0.9226489E+02  0.7818608E-02  0.1297458E+00
          1   -1    0    0  501    0  0.00000000000E+00  0.00000000000E+00  0.10801265831E+02  0.10801267007E+02  0.50400000000E-02 0. -1.
         -1   -1    0    0    0  501 -0.00000000000E+00 -0.00000000000E+00 -0.19703266732E+03  0.19703266738E+03  0.50400000000E-02 0.  1.
         23    2    1    2    0    0  0.00000000000E+00  0.35527136788E-14 -0.18623140148E+03  0.20783393439E+03  0.92264887060E+02 0.  0.
    9000005    2    3    3    0    0  0.30242518961E+02 -0.22807145151E+02 -0.14964751014E+03  0.15517316219E+03  0.15797377880E+02 0.  0.
         22    1    3    3    0    0 -0.30242518961E+02  0.22807145151E+02 -0.36583891339E+02  0.52660772199E+02  0.00000000000E+00 0. -1.
         22    1    4    4    0    0  0.58658321235E+01 -0.13742907930E+02 -0.49726626605E+02  0.51923144149E+02  0.00000000000E+00 0.  1.
         22    1    4    4    0    0  0.24376686838E+02 -0.90642372210E+01 -0.99920883540E+02  0.10325001804E+03  0.00000000000E+00 0.  1.
<mgrwt>
<rscale>  0 0.92264887E+02</rscale>
<asrwt>0</asrwt>
<pdfrwt beam="1">  1        1 0.16617335E-02 0.92264887E+02</pdfrwt>
<pdfrwt beam="2">  1       -1 0.30312715E-01 0.92264887E+02</pdfrwt>
<totfact> 0.67596442E+04</totfact>
</mgrwt>
</event>
<event>
 7    1  0.2787125E-009  0.9061730E+02  0.7818608E-02  0.1301364E+00
         -1   -1    0    0    0  501 -0.00000000000E+00  0.00000000000E+00  0.43026140150E+01  0.43026169669E+01  0.50400000000E-02 0.  1.
          1   -1    0    0  501    0  0.00000000000E+00 -0.00000000000E+00 -0.47712224889E+03  0.47712224891E+03  0.50400000000E-02 0. -1.
         23    2    1    2    0    0  0.00000000000E+00  0.71054273576E-14 -0.47281963487E+03  0.48142486588E+03  0.90617296183E+02 0.  0.
    9000005    2    3    3    0    0  0.97900189852E+01 -0.42486012909E+02 -0.21316451001E+03  0.21813474143E+03  0.15580479050E+02 0.  0.
         22    1    3    3    0    0 -0.97900189852E+01  0.42486012909E+02 -0.25965512486E+03  0.26329012445E+03  0.00000000000E+00 0.  1.
         22    1    4    4    0    0  0.56689000246E+01 -0.26968083086E+01 -0.26790238584E+02  0.27515924225E+02  0.00000000000E+00 0.  1.
         22    1    4    4    0    0  0.41211189605E+01 -0.39789204601E+02 -0.18637427143E+03  0.19061881721E+03  0.00000000000E+00 0.  1.
<mgrwt>
<rscale>  0 0.90617296E+02</rscale>
<asrwt>0</asrwt>
<pdfrwt beam="2">  1        1 0.73403381E-01 0.90617296E+02</pdfrwt>
<pdfrwt beam="1">  1       -1 0.66194122E-03 0.90617296E+02</pdfrwt>
<totfact> 0.14073551E+05</totfact>
</mgrwt>
</event>
<event>
 7    1  0.2787125E-009  0.9273724E+02  0.7818608E-02  0.1296355E+00
         -1   -1    0    0    0  501 -0.00000000000E+00  0.00000000000E+00  0.37661530240E+01  0.37661563963E+01  0.50400000000E-02 0.  1.
          1   -1    0    0  501    0  0.00000000000E+00 -0.00000000000E+00 -0.57088707473E+03  0.57088707476E+03  0.50400000000E-02 0. -1.
         23    2    1    2    0    0  0.00000000000E+00  0.00000000000E+00 -0.56712092171E+03  0.57465323115E+03  0.92737242966E+02 0.  0.
    9000005    2    3    3    0    0  0.37090067214E+02  0.25558938925E+02 -0.33000981805E+03  0.33330160401E+03  0.12431684604E+02 0.  0.
         22    1    3    3    0    0 -0.37090067214E+02 -0.25558938925E+02 -0.23711110366E+03  0.24135162714E+03  0.00000000000E+00 0.  1.
         22    1    4    4    0    0  0.21315333343E+02  0.14378147193E+02 -0.23059426771E+03  0.23202325498E+03  0.00000000000E+00 0.  1.
         22    1    4    4    0    0  0.15774733871E+02  0.11180791732E+02 -0.99415550342E+02  0.10127834903E+03  0.00000000000E+00 0.  1.
<mgrwt>
<rscale>  0 0.92737243E+02</rscale>
<asrwt>0</asrwt>
<pdfrwt beam="2">  1        1 0.87828712E-01 0.92737243E+02</pdfrwt>
<pdfrwt beam="1">  1       -1 0.57940887E-03 0.92737243E+02</pdfrwt>
<totfact> 0.13489684E+05</totfact>
</mgrwt>
</event>
<event>
 7    1  0.2787125E-009  0.9267310E+02  0.7818608E-02  0.1296505E+00
          1   -1    0    0  501    0  0.00000000000E+00  0.00000000000E+00  0.11084310091E+02  0.11084311237E+02  0.50400000000E-02 0. -1.
         -1   -1    0    0    0  501 -0.00000000000E+00 -0.00000000000E+00 -0.19370406941E+03  0.19370406947E+03  0.50400000000E-02 0.  1.
         23    2    1    2    0    0  0.00000000000E+00  0.00000000000E+00 -0.18261975932E+03  0.20478838071E+03  0.92673104951E+02 0.  0.
    9000005    2    3    3    0    0 -0.18368162803E+02  0.36478902917E+02 -0.43101138199E+02  0.59414568071E+02  0.20695463799E+01 0.  0.
         22    1    3    3    0    0  0.18368162803E+02 -0.36478902917E+02 -0.13951862112E+03  0.14537381264E+03  0.00000000000E+00 0.  1.
         22    1    4    4    0    0 -0.60158184576E+01  0.12415933763E+02 -0.15964702110E+02  0.21100170530E+02  0.00000000000E+00 0. -1.
         22    1    4    4    0    0 -0.12352344346E+02  0.24062969154E+02 -0.27136436089E+02  0.38314397541E+02  0.00000000000E+00 0. -1.
<mgrwt>
<rscale>  0 0.92673105E+02</rscale>
<asrwt>0</asrwt>
<pdfrwt beam="1">  1        1 0.17052787E-02 0.92673105E+02</pdfrwt>
<pdfrwt beam="2">  1       -1 0.29800624E-01 0.92673105E+02</pdfrwt>
<totfact> 0.67143863E+04</totfact>
</mgrwt>
</event>
<event>
 7    1  0.2787125E-009  0.8908838E+02  0.7818608E-02  0.1305074E+00
         -1   -1    0    0    0  501 -0.00000000000E+00  0.00000000000E+00  0.85283326070E+01  0.85283340962E+01  0.50400000000E-02 0.  1.
          1   -1    0    0  501    0  0.00000000000E+00 -0.00000000000E+00 -0.23265799695E+03  0.23265799700E+03  0.50400000000E-02 0. -1.
         23    2    1    2    0    0  0.00000000000E+00 -0.22204460493E-15 -0.22412966434E+03  0.24118633110E+03  0.89088382359E+02 0.  0.
    9000005    2    3    3    0    0 -0.42754915912E+02  0.13663145386E+01 -0.93456691556E+02  0.10368987490E+03  0.13696251698E+02 0.  0.
         22    1    3    3    0    0  0.42754915912E+02 -0.13663145386E+01 -0.13067297278E+03  0.13749645620E+03  0.00000000000E+00 0. -1.
         22    1    4    4    0    0 -0.16713070025E+02  0.71850353734E+01 -0.35758131149E+02  0.40119763038E+02  0.00000000000E+00 0.  1.
         22    1    4    4    0    0 -0.26041845887E+02 -0.58187208349E+01 -0.57698560408E+02  0.63570111865E+02  0.00000000000E+00 0.  1.
<mgrwt>
<rscale>  0 0.89088382E+02</rscale>
<asrwt>0</asrwt>
<pdfrwt beam="2">  1        1 0.35793533E-01 0.89088382E+02</pdfrwt>
<pdfrwt beam="1">  1       -1 0.13120515E-02 0.89088382E+02</pdfrwt>
<totfact> 0.12973013E+05</totfact>
</mgrwt>
</event>
<event>
 7    1  0.2787125E-009  0.8790987E+02  0.7818608E-02  0.1307994E+00
          1   -1    0    0  501    0  0.00000000000E+00  0.00000000000E+00  0.10587615756E+03  0.10587615768E+03  0.50400000000E-02 0. -1.
         -1   -1    0    0    0  501 -0.00000000000E+00 -0.00000000000E+00 -0.18248077995E+02  0.18248078691E+02  0.50400000000E-02 0.  1.
         23    2    1    2    0    0  0.00000000000E+00 -0.88817841970E-15  0.87628079569E+02  0.12412423637E+03  0.87909872748E+02 0.  0.
    9000005    2    3    3    0    0  0.24603004063E+02 -0.66520217769E+01  0.93693818529E+02  0.97925946510E+02  0.12704415247E+02 0.  0.
         22    1    3    3    0    0 -0.24603004063E+02  0.66520217769E+01 -0.60657389604E+01  0.26198289864E+02  0.00000000000E+00 0.  1.
         22    1    4    4    0    0  0.10547048435E+00 -0.37265476017E+01  0.14936903208E+02  0.15395108265E+02  0.00000000000E+00 0.  1.
         22    1    4    4    0    0  0.24497533579E+02 -0.29254741751E+01  0.78756915321E+02  0.82530838245E+02  0.00000000000E+00 0.  1.
<mgrwt>
<rscale>  0 0.87909873E+02</rscale>
<asrwt>0</asrwt>
<pdfrwt beam="1">  1        1 0.16288640E-01 0.87909873E+02</pdfrwt>
<pdfrwt beam="2">  1       -1 0.28073967E-02 0.87909873E+02</pdfrwt>
<totfact> 0.11642847E+05</totfact>
</mgrwt>
</event>
<event>
 7    1  0.2787125E-009  0.9135167E+02  0.7818608E-02  0.1299611E+00
          1   -1    0    0  501    0  0.00000000000E+00  0.00000000000E+00  0.79478351955E+01  0.79478367935E+01  0.50400000000E-02 0. -1.
         -1   -1    0    0    0  501 -0.00000000000E+00 -0.00000000000E+00 -0.26249684446E+03  0.26249684451E+03  0.50400000000E-02 0.  1.
         23    2    1    2    0    0  0.00000000000E+00  0.00000000000E+00 -0.25454900926E+03  0.27044468130E+03  0.91351669535E+02 0.  0.
    9000005    2    3    3    0    0  0.14945292710E+02  0.33463852271E+02 -0.20651479905E+03  0.21002550773E+03  0.10916065761E+02 0.  0.
         22    1    3    3    0    0 -0.14945292710E+02 -0.33463852271E+02 -0.48034210217E+02  0.60419173564E+02  0.00000000000E+00 0. -1.
         22    1    4    4    0    0  0.16180050846E+01  0.14305672976E+02 -0.62879422064E+02  0.64506526327E+02  0.00000000000E+00 0. -1.
         22    1    4    4    0    0  0.13327287626E+02  0.19158179295E+02 -0.14363537698E+03  0.14551898141E+03  0.00000000000E+00 0. -1.
<mgrwt>
<rscale>  0 0.91351670E+02</rscale>
<asrwt>0</asrwt>
<pdfrwt beam="1">  1        1 0.12227442E-02 0.91351670E+02</pdfrwt>
<pdfrwt beam="2">  1       -1 0.40384123E-01 0.91351670E+02</pdfrwt>
<totfact> 0.63362978E+04</totfact>
</mgrwt>
</event>
<event>
 7    1  0.2787125E-009  0.9096302E+02  0.7818608E-02  0.1300536E+00
          1   -1    0    0  501    0  0.00000000000E+00  0.00000000000E+00  0.16078653923E+03  0.16078653931E+03  0.50400000000E-02 0. -1.
         -1   -1    0    0    0  501 -0.00000000000E+00 -0.00000000000E+00 -0.12865303002E+02  0.12865303989E+02  0.50400000000E-02 0.  1.
         23    2    1    2    0    0  0.88817841970E-15  0.00000000000E+00  0.14792123623E+03  0.17365184330E+03  0.90963017506E+02 0.  0.
    9000005    2    3    3    0    0 -0.44530876078E+01 -0.42262679298E+02  0.46352810020E+02  0.63551392558E+02  0.91778237445E+01 0.  0.
         22    1    3    3    0    0  0.44530876078E+01  0.42262679298E+02  0.10156842621E+03  0.11010045074E+03  0.00000000000E+00 0. -1.
         22    1    4    4    0    0  0.53395484300E+00 -0.26539995728E+02  0.32849600384E+02  0.42234496876E+02  0.00000000000E+00 0. -1.
         22    1    4    4    0    0 -0.49870424508E+01 -0.15722683570E+02  0.13503209636E+02  0.21316895682E+02  0.00000000000E+00 0. -1.
<mgrwt>
<rscale>  0 0.90963018E+02</rscale>
<asrwt>0</asrwt>
<pdfrwt beam="1">  1        1 0.24736392E-01 0.90963018E+02</pdfrwt>
<pdfrwt beam="2">  1       -1 0.19792773E-02 0.90963018E+02</pdfrwt>
<totfact> 0.11430448E+05</totfact>
</mgrwt>
</event>
<event>
 7    1  0.2787125E-009  0.9015297E+02  0.7818608E-02  0.1302482E+00
          1   -1    0    0  501    0  0.00000000000E+00  0.00000000000E+00  0.15451501353E+03  0.15451501361E+03  0.50400000000E-02 0.  1.
         -1   -1    0    0    0  501 -0.00000000000E+00 -0.00000000000E+00 -0.13150108833E+02  0.13150109798E+02  0.50400000000E-02 0. -1.
         23    2    1    2    0    0  0.00000000000E+00  0.00000000000E+00  0.14136490469E+03  0.16766512341E+03  0.90152966274E+02 0.  0.
    9000005    2    3    3    0    0  0.20418592715E+02  0.16533137657E+02  0.13851952078E+03  0.14123862574E+03  0.83921508306E+01 0.  0.
         22    1    3    3    0    0 -0.20418592715E+02 -0.16533137657E+02  0.28453839154E+01  0.26426497665E+02  0.00000000000E+00 0. -1.
         22    1    4    4    0    0  0.72357567788E+01  0.58318318228E+01  0.71509843042E+02  0.72111192547E+02  0.00000000000E+00 0. -1.
         22    1    4    4    0    0  0.13182835936E+02  0.10701305834E+02  0.67009677735E+02  0.69127433194E+02  0.00000000000E+00 0. -1.
<mgrwt>
<rscale>  0 0.90152966E+02</rscale>
<asrwt>0</asrwt>
<pdfrwt beam="1">  1        1 0.23771539E-01 0.90152966E+02</pdfrwt>
<pdfrwt beam="2">  1       -1 0.20230939E-02 0.90152966E+02</pdfrwt>
<totfact> 0.11622869E+05</totfact>
</mgrwt>
</event>
<event>
 7    1  0.2787125E-009  0.9181644E+02  0.7818608E-02  0.1298512E+00
          1   -1    0    0  501    0  0.00000000000E+00  0.00000000000E+00  0.32115246349E+02  0.32115246744E+02  0.50400000000E-02 0. -1.
         -1   -1    0    0    0  501 -0.00000000000E+00 -0.00000000000E+00 -0.65625047920E+02  0.65625048114E+02  0.50400000000E-02 0.  1.
         23    2    1    2    0    0  0.35527136788E-14  0.00000000000E+00 -0.33509801572E+02  0.97740294858E+02  0.91816438820E+02 0.  0.
    9000005    2    3    3    0    0 -0.31959031151E+02  0.86321774592E+01 -0.49901808329E+02  0.60799909839E+02  0.10514009803E+02 0.  0.
         22    1    3    3    0    0  0.31959031151E+02 -0.86321774592E+01  0.16392006758E+02  0.36940385019E+02  0.00000000000E+00 0. -1.
         22    1    4    4    0    0 -0.89744029850E+01 -0.22765714568E+01 -0.12161029768E+02  0.15284414662E+02  0.00000000000E+00 0. -1.
         22    1    4    4    0    0 -0.22984628166E+02  0.10908748916E+02 -0.37740778561E+02  0.45515495177E+02  0.00000000000E+00 0. -1.
<mgrwt>
<rscale>  0 0.91816439E+02</rscale>
<asrwt>0</asrwt>
<pdfrwt beam="1">  1        1 0.49408072E-02 0.91816439E+02</pdfrwt>
<pdfrwt beam="2">  1       -1 0.10096161E-01 0.91816439E+02</pdfrwt>
<totfact> 0.85896560E+04</totfact>
</mgrwt>
</event>
<event>
 7    1  0.2787125E-009  0.9349186E+02  0.7818608E-02  0.1294609E+00
         -1   -1    0    0    0  501 -0.00000000000E+00  0.00000000000E+00  0.24320095473E+02  0.24320095995E+02  0.50400000000E-02 0.  1.
          1   -1    0    0  501    0  0.00000000000E+00 -0.00000000000E+00 -0.89850873912E+02  0.89850874053E+02  0.50400000000E-02 0. -1.
         23    2    1    2    0    0  0.35527136788E-14  0.17763568394E-14 -0.65530778439E+02  0.11417097005E+03  0.93491857822E+02 0.  0.
    9000005    2    3    3    0    0  0.18690527571E+02 -0.14312107550E+02  0.15372277186E+02  0.29912577868E+02  0.10211912915E+02 0.  0.
         22    1    3    3    0    0 -0.18690527571E+02  0.14312107550E+02 -0.80903055625E+02  0.84258392181E+02  0.00000000000E+00 0. -1.
         22    1    4    4    0    0  0.28752172322E+01 -0.51658856096E+01  0.85832814780E+01  0.10422378289E+02  0.00000000000E+00 0. -1.
         22    1    4    4    0    0  0.15815310339E+02 -0.91462219408E+01  0.67889957082E+01  0.19490199579E+02  0.00000000000E+00 0. -1.
<mgrwt>
<rscale>  0 0.93491858E+02</rscale>
<asrwt>0</asrwt>
<pdfrwt beam="2">  1        1 0.13823211E-01 0.93491858E+02</pdfrwt>
<pdfrwt beam="1">  1       -1 0.37415532E-02 0.93491858E+02</pdfrwt>
<totfact> 0.95814344E+04</totfact>
</mgrwt>
</event>
<event>
 7    1  0.2787125E-009  0.9057812E+02  0.7818608E-02  0.1301458E+00
          1   -1    0    0  501    0  0.00000000000E+00  0.00000000000E+00  0.16580304678E+02  0.16580305444E+02  0.50400000000E-02 0. -1.
         -1   -1    0    0    0  501 -0.00000000000E+00 -0.00000000000E+00 -0.12370694827E+03  0.12370694837E+03  0.50400000000E-02 0.  1.
         23    2    1    2    0    0 -0.35527136788E-14  0.00000000000E+00 -0.10712664359E+03  0.14028725382E+03  0.90578119964E+02 0.  0.
    9000005    2    3    3    0    0  0.29328369858E+02  0.10477903947E+02 -0.68472084545E+01  0.35282945043E+02  0.15101728300E+02 0.  0.
         22    1    3    3    0    0 -0.29328369858E+02 -0.10477903947E+02 -0.10027943514E+03  0.10500430877E+03  0.00000000000E+00 0.  1.
         22    1    4    4    0    0  0.29758437768E+02  0.91973883895E+01 -0.31018110226E+01  0.31301402575E+02  0.00000000000E+00 0. -1.
         22    1    4    4    0    0 -0.43006790961E+00  0.12805155570E+01 -0.37453974318E+01  0.39815424676E+01  0.00000000000E+00 0. -1.
<mgrwt>
<rscale>  0 0.90578120E+02</rscale>
<asrwt>0</asrwt>
<pdfrwt beam="1">  1        1 0.25508162E-02 0.90578120E+02</pdfrwt>
<pdfrwt beam="2">  1       -1 0.19031838E-01 0.90578120E+02</pdfrwt>
<totfact> 0.79379481E+04</totfact>
</mgrwt>
</event>
<event>
 7    1  0.2787125E-009  0.9281675E+02  0.7818608E-02  0.1296170E+00
          1   -1    0    0  501    0  0.00000000000E+00  0.00000000000E+00  0.73802639637E+01  0.73802656846E+01  0.50400000000E-02 0. -1.
         -1   -1    0    0    0  501 -0.00000000000E+00 -0.00000000000E+00 -0.29182385430E+03  0.29182385434E+03  0.50400000000E-02 0.  1.
         23    2    1    2    0    0  0.00000000000E+00  0.00000000000E+00 -0.28444359033E+03  0.29920412002E+03  0.92816751496E+02 0.  0.
    9000005    2    3    3    0    0 -0.12196714580E+02 -0.42372496703E+02 -0.18420484570E+03  0.18969615571E+03  0.10441167911E+02 0.  0.
         22    1    3    3    0    0  0.12196714580E+02  0.42372496703E+02 -0.10023874463E+03  0.10950796432E+03  0.00000000000E+00 0. -1.
         22    1    4    4    0    0 -0.95651277257E+01 -0.16836810351E+02 -0.68987249809E+02  0.71653405274E+02  0.00000000000E+00 0. -1.
         22    1    4    4    0    0 -0.26315868541E+01 -0.25535686351E+02 -0.11521759589E+03  0.11804275043E+03  0.00000000000E+00 0. -1.
<mgrwt>
<rscale>  0 0.92816751E+02</rscale>
<asrwt>0</asrwt>
<pdfrwt beam="1">  1        1 0.11354256E-02 0.92816751E+02</pdfrwt>
<pdfrwt beam="2">  1       -1 0.44895969E-01 0.92816751E+02</pdfrwt>
<totfact> 0.58449170E+04</totfact>
</mgrwt>
</event>
<event>
 6    1  0.2787125E-009  0.1552783E+03  0.7818608E-02  0.1194133E+00
         -1   -1    0    0    0  501 -0.00000000000E+00  0.00000000000E+00  0.19749883370E+03  0.19749883376E+03  0.50400000000E-02 0.  1.
          1   -1    0    0  501    0  0.00000000000E+00 -0.00000000000E+00 -0.30520888987E+02  0.30520889403E+02  0.50400000000E-02 0. -1.
    9000005    2    1    2    0    0 -0.55170307039E+01 -0.72709594163E+02  0.46911255636E+02  0.87545054500E+02  0.12097435718E+02 0.  0.
         22    1    1    2    0    0  0.55170307039E+01  0.72709594163E+02  0.12006668907E+03  0.14047466866E+03  0.00000000000E+00 0.  1.
         22    1    3    3    0    0  0.16482286409E+01 -0.12400515530E+02  0.38273151652E+01  0.13081964089E+02  0.00000000000E+00 0. -1.
         22    1    3    3    0    0 -0.71652593447E+01 -0.60309078633E+02  0.43083940470E+02  0.74463090411E+02  0.00000000000E+00 0. -1.
<mgrwt>
<rscale>  0 0.15527833E+03</rscale>
<asrwt>0</asrwt>
<pdfrwt beam="2">  1        1 0.46955213E-02 0.15527833E+03</pdfrwt>
<pdfrwt beam="1">  1       -1 0.30384436E-01 0.15527833E+03</pdfrwt>
<totfact> 0.17121721E+04</totfact>
</mgrwt>
</event>
<event>
 7    1  0.2787125E-009  0.9164341E+02  0.7818608E-02  0.1298920E+00
          1   -1    0    0  501    0  0.00000000000E+00  0.00000000000E+00  0.15645547315E+03  0.15645547323E+03  0.50400000000E-02 0. -1.
         -1   -1    0    0    0  501 -0.00000000000E+00 -0.00000000000E+00 -0.13419976290E+02  0.13419977237E+02  0.50400000000E-02 0.  1.
         23    2    1    2    0    0  0.00000000000E+00  0.00000000000E+00  0.14303549686E+03  0.16987545046E+03  0.91643413891E+02 0.  0.
    9000005    2    3    3    0    0 -0.42960700348E+02 -0.14074327389E+02  0.78672225444E+02  0.91222165900E+02  0.94051065587E+01 0.  0.
         22    1    3    3    0    0  0.42960700348E+02  0.14074327389E+02  0.64363271411E+02  0.78653284563E+02  0.00000000000E+00 0.  1.
         22    1    4    4    0    0 -0.26484266255E+00 -0.14881686121E+01  0.14794273152E+01  0.21150632697E+01  0.00000000000E+00 0.  1.
         22    1    4    4    0    0 -0.42695857685E+02 -0.12586158777E+02  0.77192798129E+02  0.89107102631E+02  0.00000000000E+00 0.  1.
<mgrwt>
<rscale>  0 0.91643414E+02</rscale>
<asrwt>0</asrwt>
<pdfrwt beam="1">  1        1 0.24070073E-01 0.91643414E+02</pdfrwt>
<pdfrwt beam="2">  1       -1 0.20646118E-02 0.91643414E+02</pdfrwt>
<totfact> 0.11146281E+05</totfact>
</mgrwt>
</event>
<event>
 7    1  0.2787125E-009  0.9170064E+02  0.7818608E-02  0.1298785E+00
         -1   -1    0    0    0  501 -0.00000000000E+00  0.00000000000E+00  0.11553828087E+03  0.11553828098E+03  0.50400000000E-02 0.  1.
          1   -1    0    0  501    0  0.00000000000E+00 -0.00000000000E+00 -0.18195283019E+02  0.18195283717E+02  0.50400000000E-02 0. -1.
         23    2    1    2    0    0 -0.17763568394E-14 -0.71054273576E-14  0.97342997850E+02  0.13373356470E+03  0.91700638471E+02 0.  0.
    9000005    2    3    3    0    0 -0.10017996984E+02 -0.44180597523E+02  0.48082034315E+02  0.66808771163E+02  0.99621493328E+01 0.  0.
         22    1    3    3    0    0  0.10017996984E+02  0.44180597523E+02  0.49260963535E+02  0.66924793534E+02  0.00000000000E+00 0. -1.
         22    1    4    4    0    0 -0.26962540471E+00 -0.15300136288E+02  0.21339473546E+02  0.26259093653E+02  0.00000000000E+00 0. -1.
         22    1    4    4    0    0 -0.97483715797E+01 -0.28880461236E+02  0.26742560769E+02  0.40549677510E+02  0.00000000000E+00 0. -1.
<mgrwt>
<rscale>  0 0.91700638E+02</rscale>
<asrwt>0</asrwt>
<pdfrwt beam="2">  1        1 0.27992744E-02 0.91700638E+02</pdfrwt>
<pdfrwt beam="1">  1       -1 0.17775120E-01 0.91700638E+02</pdfrwt>
<totfact> 0.77971509E+04</totfact>
</mgrwt>
</event>
<event>
 7    1  0.2787125E-009  0.9063883E+02  0.7818608E-02  0.1301312E+00
          1   -1    0    0  501    0  0.00000000000E+00  0.00000000000E+00  0.15030464630E+02  0.15030465475E+02  0.50400000000E-02 0. -1.
         -1   -1    0    0    0  501 -0.00000000000E+00 -0.00000000000E+00 -0.13664575063E+03  0.13664575072E+03  0.50400000000E-02 0.  1.
         23    2    1    2    0    0  0.17763568394E-14  0.00000000000E+00 -0.12161528600E+03  0.15167621620E+03  0.90638825959E+02 0.  0.
    9000005    2    3    3    0    0 -0.13710874410E+02  0.21558214842E+02  0.11069092716E+01  0.26322788177E+02  0.62385274715E+01 0.  0.
         22    1    3    3    0    0  0.13710874410E+02 -0.21558214842E+02 -0.12272219527E+03  0.12535342802E+03  0.00000000000E+00 0.  1.
         22    1    4    4    0    0 -0.12611053501E+02  0.14831930126E+02  0.12135525825E+01  0.19506345930E+02  0.00000000000E+00 0. -1.
         22    1    4    4    0    0 -0.10998209093E+01  0.67262847162E+01 -0.10664331091E+00  0.68164422473E+01  0.00000000000E+00 0. -1.
<mgrwt>
<rscale>  0 0.90638826E+02</rscale>
<asrwt>0</asrwt>
<pdfrwt beam="1">  1        1 0.23123793E-02 0.90638826E+02</pdfrwt>
<pdfrwt beam="2">  1       -1 0.21022422E-01 0.90638826E+02</pdfrwt>
<totfact> 0.77571237E+04</totfact>
</mgrwt>
</event>
<event>
 7    1  0.2787125E-009  0.8913239E+02  0.7818608E-02  0.1304966E+00
          1   -1    0    0  501    0  0.00000000000E+00  0.00000000000E+00  0.38143667076E+02  0.38143667409E+02  0.50400000000E-02 0. -1.
         -1   -1    0    0    0  501 -0.00000000000E+00 -0.00000000000E+00 -0.52070132292E+02  0.52070132535E+02  0.50400000000E-02 0.  1.
         23    2    1    2    0    0  0.00000000000E+00  0.00000000000E+00 -0.13926465215E+02  0.90213799945E+02  0.89132391795E+02 0.  0.
    9000005    2    3    3    0    0 -0.19523063602E+02 -0.51135323345E+01 -0.46288809273E+02  0.52074325142E+02  0.12719404458E+02 0.  0.
         22    1    3    3    0    0  0.19523063602E+02  0.51135323345E+01  0.32362344058E+02  0.38139474803E+02  0.00000000000E+00 0. -1.
         22    1    4    4    0    0 -0.25926875180E+01  0.28428681562E+01 -0.28793009803E+01  0.48056531350E+01  0.00000000000E+00 0. -1.
         22    1    4    4    0    0 -0.16930376084E+02 -0.79564004907E+01 -0.43409508292E+02  0.47268672007E+02  0.00000000000E+00 0. -1.
<mgrwt>
<rscale>  0 0.89132392E+02</rscale>
<asrwt>0</asrwt>
<pdfrwt beam="1">  1        1 0.58682565E-02 0.89132392E+02</pdfrwt>
<pdfrwt beam="2">  1       -1 0.80107897E-02 0.89132392E+02</pdfrwt>
<totfact> 0.95961578E+04</totfact>
</mgrwt>
</event>
<event>
 7    1  0.2787125E-009  0.8766425E+02  0.7818608E-02  0.1308609E+00
          1   -1    0    0  501    0  0.00000000000E+00  0.00000000000E+00  0.64989077986E+02  0.64989078181E+02  0.50400000000E-02 0. -1.
         -1   -1    0    0    0  501 -0.00000000000E+00 -0.00000000000E+00 -0.29562741811E+02  0.29562742240E+02  0.50400000000E-02 0.  1.
         23    2    1    2    0    0  0.00000000000E+00  0.44408920985E-15  0.35426336175E+02  0.94551820421E+02  0.87664254119E+02 0.  0.
    9000005    2    3    3    0    0 -0.40687725368E+02 -0.36121836708E+01  0.33551842548E+02  0.53661080726E+02  0.92329074399E+01 0.  0.
         22    1    3    3    0    0  0.40687725368E+02  0.36121836708E+01  0.18744936271E+01  0.40890739696E+02  0.00000000000E+00 0.  1.
         22    1    4    4    0    0 -0.26219177354E+02 -0.67204961727E+01  0.21055130861E+02  0.34291819221E+02  0.00000000000E+00 0. -1.
         22    1    4    4    0    0 -0.14468548014E+02  0.31083125018E+01  0.12496711687E+02  0.19369261504E+02  0.00000000000E+00 0. -1.
<mgrwt>
<rscale>  0 0.87664254E+02</rscale>
<asrwt>0</asrwt>
<pdfrwt beam="1">  1        1 0.99983196E-02 0.87664254E+02</pdfrwt>
<pdfrwt beam="2">  1       -1 0.45481142E-02 0.87664254E+02</pdfrwt>
<totfact> 0.10869970E+05</totfact>
</mgrwt>
</event>
<event>
 7    1  0.2787125E-009  0.9120463E+02  0.7818608E-02  0.1299960E+00
         -1   -1    0    0    0  501 -0.00000000000E+00  0.00000000000E+00  0.10967213582E+02  0.10967214740E+02  0.50400000000E-02 0.  1.
          1   -1    0    0  501    0  0.00000000000E+00 -0.00000000000E+00 -0.18961706286E+03  0.18961706292E+03  0.50400000000E-02 0. -1.
         23    2    1    2    0    0  0.00000000000E+00  0.00000000000E+00 -0.17864984928E+03  0.20058427766E+03  0.91204625977E+02 0.  0.
    9000005    2    3    3    0    0 -0.14392040674E+02  0.42431281909E+02 -0.71298024548E+02  0.84257329833E+02  0.28887379523E+01 0.  0.
         22    1    3    3    0    0  0.14392040674E+02 -0.42431281909E+02 -0.10735182473E+03  0.11632694783E+03  0.00000000000E+00 0. -1.
         22    1    4    4    0    0 -0.14435040797E+02  0.42333181931E+02 -0.70772919636E+02  0.83721412129E+02  0.00000000000E+00 0. -1.
         22    1    4    4    0    0  0.43000122739E-01  0.98099978351E-01 -0.52510491193E+00  0.53591770342E+00  0.00000000000E+00 0. -1.
<mgrwt>
<rscale>  0 0.91204626E+02</rscale>
<asrwt>0</asrwt>
<pdfrwt beam="2">  1        1 0.29171854E-01 0.91204626E+02</pdfrwt>
<pdfrwt beam="1">  1       -1 0.16872639E-02 0.91204626E+02</pdfrwt>
<totfact> 0.11709578E+05</totfact>
</mgrwt>
</event>
<event>
 7    1  0.2919030E-009  0.9082693E+02  0.7818608E-02  0.1300861E+00
         -1   -1    0    0    0  501 -0.00000000000E+00  0.00000000000E+00  0.11746255893E+02  0.11746256974E+02  0.50400000000E-02 0.  1.
          1   -1    0    0  501    0  0.00000000000E+00 -0.00000000000E+00 -0.17557786489E+03  0.17557786496E+03  0.50400000000E-02 0. -1.
         23    2    1    2    0    0 -0.35527136788E-14  0.00000000000E+00 -0.16383160899E+03  0.18732412193E+03  0.90826926362E+02 0.  0.
    9000005    2    3    3    0    0  0.20743163372E+02 -0.21337676040E+02 -0.15132614206E+03  0.15504468655E+03  0.15927281982E+02 0.  0.
         22    1    3    3    0    0 -0.20743163372E+02  0.21337676040E+02 -0.12505466936E+02  0.32279435384E+02  0.00000000000E+00 0.  1.
         22    1    4    4    0    0  0.25561748370E+00 -0.24874047509E+01 -0.47039894270E+02  0.47106307175E+02  0.00000000000E+00 0.  1.
         22    1    4    4    0    0  0.20487545888E+02 -0.18850271289E+02 -0.10428624779E+03  0.10793837937E+03  0.00000000000E+00 0.  1.
<mgrwt>
<rscale>  0 0.90826926E+02</rscale>
<asrwt>0</asrwt>
<pdfrwt beam="2">  1        1 0.27011977E-01 0.90826926E+02</pdfrwt>
<pdfrwt beam="1">  1       -1 0.18071165E-02 0.90826926E+02</pdfrwt>
<totfact> 0.11667689E+05</totfact>
</mgrwt>
</event>
<event>
 7    1  0.2787125E-009  0.9210037E+02  0.7818608E-02  0.1297844E+00
         -1   -1    0    0    0  501 -0.00000000000E+00  0.00000000000E+00  0.78566273845E+01  0.78566290011E+01  0.50400000000E-02 0.  1.
          1   -1    0    0  501    0  0.00000000000E+00 -0.00000000000E+00 -0.26991468886E+03  0.26991468891E+03  0.50400000000E-02 0. -1.
         23    2    1    2    0    0  0.00000000000E+00  0.00000000000E+00 -0.26205806147E+03  0.27777131791E+03  0.92100366275E+02 0.  0.
    9000005    2    3    3    0    0 -0.18074547558E+02 -0.21997958346E+02 -0.23967860693E+03  0.24155751631E+03  0.96746897425E+01 0.  0.
         22    1    3    3    0    0  0.18074547558E+02  0.21997958346E+02 -0.22379454539E+02  0.36213801599E+02  0.00000000000E+00 0.  1.
         22    1    4    4    0    0 -0.70718236332E+01 -0.34634453855E+01 -0.44389576808E+02  0.45082598335E+02  0.00000000000E+00 0.  1.
         22    1    4    4    0    0 -0.11002723925E+02 -0.18534512960E+02 -0.19528903013E+03  0.19647491797E+03  0.00000000000E+00 0.  1.
<mgrwt>
<rscale>  0 0.92100366E+02</rscale>
<asrwt>0</asrwt>
<pdfrwt beam="2">  1        1 0.41525330E-01 0.92100366E+02</pdfrwt>
<pdfrwt beam="1">  1       -1 0.12087122E-02 0.92100366E+02</pdfrwt>
<totfact> 0.12219969E+05</totfact>
</mgrwt>
</event>
<event>
 7    1  0.2787125E-009  0.9252370E+02  0.7818608E-02  0.1296853E+00
          1   -1    0    0  501    0  0.00000000000E+00  0.00000000000E+00  0.33703440943E+02  0.33703441320E+02  0.50400000000E-02 0. -1.
         -1   -1    0    0    0  501 -0.00000000000E+00 -0.00000000000E+00 -0.63499712360E+02  0.63499712560E+02  0.50400000000E-02 0.  1.
         23    2    1    2    0    0 -0.17763568394E-14  0.35527136788E-14 -0.29796271417E+02  0.97203153880E+02  0.92523701470E+02 0.  0.
    9000005    2    3    3    0    0  0.10761778878E+02  0.23005707509E+02  0.24263630126E+02  0.37474170819E+02  0.13057996365E+02 0.  0.
         22    1    3    3    0    0 -0.10761778878E+02 -0.23005707509E+02 -0.54059901543E+02  0.59728983061E+02  0.00000000000E+00 0.  1.
         22    1    4    4    0    0 -0.10268320751E+01  0.24481253035E+01 -0.99876757476E+00  0.28364129249E+01  0.00000000000E+00 0.  1.
         22    1    4    4    0    0  0.11788610953E+02  0.20557582205E+02  0.25262397701E+02  0.34637757894E+02  0.00000000000E+00 0.  1.
<mgrwt>
<rscale>  0 0.92523701E+02</rscale>
<asrwt>0</asrwt>
<pdfrwt beam="1">  1        1 0.51851448E-02 0.92523701E+02</pdfrwt>
<pdfrwt beam="2">  1       -1 0.97691865E-02 0.92523701E+02</pdfrwt>
<totfact> 0.84678293E+04</totfact>
</mgrwt>
</event>
<event>
 7    1  0.2787125E-009  0.9111000E+02  0.7818608E-02  0.1300186E+00
         -1   -1    0    0    0  501 -0.00000000000E+00  0.00000000000E+00  0.42401504009E+02  0.42401504308E+02  0.50400000000E-02 0.  1.
          1   -1    0    0  501    0  0.00000000000E+00 -0.00000000000E+00 -0.48943027137E+02  0.48943027396E+02  0.50400000000E-02 0. -1.
         23    2    1    2    0    0 -0.17763568394E-14  0.00000000000E+00 -0.65415231279E+01  0.91344531705E+02  0.91109999163E+02 0.  0.
    9000005    2    3    3    0    0  0.11544384280E+02  0.31539561373E+01 -0.47141516144E+02  0.49017475575E+02  0.60967302377E+01 0.  0.
         22    1    3    3    0    0 -0.11544384280E+02 -0.31539561373E+01  0.40599993016E+02  0.42327056130E+02  0.00000000000E+00 0.  1.
         22    1    4    4    0    0  0.12028471016E+02  0.24809860784E+01 -0.40411105723E+02  0.42236203341E+02  0.00000000000E+00 0.  1.
         22    1    4    4    0    0 -0.48408673551E+00  0.67297005892E+00 -0.67304104209E+01  0.67812722333E+01  0.00000000000E+00 0.  1.
<mgrwt>
<rscale>  0 0.91109999E+02</rscale>
<asrwt>0</asrwt>
<pdfrwt beam="2">  1        1 0.75296965E-02 0.91109999E+02</pdfrwt>
<pdfrwt beam="1">  1       -1 0.65233084E-02 0.91109999E+02</pdfrwt>
<totfact> 0.93655856E+04</totfact>
</mgrwt>
</event>
<event>
 7    1  0.2787125E-009  0.9364292E+02  0.7818608E-02  0.1294262E+00
          1   -1    0    0  501    0  0.00000000000E+00  0.00000000000E+00  0.24666836484E+02  0.24666836999E+02  0.50400000000E-02 0. -1.
         -1   -1    0    0    0  501 -0.00000000000E+00 -0.00000000000E+00 -0.88874351162E+02  0.88874351305E+02  0.50400000000E-02 0.  1.
         23    2    1    2    0    0  0.00000000000E+00  0.35527136788E-14 -0.64207514678E+02  0.11354118830E+03  0.93642920182E+02 0.  0.
    9000005    2    3    3    0    0 -0.13147562832E+02  0.25537473323E+02  0.97177748360E+01  0.34231861097E+02  0.15885975395E+02 0.  0.
         22    1    3    3    0    0  0.13147562832E+02 -0.25537473323E+02 -0.73925289514E+02  0.79309327206E+02  0.00000000000E+00 0.  1.
         22    1    4    4    0    0  0.27839141799E+00  0.88889208738E+01  0.92605869575E+01  0.12839349161E+02  0.00000000000E+00 0. -1.
         22    1    4    4    0    0 -0.13425954250E+02  0.16648552449E+02  0.45718787847E+00  0.21392511936E+02  0.00000000000E+00 0. -1.
<mgrwt>
<rscale>  0 0.93642920E+02</rscale>
<asrwt>0</asrwt>
<pdfrwt beam="1">  1        1 0.37948980E-02 0.93642920E+02</pdfrwt>
<pdfrwt beam="2">  1       -1 0.13672977E-01 0.93642920E+02</pdfrwt>
<totfact> 0.77614956E+04</totfact>
</mgrwt>
</event>
<event>
 7    1  0.2787125E-009  0.9182897E+02  0.7818608E-02  0.1298482E+00
         -1   -1    0    0    0  501 -0.00000000000E+00  0.00000000000E+00  0.51001592209E+01  0.51001617112E+01  0.50400000000E-02 0.  1.
          1   -1    0    0  501    0  0.00000000000E+00 -0.00000000000E+00 -0.41334779173E+03  0.41334779176E+03  0.50400000000E-02 0. -1.
         23    2    1    2    0    0  0.00000000000E+00  0.00000000000E+00 -0.40824763250E+03  0.41844795347E+03  0.91828973181E+02 0.  0.
    9000005    2    3    3    0    0  0.76740621487E+00  0.38929100712E+02 -0.31389501083E+03  0.31637699280E+03  0.69469385581E+01 0.  0.
         22    1    3    3    0    0 -0.76740621487E+00 -0.38929100712E+02 -0.94352621679E+02  0.10207096067E+03  0.00000000000E+00 0.  1.
         22    1    4    4    0    0  0.23304537731E+00  0.10140359841E+01 -0.29427935813E+01  0.31213159384E+01  0.00000000000E+00 0.  1.
         22    1    4    4    0    0  0.53436083756E+00  0.37915064728E+02 -0.31095221724E+03  0.31325567686E+03  0.00000000000E+00 0.  1.
<mgrwt>
<rscale>  0 0.91828973E+02</rscale>
<asrwt>0</asrwt>
<pdfrwt beam="2">  1        1 0.63591942E-01 0.91828973E+02</pdfrwt>
<pdfrwt beam="1">  1       -1 0.78464040E-03 0.91828973E+02</pdfrwt>
<totfact> 0.13306369E+05</totfact>
</mgrwt>
</event>
<event>
 7    1  0.2787125E-009  0.8906526E+02  0.7818608E-02  0.1305131E+00
          1   -1    0    0  501    0  0.00000000000E+00  0.00000000000E+00  0.79607909145E+01  0.79607925099E+01  0.50400000000E-02 0. -1.
         -1   -1    0    0    0  501 -0.00000000000E+00 -0.00000000000E+00 -0.24911529500E+03  0.24911529505E+03  0.50400000000E-02 0.  1.
         23    2    1    2    0    0  0.00000000000E+00  0.00000000000E+00 -0.24115450409E+03  0.25707608756E+03  0.89065256722E+02 0.  0.
    9000005    2    3    3    0    0  0.13964797542E+02  0.37915736148E+02 -0.17091055634E+03  0.17604010288E+03  0.12127692952E+02 0.  0.
         22    1    3    3    0    0 -0.13964797542E+02 -0.37915736148E+02 -0.70243947747E+02  0.81035984680E+02  0.00000000000E+00 0. -1.
         22    1    4    4    0    0  0.11503926936E+02  0.25095149324E+02 -0.13588290005E+03  0.13865882367E+03  0.00000000000E+00 0.  1.
         22    1    4    4    0    0  0.24608706052E+01  0.12820586823E+02 -0.35027656288E+02  0.37381279214E+02  0.00000000000E+00 0.  1.
<mgrwt>
<rscale>  0 0.89065257E+02</rscale>
<asrwt>0</asrwt>
<pdfrwt beam="1">  1        1 0.12247374E-02 0.89065257E+02</pdfrwt>
<pdfrwt beam="2">  1       -1 0.38325424E-01 0.89065257E+02</pdfrwt>
<totfact> 0.68927980E+04</totfact>
</mgrwt>
</event>
<event>
 7    1  0.2787125E-009  0.9097485E+02  0.7818608E-02  0.1300508E+00
          1   -1    0    0  501    0  0.00000000000E+00  0.00000000000E+00  0.21172482048E+02  0.21172482648E+02  0.50400000000E-02 0. -1.
         -1   -1    0    0    0  501 -0.00000000000E+00 -0.00000000000E+00 -0.97726171407E+02  0.97726171537E+02  0.50400000000E-02 0.  1.
         23    2    1    2    0    0  0.00000000000E+00  0.00000000000E+00 -0.76553689359E+02  0.11889865418E+03  0.90974846043E+02 0.  0.
    9000005    2    3    3    0    0  0.19623279480E+02  0.30734869462E+02 -0.71968657162E+02  0.82146405020E+02  0.15454415087E+02 0.  0.
         22    1    3    3    0    0 -0.19623279480E+02 -0.30734869462E+02 -0.45850321974E+01  0.36752249165E+02  0.00000000000E+00 0. -1.
         22    1    4    4    0    0  0.12218869446E+02  0.56902503252E+01 -0.23641579223E+02  0.27214040264E+02  0.00000000000E+00 0.  1.
         22    1    4    4    0    0  0.74044100336E+01  0.25044619137E+02 -0.48327077939E+02  0.54932364757E+02  0.00000000000E+00 0.  1.
<mgrwt>
<rscale>  0 0.90974846E+02</rscale>
<asrwt>0</asrwt>
<pdfrwt beam="1">  1        1 0.32573051E-02 0.90974846E+02</pdfrwt>
<pdfrwt beam="2">  1       -1 0.15034795E-01 0.90974846E+02</pdfrwt>
<totfact> 0.82185507E+04</totfact>
</mgrwt>
</event>
<event>
 7    1  0.2787125E-009  0.9295382E+02  0.7818608E-02  0.1295852E+00
          1   -1    0    0  501    0  0.00000000000E+00  0.00000000000E+00  0.78576935585E+02  0.78576935747E+02  0.50400000000E-02 0. -1.
         -1   -1    0    0    0  501 -0.00000000000E+00 -0.00000000000E+00 -0.27490297345E+02  0.27490297807E+02  0.50400000000E-02 0.  1.
         23    2    1    2    0    0  0.00000000000E+00  0.00000000000E+00  0.51086638240E+02  0.10606723355E+03  0.92953824165E+02 0.  0.
    9000005    2    3    3    0    0 -0.76931676757E+01  0.37728626225E+02  0.54697889848E+02  0.67393273271E+02  0.82073176247E+01 0.  0.
         22    1    3    3    0    0  0.76931676757E+01 -0.37728626225E+02 -0.36112516078E+01  0.38673960282E+02  0.00000000000E+00 0.  1.
         22    1    4    4    0    0 -0.58567946689E+01  0.36709288679E+02  0.52722462520E+02  0.64509937012E+02  0.00000000000E+00 0.  1.
         22    1    4    4    0    0 -0.18363730068E+01  0.10193375460E+01  0.19754273286E+01  0.28833362591E+01  0.00000000000E+00 0.  1.
<mgrwt>
<rscale>  0 0.92953824E+02</rscale>
<asrwt>0</asrwt>
<pdfrwt beam="1">  1        1 0.12088759E-01 0.92953824E+02</pdfrwt>
<pdfrwt beam="2">  1       -1 0.42292766E-02 0.92953824E+02</pdfrwt>
<totfact> 0.95261412E+04</totfact>
</mgrwt>
</event>
<event>
 7    1  0.2787125E-009  0.9271095E+02  0.7818608E-02  0.1296416E+00
         -1   -1    0    0    0  501 -0.00000000000E+00  0.00000000000E+00  0.18762294538E+01  0.18762362231E+01  0.50400000000E-02 0.  1.
          1   -1    0    0  501    0  0.00000000000E+00 -0.00000000000E+00 -0.11452896566E+04  0.11452896566E+04  0.50400000000E-02 0. -1.
         23    2    1    2    0    0  0.00000000000E+00  0.88817841970E-15 -0.11434134271E+04  0.11471658928E+04  0.92710950290E+02 0.  0.
    9000005    2    3    3    0    0  0.34236202981E+02 -0.74698091905E+01 -0.94687215632E+03  0.94752524872E+03  0.30497384600E+01 0.  0.
         22    1    3    3    0    0 -0.34236202981E+02  0.74698091905E+01 -0.19654127078E+03  0.19964064407E+03  0.00000000000E+00 0.  1.
         22    1    4    4    0    0  0.33535652860E+02 -0.70223401327E+01 -0.91248386600E+03  0.91312691286E+03  0.00000000000E+00 0.  1.
         22    1    4    4    0    0  0.70055012093E+00 -0.44746905788E+00 -0.34388290322E+02  0.34398335865E+02  0.00000000000E+00 0.  1.
<mgrwt>
<rscale>  0 0.92710950E+02</rscale>
<asrwt>0</asrwt>
<pdfrwt beam="2">  1        1 0.17619785E+00 0.92710950E+02</pdfrwt>
<pdfrwt beam="1">  1       -1 0.28865212E-03 0.92710950E+02</pdfrwt>
<totfact> 0.12433642E+05</totfact>
</mgrwt>
</event>
<event>
 7    1  0.2787125E-009  0.9191431E+02  0.7818608E-02  0.1298281E+00
          1   -1    0    0  501    0  0.00000000000E+00  0.00000000000E+00  0.51008813391E+02  0.51008813640E+02  0.50400000000E-02 0. -1.
         -1   -1    0    0    0  501 -0.00000000000E+00 -0.00000000000E+00 -0.41405784438E+02  0.41405784745E+02  0.50400000000E-02 0.  1.
         23    2    1    2    0    0  0.00000000000E+00  0.35527136788E-14  0.96030289529E+01  0.92414598385E+02  0.91914306991E+02 0.  0.
    9000005    2    3    3    0    0 -0.25575141931E+02 -0.22024776596E+02 -0.25105789430E+02  0.44000956274E+02  0.12907549003E+02 0.  0.
         22    1    3    3    0    0  0.25575141931E+02  0.22024776596E+02  0.34708818383E+02  0.48413642111E+02  0.00000000000E+00 0. -1.
         22    1    4    4    0    0 -0.12608575580E+01 -0.42014574329E+00  0.14821076564E+01  0.19907102583E+01  0.00000000000E+00 0.  1.
         22    1    4    4    0    0 -0.24314284373E+02 -0.21604630853E+02 -0.26587897086E+02  0.42010246016E+02  0.00000000000E+00 0.  1.
<mgrwt>
<rscale>  0 0.91914307E+02</rscale>
<asrwt>0</asrwt>
<pdfrwt beam="1">  1        1 0.78475097E-02 0.91914307E+02</pdfrwt>
<pdfrwt beam="2">  1       -1 0.63701208E-02 0.91914307E+02</pdfrwt>
<totfact> 0.91949856E+04</totfact>
</mgrwt>
</event>
<event>
 7    1  0.2787125E-009  0.8576018E+02  0.7818608E-02  0.1313456E+00
          1   -1    0    0  501    0  0.00000000000E+00  0.00000000000E+00  0.18031658199E+03  0.18031658206E+03  0.50400000000E-02 0. -1.
         -1   -1    0    0    0  501 -0.00000000000E+00 -0.00000000000E+00 -0.10197076559E+02  0.10197077805E+02  0.50400000000E-02 0.  1.
         23    2    1    2    0    0  0.00000000000E+00  0.00000000000E+00  0.17011950543E+03  0.19051365986E+03  0.85760179962E+02 0.  0.
    9000005    2    3    3    0    0  0.44728768361E+01  0.18938910656E+02  0.16921374316E+03  0.17103265965E+03  0.15498091093E+02 0.  0.
         22    1    3    3    0    0 -0.44728768361E+01 -0.18938910656E+02  0.90576226550E+00  0.19481000214E+02  0.00000000000E+00 0.  1.
         22    1    4    4    0    0 -0.75398838848E+00  0.42589362551E+01  0.82373977214E+01  0.93038571429E+01  0.00000000000E+00 0.  1.
         22    1    4    4    0    0  0.52268652245E+01  0.14679974401E+02  0.16097634544E+03  0.16172880250E+03  0.00000000000E+00 0.  1.
<mgrwt>
<rscale>  0 0.85760180E+02</rscale>
<asrwt>0</asrwt>
<pdfrwt beam="1">  1        1 0.27741012E-01 0.85760180E+02</pdfrwt>
<pdfrwt beam="2">  1       -1 0.15687811E-02 0.85760180E+02</pdfrwt>
<totfact> 0.13673662E+05</totfact>
</mgrwt>
</event>
<event>
 7    1  0.2787125E-009  0.9160431E+02  0.7818608E-02  0.1299012E+00
          1   -1    0    0  501    0  0.00000000000E+00  0.00000000000E+00  0.18702171053E+02  0.18702171732E+02  0.50400000000E-02 0. -1.
         -1   -1    0    0    0  501 -0.00000000000E+00 -0.00000000000E+00 -0.11217078478E+03  0.11217078490E+03  0.50400000000E-02 0.  1.
         23    2    1    2    0    0  0.35527136788E-14  0.00000000000E+00 -0.93468613731E+02  0.13087295663E+03  0.91604306798E+02 0.  0.
    9000005    2    3    3    0    0  0.20133184454E+02  0.21727200241E+02 -0.96479012553E+02  0.10109916198E+03  0.59518353147E+01 0.  0.
         22    1    3    3    0    0 -0.20133184454E+02 -0.21727200241E+02  0.30103988224E+01  0.29773794647E+02  0.00000000000E+00 0. -1.
         22    1    4    4    0    0  0.39539886400E+01  0.48116104329E+01 -0.13239454697E+02  0.14631089562E+02  0.00000000000E+00 0.  1.
         22    1    4    4    0    0  0.16179195814E+02  0.16915589808E+02 -0.83239557857E+02  0.86468072420E+02  0.00000000000E+00 0.  1.
<mgrwt>
<rscale>  0 0.91604307E+02</rscale>
<asrwt>0</asrwt>
<pdfrwt beam="1">  1        1 0.28772572E-02 0.91604307E+02</pdfrwt>
<pdfrwt beam="2">  1       -1 0.17257044E-01 0.91604307E+02</pdfrwt>
<totfact> 0.78645224E+04</totfact>
</mgrwt>
</event>
<event>
 7    1  0.2787125E-009  0.9032000E+02  0.7818608E-02  0.1302079E+00
         -1   -1    0    0    0  501 -0.00000000000E+00  0.00000000000E+00  0.80444796925E+02  0.80444797082E+02  0.50400000000E-02 0.  1.
          1   -1    0    0  501    0  0.00000000000E+00 -0.00000000000E+00 -0.25351865369E+02  0.25351865870E+02  0.50400000000E-02 0. -1.
         23    2    1    2    0    0 -0.88817841970E-15 -0.35527136788E-14  0.55092931556E+02  0.10579666295E+03  0.90320002129E+02 0.  0.
    9000005    2    3    3    0    0  0.27762896834E+01  0.22029456046E+02 -0.17504854520E+02  0.29879318023E+02  0.96617284016E+01 0.  0.
         22    1    3    3    0    0 -0.27762896834E+01 -0.22029456046E+02  0.72597786075E+02  0.75917344929E+02  0.00000000000E+00 0.  1.
         22    1    4    4    0    0  0.40237204398E+01  0.17659208723E+02 -0.89734631289E+01  0.20212892406E+02  0.00000000000E+00 0.  1.
         22    1    4    4    0    0 -0.12474307564E+01  0.43702473234E+01 -0.85313913906E+01  0.96664256175E+01  0.00000000000E+00 0.  1.
<mgrwt>
<rscale>  0 0.90320002E+02</rscale>
<asrwt>0</asrwt>
<pdfrwt beam="2">  1        1 0.39002871E-02 0.90320002E+02</pdfrwt>
<pdfrwt beam="1">  1       -1 0.12376122E-01 0.90320002E+02</pdfrwt>
<totfact> 0.86638791E+04</totfact>
</mgrwt>
</event>
<event>
 7    1  0.4334357E-009  0.9067560E+02  0.7818608E-02  0.1301224E+00
          1   -1    0    0  501    0  0.00000000000E+00  0.00000000000E+00  0.41658218733E+03  0.41658218736E+03  0.50400000000E-02 0. -1.
         -1   -1    0    0    0  501 -0.00000000000E+00 -0.00000000000E+00 -0.49342380725E+01  0.49342406465E+01  0.50400000000E-02 0.  1.
         23    2    1    2    0    0 -0.11102230246E-15  0.00000000000E+00  0.41164794926E+03  0.42151642801E+03  0.90675602848E+02 0.  0.
    9000005    2    3    3    0    0  0.76471194758E+00 -0.43153902920E+02  0.25060283900E+03  0.25478799114E+03  0.15883746214E+02 0.  0.
         22    1    3    3    0    0 -0.76471194758E+00  0.43153902920E+02  0.16104511026E+03  0.16672843686E+03  0.00000000000E+00 0.  1.
         22    1    4    4    0    0  0.18676338393E+01 -0.26269110423E+02  0.10707065902E+03  0.11026187121E+03  0.00000000000E+00 0. -1.
         22    1    4    4    0    0 -0.11029218917E+01 -0.16884792496E+02  0.14353217998E+03  0.14452611994E+03  0.00000000000E+00 0. -1.
<mgrwt>
<rscale>  0 0.90675603E+02</rscale>
<asrwt>0</asrwt>
<pdfrwt beam="1">  1        1 0.64089606E-01 0.90675603E+02</pdfrwt>
<pdfrwt beam="2">  1       -1 0.75911330E-03 0.90675603E+02</pdfrwt>
<totfact> 0.13777440E+05</totfact>
</mgrwt>
</event>
<event>
 7    1  0.2787125E-009  0.9149731E+02  0.7818608E-02  0.1299266E+00
         -1   -1    0    0    0  501 -0.00000000000E+00  0.00000000000E+00  0.36949989003E+02  0.36949989347E+02  0.50400000000E-02 0.  1.
          1   -1    0    0  501    0  0.00000000000E+00 -0.00000000000E+00 -0.56642490745E+02  0.56642490970E+02  0.50400000000E-02 0. -1.
         23    2    1    2    0    0  0.55511151231E-16  0.00000000000E+00 -0.19692501742E+02  0.93592480317E+02  0.91497310053E+02 0.  0.
    9000005    2    3    3    0    0  0.21521396450E+00 -0.38656632189E+02 -0.32583037586E+02  0.52842665059E+02  0.15372422806E+02 0.  0.
         22    1    3    3    0    0 -0.21521396450E+00  0.38656632189E+02  0.12890535844E+02  0.40749815258E+02  0.00000000000E+00 0. -1.
         22    1    4    4    0    0  0.23227849392E+01  0.42215002103E-01 -0.42178040221E+01  0.48152863621E+01  0.00000000000E+00 0.  1.
         22    1    4    4    0    0 -0.21075709747E+01 -0.38698847191E+02 -0.28365233564E+02  0.48027378696E+02  0.00000000000E+00 0.  1.
<mgrwt>
<rscale>  0 0.91497310E+02</rscale>
<asrwt>0</asrwt>
<pdfrwt beam="2">  1        1 0.87142294E-02 0.91497310E+02</pdfrwt>
<pdfrwt beam="1">  1       -1 0.56846137E-02 0.91497310E+02</pdfrwt>
<totfact> 0.94608607E+04</totfact>
</mgrwt>
</event>
<event>
 7    1  0.2787125E-009  0.9220063E+02  0.7818608E-02  0.1297608E+00
         -1   -1    0    0    0  501 -0.00000000000E+00  0.00000000000E+00  0.99895787246E+00  0.99897058643E+00  0.50400000000E-02 0.  1.
          1   -1    0    0  501    0  0.00000000000E+00 -0.00000000000E+00 -0.21274424772E+04  0.21274424772E+04  0.50400000000E-02 0. -1.
         23    2    1    2    0    0  0.00000000000E+00  0.00000000000E+00 -0.21264435194E+04  0.21284414478E+04  0.92200627930E+02 0.  0.
    9000005    2    3    3    0    0  0.90506395306E+01  0.13661916097E+02 -0.20570608915E+04  0.20571497156E+04  0.98427254765E+01 0.  0.
         22    1    3    3    0    0 -0.90506395306E+01 -0.13661916097E+02 -0.69382627867E+02  0.71291732179E+02  0.00000000000E+00 0.  1.
         22    1    4    4    0    0  0.81702329792E+01  0.15148701617E+02 -0.19358056169E+04  0.19358821302E+04  0.00000000000E+00 0.  1.
         22    1    4    4    0    0  0.88040655149E+00 -0.14867855206E+01 -0.12125527464E+03  0.12126758543E+03  0.00000000000E+00 0.  1.
<mgrwt>
<rscale>  0 0.92200628E+02</rscale>
<asrwt>0</asrwt>
<pdfrwt beam="2">  1        1 0.32729522E+00 0.92200628E+02</pdfrwt>
<pdfrwt beam="1">  1       -1 0.15368851E-03 0.92200628E+02</pdfrwt>
<totfact> 0.70115620E+04</totfact>
</mgrwt>
</event>
<event>
 7    1  0.2787125E-009  0.8641787E+02  0.7818608E-02  0.1311766E+00
         -1   -1    0    0    0  501 -0.00000000000E+00  0.00000000000E+00  0.32101510607E+02  0.32101511003E+02  0.50400000000E-02 0.  1.
          1   -1    0    0  501    0  0.00000000000E+00 -0.00000000000E+00 -0.58159634968E+02  0.58159635187E+02  0.50400000000E-02 0. -1.
         23    2    1    2    0    0  0.00000000000E+00 -0.35527136788E-14 -0.26058124361E+02  0.90261146190E+02  0.86417872378E+02 0.  0.
    9000005    2    3    3    0    0 -0.13541729224E+02 -0.21486458741E+02 -0.48292658338E+02  0.56505837855E+02  0.14686133687E+02 0.  0.
         22    1    3    3    0    0  0.13541729224E+02  0.21486458741E+02  0.22234533977E+02  0.33755308335E+02  0.00000000000E+00 0.  1.
         22    1    4    4    0    0 -0.15936482720E+02 -0.13301411436E+02 -0.35720961213E+02  0.41314478063E+02  0.00000000000E+00 0. -1.
         22    1    4    4    0    0  0.23947534961E+01 -0.81850473053E+01 -0.12571697126E+02  0.15191359792E+02  0.00000000000E+00 0. -1.
<mgrwt>
<rscale>  0 0.86417872E+02</rscale>
<asrwt>0</asrwt>
<pdfrwt beam="2">  1        1 0.89476362E-02 0.86417872E+02</pdfrwt>
<pdfrwt beam="1">  1       -1 0.49386940E-02 0.86417872E+02</pdfrwt>
<totfact> 0.11123624E+05</totfact>
</mgrwt>
</event>
<event>
 7    1  0.2787125E-009  0.9404716E+02  0.7818608E-02  0.1293337E+00
          1   -1    0    0  501    0  0.00000000000E+00  0.00000000000E+00  0.21867792202E+02  0.21867792783E+02  0.50400000000E-02 0. -1.
         -1   -1    0    0    0  501 -0.00000000000E+00 -0.00000000000E+00 -0.10111753472E+03  0.10111753485E+03  0.50400000000E-02 0.  1.
         23    2    1    2    0    0 -0.17763568394E-14 -0.71054273576E-14 -0.79249742519E+02  0.12298532763E+03  0.94047164353E+02 0.  0.
    9000005    2    3    3    0    0 -0.15986273477E+02 -0.42359238610E+02 -0.51300711245E+02  0.69778050078E+02  0.13687485641E+02 0.  0.
         22    1    3    3    0    0  0.15986273477E+02  0.42359238610E+02 -0.27949031274E+02  0.53207277551E+02  0.00000000000E+00 0. -1.
         22    1    4    4    0    0 -0.50765922335E+01 -0.22304936234E+02 -0.16692838200E+02  0.28318418322E+02  0.00000000000E+00 0.  1.
         22    1    4    4    0    0 -0.10909681243E+02 -0.20054302376E+02 -0.34607873045E+02  0.41459631756E+02  0.00000000000E+00 0.  1.
<mgrwt>
<rscale>  0 0.94047164E+02</rscale>
<asrwt>0</asrwt>
<pdfrwt beam="1">  1        1 0.33642758E-02 0.94047164E+02</pdfrwt>
<pdfrwt beam="2">  1       -1 0.15556544E-01 0.94047164E+02</pdfrwt>
<totfact> 0.74962552E+04</totfact>
</mgrwt>
</event>
<event>
 7    1  0.2787125E-009  0.9438048E+02  0.7818608E-02  0.1292578E+00
          1   -1    0    0  501    0  0.00000000000E+00  0.00000000000E+00  0.44297671277E+02  0.44297671564E+02  0.50400000000E-02 0.  1.
         -1   -1    0    0    0  501 -0.00000000000E+00 -0.00000000000E+00 -0.50271684480E+02  0.50271684733E+02  0.50400000000E-02 0. -1.
         23    2    1    2    0    0  0.00000000000E+00  0.00000000000E+00 -0.59740132032E+01  0.94569356297E+02  0.94380476353E+02 0.  0.
    9000005    2    3    3    0    0 -0.22221514267E+02 -0.52908439298E+01  0.37969552319E+02  0.45043346195E+02  0.80887209962E+01 0.  0.
         22    1    3    3    0    0  0.22221514267E+02  0.52908439298E+01 -0.43943565522E+02  0.49526010102E+02  0.00000000000E+00 0. -1.
         22    1    4    4    0    0 -0.74326157876E+01 -0.56865770263E+01  0.16520865522E+02  0.18987362464E+02  0.00000000000E+00 0. -1.
         22    1    4    4    0    0 -0.14788898479E+02  0.39573309650E+00  0.21448686797E+02  0.26055983732E+02  0.00000000000E+00 0. -1.
<mgrwt>
<rscale>  0 0.94380476E+02</rscale>
<asrwt>0</asrwt>
<pdfrwt beam="1">  1        1 0.68150265E-02 0.94380476E+02</pdfrwt>
<pdfrwt beam="2">  1       -1 0.77341053E-02 0.94380476E+02</pdfrwt>
<totfact> 0.83525949E+04</totfact>
</mgrwt>
</event>
<event>
 7    1  0.2787125E-009  0.9094821E+02  0.7818608E-02  0.1300572E+00
         -1   -1    0    0    0  501 -0.00000000000E+00  0.00000000000E+00  0.11824382420E+03  0.11824382430E+03  0.50400000000E-02 0.  1.
          1   -1    0    0  501    0  0.00000000000E+00 -0.00000000000E+00 -0.17488390249E+02  0.17488390975E+02  0.50400000000E-02 0. -1.
         23    2    1    2    0    0 -0.35527136788E-14  0.00000000000E+00  0.10075543395E+03  0.13573221528E+03  0.90948209407E+02 0.  0.
    9000005    2    3    3    0    0  0.20679099863E+02  0.39422119680E+02  0.61296588652E+02  0.76244996792E+02  0.86196904913E+01 0.  0.
         22    1    3    3    0    0 -0.20679099863E+02 -0.39422119680E+02  0.39458845294E+02  0.59487218486E+02  0.00000000000E+00 0.  1.
         22    1    4    4    0    0  0.38313995605E+00  0.26506299730E+01  0.12212956155E+01  0.29435010549E+01  0.00000000000E+00 0.  1.
         22    1    4    4    0    0  0.20295959907E+02  0.36771489707E+02  0.60075293037E+02  0.73301495737E+02  0.00000000000E+00 0.  1.
<mgrwt>
<rscale>  0 0.90948209E+02</rscale>
<asrwt>0</asrwt>
<pdfrwt beam="2">  1        1 0.26905218E-02 0.90948209E+02</pdfrwt>
<pdfrwt beam="1">  1       -1 0.18191357E-01 0.90948209E+02</pdfrwt>
<totfact> 0.79279716E+04</totfact>
</mgrwt>
</event>
<event>
 7    1  0.2787125E-009  0.9177703E+02  0.7818608E-02  0.1298605E+00
          1   -1    0    0  501    0  0.00000000000E+00  0.00000000000E+00  0.38322637832E+03  0.38322637836E+03  0.50400000000E-02 0. -1.
         -1   -1    0    0    0  501 -0.00000000000E+00 -0.00000000000E+00 -0.54948077040E+01  0.54948100154E+01  0.50400000000E-02 0.  1.
         23    2    1    2    0    0 -0.44408920985E-15  0.00000000000E+00  0.37773157062E+03  0.38872118837E+03  0.91777027881E+02 0.  0.
    9000005    2    3    3    0    0  0.29590107482E+01  0.33428689687E+02  0.31963758703E+03  0.32163062296E+03  0.12322237631E+02 0.  0.
         22    1    3    3    0    0 -0.29590107482E+01 -0.33428689687E+02  0.58093983585E+02  0.67090565414E+02  0.00000000000E+00 0.  1.
         22    1    4    4    0    0  0.44492726795E+01  0.11897781183E+02  0.16588811310E+03  0.16637373378E+03  0.00000000000E+00 0.  1.
         22    1    4    4    0    0 -0.14902619313E+01  0.21530908505E+02  0.15374947393E+03  0.15525688917E+03  0.00000000000E+00 0.  1.
<mgrwt>
<rscale>  0 0.91777028E+02</rscale>
<asrwt>0</asrwt>
<pdfrwt beam="1">  1        1 0.58957903E-01 0.91777028E+02</pdfrwt>
<pdfrwt beam="2">  1       -1 0.84535523E-03 0.91777028E+02</pdfrwt>
<totfact> 0.13161480E+05</totfact>
</mgrwt>
</event>
<event>
 7    1  0.2787125E-009  0.9285186E+02  0.7818608E-02  0.1296089E+00
         -1   -1    0    0    0  501 -0.00000000000E+00  0.00000000000E+00  0.16174048597E+01  0.16174127123E+01  0.50400000000E-02 0.  1.
          1   -1    0    0  501    0  0.00000000000E+00 -0.00000000000E+00 -0.13326050146E+04  0.13326050146E+04  0.50400000000E-02 0. -1.
         23    2    1    2    0    0  0.00000000000E+00  0.00000000000E+00 -0.13309876098E+04  0.13342224274E+04  0.92851862053E+02 0.  0.
    9000005    2    3    3    0    0  0.17188222330E+02 -0.84913340496E+01 -0.12727221734E+04  0.12728840314E+04  0.66700097185E+01 0.  0.
         22    1    3    3    0    0 -0.17188222330E+02  0.84913340496E+01 -0.58265436415E+02  0.61338395980E+02  0.00000000000E+00 0.  1.
         22    1    4    4    0    0  0.94287635408E+01 -0.77249311001E+01 -0.88046720327E+03  0.88055157269E+03  0.00000000000E+00 0.  1.
         22    1    4    4    0    0  0.77594587892E+01 -0.76640294957E+00 -0.39225497009E+03  0.39233245868E+03  0.00000000000E+00 0.  1.
<mgrwt>
<rscale>  0 0.92851862E+02</rscale>
<asrwt>0</asrwt>
<pdfrwt beam="2">  1        1 0.20501528E+00 0.92851862E+02</pdfrwt>
<pdfrwt beam="1">  1       -1 0.24883319E-03 0.92851862E+02</pdfrwt>
<totfact> 0.11461050E+05</totfact>
</mgrwt>
</event>
<event>
 7    1  0.2787125E-009  0.9126653E+02  0.7818608E-02  0.1299813E+00
         -1   -1    0    0    0  501 -0.00000000000E+00  0.00000000000E+00  0.68064834906E+02  0.68064835092E+02  0.50400000000E-02 0.  1.
          1   -1    0    0  501    0  0.00000000000E+00 -0.00000000000E+00 -0.30594283486E+02  0.30594283902E+02  0.50400000000E-02 0. -1.
         23    2    1    2    0    0  0.00000000000E+00  0.00000000000E+00  0.37470551419E+02  0.98659118994E+02  0.91266530212E+02 0.  0.
    9000005    2    3    3    0    0 -0.29144864606E+02 -0.10287810721E+02  0.54110144109E+02  0.63557292443E+02  0.12504381028E+02 0.  0.
         22    1    3    3    0    0  0.29144864606E+02  0.10287810721E+02 -0.16639592690E+02  0.35101826551E+02  0.00000000000E+00 0. -1.
         22    1    4    4    0    0 -0.13100843201E+02  0.18220965395E+01  0.20617743325E+02  0.24495784702E+02  0.00000000000E+00 0. -1.
         22    1    4    4    0    0 -0.16044021405E+02 -0.12109907260E+02  0.33492400784E+02  0.39061507741E+02  0.00000000000E+00 0. -1.
<mgrwt>
<rscale>  0 0.91266530E+02</rscale>
<asrwt>0</asrwt>
<pdfrwt beam="2">  1        1 0.47068129E-02 0.91266530E+02</pdfrwt>
<pdfrwt beam="1">  1       -1 0.10471513E-01 0.91266530E+02</pdfrwt>
<totfact> 0.86713394E+04</totfact>
</mgrwt>
</event>
<event>
 7    1  0.2787125E-009  0.9207672E+02  0.7818608E-02  0.1297899E+00
         -1   -1    0    0    0  501 -0.00000000000E+00  0.00000000000E+00  0.93515437056E+01  0.93515450637E+01  0.50400000000E-02 0.  1.
          1   -1    0    0  501    0  0.00000000000E+00 -0.00000000000E+00 -0.22665032343E+03  0.22665032349E+03  0.50400000000E-02 0. -1.
         23    2    1    2    0    0  0.00000000000E+00  0.00000000000E+00 -0.21729877973E+03  0.23600186855E+03  0.92076719584E+02 0.  0.
    9000005    2    3    3    0    0  0.27619488594E+02 -0.26039610101E+02 -0.44183031676E+02  0.58773316485E+02  0.78271960628E+01 0.  0.
         22    1    3    3    0    0 -0.27619488594E+02  0.26039610101E+02 -0.17311574805E+03  0.17722855207E+03  0.00000000000E+00 0. -1.
         22    1    4    4    0    0  0.20220812326E+02 -0.23342098699E+02 -0.35246133059E+02  0.46861761793E+02  0.00000000000E+00 0.  1.
         22    1    4    4    0    0  0.73986762686E+01 -0.26975114024E+01 -0.89368986169E+01  0.11911554692E+02  0.00000000000E+00 0.  1.
<mgrwt>
<rscale>  0 0.92076720E+02</rscale>
<asrwt>0</asrwt>
<pdfrwt beam="2">  1        1 0.34869276E-01 0.92076720E+02</pdfrwt>
<pdfrwt beam="1">  1       -1 0.14386993E-02 0.92076720E+02</pdfrwt>
<totfact> 0.11817570E+05</totfact>
</mgrwt>
</event>
<event>
 7    1  0.2787125E-009  0.8941073E+02  0.7818608E-02  0.1304285E+00
         -1   -1    0    0    0  501 -0.00000000000E+00  0.00000000000E+00  0.19505394728E+01  0.19505459842E+01  0.50400000000E-02 0.  1.
          1   -1    0    0  501    0  0.00000000000E+00 -0.00000000000E+00 -0.10246222836E+04  0.10246222836E+04  0.50400000000E-02 0. -1.
         23    2    1    2    0    0  0.00000000000E+00  0.35527136788E-14 -0.10226717442E+04  0.10265728296E+04  0.89410727711E+02 0.  0.
    9000005    2    3    3    0    0 -0.17877276435E+02 -0.30749409505E+02 -0.81689670049E+03  0.81774636628E+03  0.11125515479E+02 0.  0.
         22    1    3    3    0    0  0.17877276435E+02  0.30749409505E+02 -0.20577504366E+03  0.20882646334E+03  0.00000000000E+00 0.  1.
         22    1    4    4    0    0 -0.19020884726E+02 -0.27416108782E+02 -0.76692201920E+03  0.76764758881E+03  0.00000000000E+00 0. -1.
         22    1    4    4    0    0  0.11436082913E+01 -0.33333007230E+01 -0.49974681298E+02  0.50098777475E+02  0.00000000000E+00 0. -1.
<mgrwt>
<rscale>  0 0.89410728E+02</rscale>
<asrwt>0</asrwt>
<pdfrwt beam="2">  1        1 0.15763377E+00 0.89410728E+02</pdfrwt>
<pdfrwt beam="1">  1       -1 0.30008432E-03 0.89410728E+02</pdfrwt>
<totfact> 0.14226282E+05</totfact>
</mgrwt>
</event>
<event>
 7    1  0.3164932E-009  0.8795999E+02  0.7818608E-02  0.1307868E+00
         -1   -1    0    0    0  501 -0.00000000000E+00  0.00000000000E+00  0.28686403756E+03  0.28686403760E+03  0.50400000000E-02 0.  1.
          1   -1    0    0  501    0  0.00000000000E+00 -0.00000000000E+00 -0.67427060420E+01  0.67427079256E+01  0.50400000000E-02 0. -1.
         23    2    1    2    0    0  0.00000000000E+00  0.00000000000E+00  0.28012133152E+03  0.29360674553E+03  0.87959994595E+02 0.  0.
    9000005    2    3    3    0    0  0.22118467969E+02  0.36424876803E+02  0.12705877626E+03  0.13472268686E+03  0.13793891987E+02 0.  0.
         22    1    3    3    0    0 -0.22118467969E+02 -0.36424876803E+02  0.15306255526E+03  0.15888405867E+03  0.00000000000E+00 0.  1.
         22    1    4    4    0    0  0.13880166856E+02  0.14207818011E+02  0.42600714244E+02  0.47003637931E+02  0.00000000000E+00 0.  1.
         22    1    4    4    0    0  0.82383011129E+01  0.22217058792E+02  0.84458062012E+02  0.87719048931E+02  0.00000000000E+00 0.  1.
<mgrwt>
<rscale>  0 0.87959995E+02</rscale>
<asrwt>0</asrwt>
<pdfrwt beam="2">  1        1 0.10373395E-02 0.87959995E+02</pdfrwt>
<pdfrwt beam="1">  1       -1 0.44132932E-01 0.87959995E+02</pdfrwt>
<totfact> 0.67701738E+04</totfact>
</mgrwt>
</event>
<event>
 7    1  0.2787125E-009  0.8945991E+02  0.7818608E-02  0.1304165E+00
         -1   -1    0    0    0  501 -0.00000000000E+00  0.00000000000E+00  0.16900608969E+02  0.16900609720E+02  0.50400000000E-02 0.  1.
          1   -1    0    0  501    0  0.00000000000E+00 -0.00000000000E+00 -0.11838441842E+03  0.11838441852E+03  0.50400000000E-02 0. -1.
         23    2    1    2    0    0  0.00000000000E+00 -0.35527136788E-14 -0.10148380945E+03  0.13528502824E+03  0.89459908825E+02 0.  0.
    9000005    2    3    3    0    0  0.19306702807E+02  0.20092755425E+02 -0.15303107430E+00  0.30192715301E+02  0.11623641637E+02 0.  0.
         22    1    3    3    0    0 -0.19306702807E+02 -0.20092755425E+02 -0.10133077837E+03  0.10509231294E+03  0.00000000000E+00 0. -1.
         22    1    4    4    0    0  0.16300357833E+02  0.19373640657E+02  0.33288677589E+01  0.25536659499E+02  0.00000000000E+00 0. -1.
         22    1    4    4    0    0  0.30063449735E+01  0.71911476789E+00 -0.34818988332E+01  0.46560558023E+01  0.00000000000E+00 0. -1.
<mgrwt>
<rscale>  0 0.89459909E+02</rscale>
<asrwt>0</asrwt>
<pdfrwt beam="2">  1        1 0.18212987E-01 0.89459909E+02</pdfrwt>
<pdfrwt beam="1">  1       -1 0.26000938E-02 0.89459909E+02</pdfrwt>
<totfact> 0.11316367E+05</totfact>
</mgrwt>
</event>
<event>
 7    1  0.2787125E-009  0.9001832E+02  0.7818608E-02  0.1302807E+00
         -1   -1    0    0    0  501 -0.00000000000E+00  0.00000000000E+00  0.28470349056E+02  0.28470349502E+02  0.50400000000E-02 0.  1.
          1   -1    0    0  501    0  0.00000000000E+00 -0.00000000000E+00 -0.71155583845E+02  0.71155584024E+02  0.50400000000E-02 0. -1.
         23    2    1    2    0    0  0.00000000000E+00  0.00000000000E+00 -0.42685234789E+02  0.99625933526E+02  0.90018316813E+02 0.  0.
    9000005    2    3    3    0    0 -0.39314758405E+02  0.74952288379E+01 -0.43352171395E+02  0.59597525011E+02  0.84039002236E+01 0.  0.
         22    1    3    3    0    0  0.39314758405E+02 -0.74952288379E+01  0.66693660593E+00  0.40028408515E+02  0.00000000000E+00 0. -1.
         22    1    4    4    0    0 -0.11861571118E+02 -0.14634882632E+01 -0.14261699371E+02  0.18607383917E+02  0.00000000000E+00 0. -1.
         22    1    4    4    0    0 -0.27453187287E+02  0.89587171011E+01 -0.29090472024E+02  0.40990141094E+02  0.00000000000E+00 0. -1.
<mgrwt>
<rscale>  0 0.90018317E+02</rscale>
<asrwt>0</asrwt>
<pdfrwt beam="2">  1        1 0.10947013E-01 0.90018317E+02</pdfrwt>
<pdfrwt beam="1">  1       -1 0.43800538E-02 0.90018317E+02</pdfrwt>
<totfact> 0.10245960E+05</totfact>
</mgrwt>
</event>
<event>
 7    1  0.2787125E-009  0.9058534E+02  0.7818608E-02  0.1301440E+00
         -1   -1    0    0    0  501 -0.00000000000E+00  0.00000000000E+00  0.23111281164E+02  0.23111281714E+02  0.50400000000E-02 0.  1.
          1   -1    0    0  501    0  0.00000000000E+00 -0.00000000000E+00 -0.88762973205E+02  0.88762973349E+02  0.50400000000E-02 0. -1.
         23    2    1    2    0    0  0.00000000000E+00 -0.35527136788E-14 -0.65651692041E+02  0.11187425506E+03  0.90585342511E+02 0.  0.
    9000005    2    3    3    0    0  0.22979668012E+02  0.23396968953E+02  0.21725455921E+01  0.36537607216E+02  0.15962251991E+02 0.  0.
         22    1    3    3    0    0 -0.22979668012E+02 -0.23396968953E+02 -0.67824237633E+02  0.75336647846E+02  0.00000000000E+00 0. -1.
         22    1    4    4    0    0  0.23319527701E+02  0.16721856461E+02 -0.18186099095E+01  0.28752881555E+02  0.00000000000E+00 0.  1.
         22    1    4    4    0    0 -0.33985968880E+00  0.66751124919E+01  0.39911555016E+01  0.77847256616E+01  0.00000000000E+00 0.  1.
<mgrwt>
<rscale>  0 0.90585343E+02</rscale>
<asrwt>0</asrwt>
<pdfrwt beam="2">  1        1 0.13655842E-01 0.90585343E+02</pdfrwt>
<pdfrwt beam="1">  1       -1 0.35555818E-02 0.90585343E+02</pdfrwt>
<totfact> 0.10426900E+05</totfact>
</mgrwt>
</event>
<event>
 7    1  0.2787125E-009  0.9531324E+02  0.7818608E-02  0.1290472E+00
          1   -1    0    0  501    0  0.00000000000E+00  0.00000000000E+00  0.13910766437E+02  0.13910767350E+02  0.50400000000E-02 0. -1.
         -1   -1    0    0    0  501 -0.00000000000E+00 -0.00000000000E+00 -0.16326588153E+03  0.16326588161E+03  0.50400000000E-02 0.  1.
         23    2    1    2    0    0  0.00000000000E+00 -0.17763568394E-14 -0.14935511509E+03  0.17717664896E+03  0.95313244260E+02 0.  0.
    9000005    2    3    3    0    0  0.40645181635E+02 -0.13368667379E+02 -0.37683304916E+02  0.57588416903E+02  0.81019895299E+01 0.  0.
         22    1    3    3    0    0 -0.40645181635E+02  0.13368667379E+02 -0.11167181018E+03  0.11958823206E+03  0.00000000000E+00 0. -1.
         22    1    4    4    0    0  0.18181782851E+02 -0.98612878262E+01 -0.15751380720E+02  0.25998619575E+02  0.00000000000E+00 0.  1.
         22    1    4    4    0    0  0.22463398784E+02 -0.35073795527E+01 -0.21931924195E+02  0.31589797327E+02  0.00000000000E+00 0.  1.
<mgrwt>
<rscale>  0 0.95313244E+02</rscale>
<asrwt>0</asrwt>
<pdfrwt beam="1">  1        1 0.21401181E-02 0.95313244E+02</pdfrwt>
<pdfrwt beam="2">  1       -1 0.25117827E-01 0.95313244E+02</pdfrwt>
<totfact> 0.65283623E+04</totfact>
</mgrwt>
</event>
<event>
 7    1  0.2787125E-009  0.9264855E+02  0.7818608E-02  0.1296562E+00
         -1   -1    0    0    0  501 -0.00000000000E+00  0.00000000000E+00  0.17068908799E+02  0.17068909543E+02  0.50400000000E-02 0.  1.
          1   -1    0    0  501    0  0.00000000000E+00 -0.00000000000E+00 -0.12572207231E+03  0.12572207242E+03  0.50400000000E-02 0. -1.
         23    2    1    2    0    0  0.00000000000E+00  0.00000000000E+00 -0.10865316352E+03  0.14279098196E+03  0.92648554154E+02 0.  0.
    9000005    2    3    3    0    0 -0.93537511443E+01 -0.39583464168E+02 -0.25856893640E+02  0.50543675216E+02  0.15223037133E+02 0.  0.
         22    1    3    3    0    0  0.93537511443E+01  0.39583464168E+02 -0.82796269876E+02  0.92247306743E+02  0.00000000000E+00 0.  1.
         22    1    4    4    0    0 -0.12451119547E+02 -0.33570642262E+02 -0.17681620232E+02  0.39933170346E+02  0.00000000000E+00 0. -1.
         22    1    4    4    0    0  0.30973684022E+01 -0.60128219064E+01 -0.81752734075E+01  0.10610504869E+02  0.00000000000E+00 0. -1.
<mgrwt>
<rscale>  0 0.92648554E+02</rscale>
<asrwt>0</asrwt>
<pdfrwt beam="2">  1        1 0.19341857E-01 0.92648554E+02</pdfrwt>
<pdfrwt beam="1">  1       -1 0.26259861E-02 0.92648554E+02</pdfrwt>
<totfact> 0.10400218E+05</totfact>
</mgrwt>
</event>
<event>
 7    1  0.2787125E-009  0.8683620E+02  0.7818608E-02  0.1310699E+00
         -1   -1    0    0    0  501 -0.00000000000E+00  0.00000000000E+00  0.30220655675E+03  0.30220655680E+03  0.50400000000E-02 0.  1.
          1   -1    0    0  501    0  0.00000000000E+00 -0.00000000000E+00 -0.62378895251E+01  0.62378915611E+01  0.50400000000E-02 0. -1.
         23    2    1    2    0    0  0.00000000000E+00  0.00000000000E+00  0.29596866723E+03  0.30844444836E+03  0.86836200637E+02 0.  0.
    9000005    2    3    3    0    0  0.32503224510E+02 -0.20679010034E+02  0.88759099600E+02  0.97684191248E+02  0.13414261014E+02 0.  0.
         22    1    3    3    0    0 -0.32503224510E+02  0.20679010034E+02  0.20720956763E+03  0.21076025711E+03  0.00000000000E+00 0.  1.
         22    1    4    4    0    0  0.44156883062E+01 -0.95461184389E+01  0.20644101993E+02  0.23169066178E+02  0.00000000000E+00 0. -1.
         22    1    4    4    0    0  0.28087536204E+02 -0.11132891595E+02  0.68114997607E+02  0.74515125071E+02  0.00000000000E+00 0. -1.
<mgrwt>
<rscale>  0 0.86836201E+02</rscale>
<asrwt>0</asrwt>
<pdfrwt beam="2">  1        1 0.95967539E-03 0.86836201E+02</pdfrwt>
<pdfrwt beam="1">  1       -1 0.46493321E-01 0.86836201E+02</pdfrwt>
<totfact> 0.68611665E+04</totfact>
</mgrwt>
</event>
<event>
 7    1  0.2787125E-009  0.9179603E+02  0.7818608E-02  0.1298560E+00
          1   -1    0    0  501    0  0.00000000000E+00  0.00000000000E+00  0.11426514013E+04  0.11426514013E+04  0.50400000000E-02 0. -1.
         -1   -1    0    0    0  501 -0.00000000000E+00 -0.00000000000E+00 -0.18436278739E+01  0.18436347629E+01  0.50400000000E-02 0.  1.
         23    2    1    2    0    0  0.17763568394E-14  0.88817841970E-15  0.11408077734E+04  0.11444950360E+04  0.91796033076E+02 0.  0.
    9000005    2    3    3    0    0  0.11869260392E+02  0.57650258286E+01  0.11177450473E+04  0.11179242965E+04  0.15054138403E+02 0.  0.
         22    1    3    3    0    0 -0.11869260392E+02 -0.57650258286E+01  0.23062726138E+02  0.26570739583E+02  0.00000000000E+00 0.  1.
         22    1    4    4    0    0  0.98990728123E+01  0.18462693031E+01  0.10442114436E+04  0.10442599960E+04  0.00000000000E+00 0.  1.
         22    1    4    4    0    0  0.19701875802E+01  0.39187565255E+01  0.73533603675E+02  0.73664300453E+02  0.00000000000E+00 0.  1.
<mgrwt>
<rscale>  0 0.91796033E+02</rscale>
<asrwt>0</asrwt>
<pdfrwt beam="1">  1        1 0.17579277E+00 0.91796033E+02</pdfrwt>
<pdfrwt beam="2">  1       -1 0.28363518E-03 0.91796033E+02</pdfrwt>
<totfact> 0.12776387E+05</totfact>
</mgrwt>
</event>
<event>
 7    1  0.2787125E-009  0.9014828E+02  0.7818608E-02  0.1302493E+00
          1   -1    0    0  501    0  0.00000000000E+00  0.00000000000E+00  0.79933530545E+03  0.79933530547E+03  0.50400000000E-02 0. -1.
         -1   -1    0    0    0  501 -0.00000000000E+00 -0.00000000000E+00 -0.25417069579E+01  0.25417119548E+01  0.50400000000E-02 0.  1.
         23    2    1    2    0    0  0.00000000000E+00  0.00000000000E+00  0.79679359850E+03  0.80187701742E+03  0.90148280458E+02 0.  0.
    9000005    2    3    3    0    0 -0.28316329874E+02  0.24316084623E+02  0.62059653422E+03  0.62177012703E+03  0.80589124102E+01 0.  0.
         22    1    3    3    0    0  0.28316329874E+02 -0.24316084623E+02  0.17619706428E+03  0.18010689040E+03  0.00000000000E+00 0.  1.
         22    1    4    4    0    0 -0.65798261647E+01  0.19080781280E+01  0.94328085077E+02  0.94576543121E+02  0.00000000000E+00 0.  1.
         22    1    4    4    0    0 -0.21736503709E+02  0.22408006495E+02  0.52626844914E+03  0.52719358391E+03  0.00000000000E+00 0.  1.
<mgrwt>
<rscale>  0 0.90148280E+02</rscale>
<asrwt>0</asrwt>
<pdfrwt beam="1">  1        1 0.12297457E+00 0.90148280E+02</pdfrwt>
<pdfrwt beam="2">  1       -1 0.39103251E-03 0.90148280E+02</pdfrwt>
<totfact> 0.14560892E+05</totfact>
</mgrwt>
</event>
<event>
 7    1  0.2787125E-009  0.9176042E+02  0.7818608E-02  0.1298644E+00
          1   -1    0    0  501    0  0.00000000000E+00  0.00000000000E+00  0.80707889479E+02  0.80707889636E+02  0.50400000000E-02 0. -1.
         -1   -1    0    0    0  501 -0.00000000000E+00 -0.00000000000E+00 -0.26081636516E+02  0.26081637003E+02  0.50400000000E-02 0.  1.
         23    2    1    2    0    0 -0.71054273576E-14 -0.17763568394E-14  0.54626252963E+02  0.10678952664E+03  0.91760424406E+02 0.  0.
    9000005    2    3    3    0    0  0.37247356802E+02  0.15017946377E+02  0.51700759966E+02  0.66522135224E+02  0.11803456759E+02 0.  0.
         22    1    3    3    0    0 -0.37247356802E+02 -0.15017946377E+02  0.29254929969E+01  0.40267391416E+02  0.00000000000E+00 0.  1.
         22    1    4    4    0    0  0.27257557496E+02  0.76095804249E+01  0.42464730495E+02  0.51030711252E+02  0.00000000000E+00 0. -1.
         22    1    4    4    0    0  0.99897993068E+01  0.74083659524E+01  0.92360294710E+01  0.15491423971E+02  0.00000000000E+00 0. -1.
<mgrwt>
<rscale>  0 0.91760424E+02</rscale>
<asrwt>0</asrwt>
<pdfrwt beam="1">  1        1 0.12416598E-01 0.91760424E+02</pdfrwt>
<pdfrwt beam="2">  1       -1 0.40125596E-02 0.91760424E+02</pdfrwt>
<totfact> 0.99131196E+04</totfact>
</mgrwt>
</event>
<event>
 7    1  0.2787125E-009  0.8894715E+02  0.7818608E-02  0.1305422E+00
          1   -1    0    0  501    0  0.00000000000E+00  0.00000000000E+00  0.92357151564E+02  0.92357151702E+02  0.50400000000E-02 0. -1.
         -1   -1    0    0    0  501 -0.00000000000E+00 -0.00000000000E+00 -0.21415762860E+02  0.21415763453E+02  0.50400000000E-02 0.  1.
         23    2    1    2    0    0  0.00000000000E+00  0.00000000000E+00  0.70941388704E+02  0.11377291515E+03  0.88947150552E+02 0.  0.
    9000005    2    3    3    0    0  0.19935764764E+02  0.31244308234E+02  0.65018183768E+02  0.76239918065E+02  0.14543705595E+02 0.  0.
         22    1    3    3    0    0 -0.19935764764E+02 -0.31244308234E+02  0.59232049368E+01  0.37532997089E+02  0.00000000000E+00 0.  1.
         22    1    4    4    0    0  0.13711508437E+02  0.19126502766E+02  0.26798384807E+02  0.35664856651E+02  0.00000000000E+00 0.  1.
         22    1    4    4    0    0  0.62242563265E+01  0.12117805468E+02  0.38219798961E+02  0.40575061414E+02  0.00000000000E+00 0.  1.
<mgrwt>
<rscale>  0 0.88947151E+02</rscale>
<asrwt>0</asrwt>
<pdfrwt beam="1">  1        1 0.14208793E-01 0.88947151E+02</pdfrwt>
<pdfrwt beam="2">  1       -1 0.32947328E-02 0.88947151E+02</pdfrwt>
<totfact> 0.11029045E+05</totfact>
</mgrwt>
</event>
<event>
 7    1  0.2787125E-009  0.5580897E+02  0.7818608E-02  0.1416311E+00
          1   -1    0    0  501    0  0.00000000000E+00  0.00000000000E+00  0.11559315860E+03  0.11559315871E+03  0.50400000000E-02 0. -1.
         -1   -1    0    0    0  501 -0.00000000000E+00 -0.00000000000E+00 -0.67362140612E+01  0.67362159467E+01  0.50400000000E-02 0.  1.
         23    2    1    2    0    0  0.00000000000E+00  0.35527136788E-14  0.10885694454E+03  0.12232937465E+03  0.55808973557E+02 0.  0.
    9000005    2    3    3    0    0  0.56206403257E+00 -0.22909098248E+02  0.88575790143E+02  0.91727611273E+02  0.65682091867E+01 0.  0.
         22    1    3    3    0    0 -0.56206403257E+00  0.22909098248E+02  0.20281154394E+02  0.30601763381E+02  0.00000000000E+00 0. -1.
         22    1    4    4    0    0  0.56267223464E-01 -0.19752384397E+02  0.64968427319E+02  0.67904759801E+02  0.00000000000E+00 0.  1.
         22    1    4    4    0    0  0.50579680910E+00 -0.31567138509E+01  0.23607362824E+02  0.23822851472E+02  0.00000000000E+00 0.  1.
<mgrwt>
<rscale>  0 0.55808974E+02</rscale>
<asrwt>0</asrwt>
<pdfrwt beam="1">  1        1 0.17783564E-01 0.55808974E+02</pdfrwt>
<pdfrwt beam="2">  1       -1 0.10363407E-02 0.55808974E+02</pdfrwt>
<totfact> 0.38977420E+05</totfact>
</mgrwt>
</event>
<event>
 7    1  0.2787125E-009  0.9164088E+02  0.7818608E-02  0.1298926E+00
          1   -1    0    0  501    0  0.00000000000E+00  0.00000000000E+00  0.60185603764E+02  0.60185603975E+02  0.50400000000E-02 0. -1.
         -1   -1    0    0    0  501 -0.00000000000E+00 -0.00000000000E+00 -0.34883969909E+02  0.34883970273E+02  0.50400000000E-02 0.  1.
         23    2    1    2    0    0 -0.88817841970E-15  0.00000000000E+00  0.25301633855E+02  0.95069574248E+02  0.91640882099E+02 0.  0.
    9000005    2    3    3    0    0 -0.69106700611E+01  0.80787319898E+01  0.57825443063E+02  0.60852306142E+02  0.15690698712E+02 0.  0.
         22    1    3    3    0    0  0.69106700611E+01 -0.80787319898E+01 -0.32523809208E+02  0.34217268106E+02  0.00000000000E+00 0.  1.
         22    1    4    4    0    0  0.33438620546E+01  0.61541681990E+01  0.35824636941E+02  0.36502874018E+02  0.00000000000E+00 0.  1.
         22    1    4    4    0    0 -0.10254532116E+02  0.19245637908E+01  0.22000806122E+02  0.24349432123E+02  0.00000000000E+00 0.  1.
<mgrwt>
<rscale>  0 0.91640882E+02</rscale>
<asrwt>0</asrwt>
<pdfrwt beam="1">  1        1 0.92593237E-02 0.91640882E+02</pdfrwt>
<pdfrwt beam="2">  1       -1 0.53667647E-02 0.91640882E+02</pdfrwt>
<totfact> 0.95066482E+04</totfact>
</mgrwt>
</event>
<event>
 7    1  0.2787125E-009  0.9218957E+02  0.7818608E-02  0.1297634E+00
          1   -1    0    0  501    0  0.00000000000E+00  0.00000000000E+00  0.19700228883E+03  0.19700228889E+03  0.50400000000E-02 0. -1.
         -1   -1    0    0    0  501 -0.00000000000E+00 -0.00000000000E+00 -0.10785301105E+02  0.10785302283E+02  0.50400000000E-02 0.  1.
         23    2    1    2    0    0  0.00000000000E+00  0.00000000000E+00  0.18621698772E+03  0.20778759118E+03  0.92189568443E+02 0.  0.
    9000005    2    3    3    0    0 -0.26079873531E+02 -0.28774249752E+02  0.40046685112E+02  0.56546476997E+02  0.92547188093E+01 0.  0.
         22    1    3    3    0    0  0.26079873531E+02  0.28774249752E+02  0.14617030261E+03  0.15124111418E+03  0.00000000000E+00 0. -1.
         22    1    4    4    0    0 -0.25113326082E+02 -0.24775527584E+02  0.32574658369E+02  0.48016812491E+02  0.00000000000E+00 0.  1.
         22    1    4    4    0    0 -0.96654744908E+00 -0.39987221672E+01  0.74720267431E+01  0.85296645064E+01  0.00000000000E+00 0.  1.
<mgrwt>
<rscale>  0 0.92189568E+02</rscale>
<asrwt>0</asrwt>
<pdfrwt beam="1">  1        1 0.30308046E-01 0.92189568E+02</pdfrwt>
<pdfrwt beam="2">  1       -1 0.16592771E-02 0.92189568E+02</pdfrwt>
<totfact> 0.11460825E+05</totfact>
</mgrwt>
</event>
<event>
 7    1  0.2787125E-009  0.9162309E+02  0.7818608E-02  0.1298968E+00
          1   -1    0    0  501    0  0.00000000000E+00  0.00000000000E+00  0.50847550046E+02  0.50847550296E+02  0.50400000000E-02 0. -1.
         -1   -1    0    0    0  501 -0.00000000000E+00 -0.00000000000E+00 -0.41274312867E+02  0.41274313175E+02  0.50400000000E-02 0.  1.
         23    2    1    2    0    0  0.00000000000E+00  0.00000000000E+00  0.95732371792E+01  0.92121863471E+02  0.91623091299E+02 0.  0.
    9000005    2    3    3    0    0  0.14333019764E+02  0.24148250463E+02 -0.30946115034E+02  0.42822863889E+02  0.93574665331E+01 0.  0.
         22    1    3    3    0    0 -0.14333019764E+02 -0.24148250463E+02  0.40519352213E+02  0.49298999582E+02  0.00000000000E+00 0. -1.
         22    1    4    4    0    0  0.11908030675E+02  0.11076088972E+02 -0.18150366672E+02  0.24370407297E+02  0.00000000000E+00 0. -1.
         22    1    4    4    0    0  0.24249890895E+01  0.13072161491E+02 -0.12795748362E+02  0.18452456592E+02  0.00000000000E+00 0. -1.
<mgrwt>
<rscale>  0 0.91623091E+02</rscale>
<asrwt>0</asrwt>
<pdfrwt beam="1">  1        1 0.78227001E-02 0.91623091E+02</pdfrwt>
<pdfrwt beam="2">  1       -1 0.63498943E-02 0.91623091E+02</pdfrwt>
<totfact> 0.92725772E+04</totfact>
</mgrwt>
</event>
<event>
 7    1  0.2787125E-009  0.9139401E+02  0.7818608E-02  0.1299511E+00
          1   -1    0    0  501    0  0.00000000000E+00  0.00000000000E+00  0.91306832033E+03  0.91306832034E+03  0.50400000000E-02 0. -1.
         -1   -1    0    0    0  501 -0.00000000000E+00 -0.00000000000E+00 -0.22870289968E+01  0.22870345502E+01  0.50400000000E-02 0.  1.
         23    2    1    2    0    0  0.00000000000E+00  0.17763568394E-14  0.91078129133E+03  0.91535535489E+03  0.91394010148E+02 0.  0.
    9000005    2    3    3    0    0  0.16930731968E+02 -0.13764686296E+02  0.85749584072E+03  0.85777536253E+03  0.18274118538E+01 0.  0.
         22    1    3    3    0    0 -0.16930731968E+02  0.13764686296E+02  0.53285450607E+02  0.57579992360E+02  0.00000000000E+00 0.  1.
         22    1    4    4    0    0  0.16457594849E+02 -0.12985063786E+02  0.81342488858E+03  0.81369497582E+03  0.00000000000E+00 0. -1.
         22    1    4    4    0    0  0.47313711863E+00 -0.77962251007E+00  0.44070952140E+02  0.44080386710E+02  0.00000000000E+00 0. -1.
<mgrwt>
<rscale>  0 0.91394010E+02</rscale>
<asrwt>0</asrwt>
<pdfrwt beam="1">  1        1 0.14047218E+00 0.91394010E+02</pdfrwt>
<pdfrwt beam="2">  1       -1 0.35185073E-03 0.91394010E+02</pdfrwt>
<totfact> 0.13794726E+05</totfact>
</mgrwt>
</event>
<event>
 7    1  0.2787125E-009  0.8978317E+02  0.7818608E-02  0.1303378E+00
         -1   -1    0    0    0  501 -0.00000000000E+00  0.00000000000E+00  0.17218797432E+03  0.17218797439E+03  0.50400000000E-02 0.  1.
          1   -1    0    0  501    0  0.00000000000E+00 -0.00000000000E+00 -0.11703804909E+02  0.11703805994E+02  0.50400000000E-02 0. -1.
         23    2    1    2    0    0  0.00000000000E+00  0.00000000000E+00  0.16048416941E+03  0.18389178039E+03  0.89783173605E+02 0.  0.
    9000005    2    3    3    0    0  0.27675463547E+02  0.13082792970E+01  0.11603225116E+02  0.32454735872E+02  0.12289514643E+02 0.  0.
         22    1    3    3    0    0 -0.27675463547E+02 -0.13082792970E+01  0.14888094430E+03  0.15143704452E+03  0.00000000000E+00 0.  1.
         22    1    4    4    0    0  0.47132250355E+00 -0.21134181744E+01  0.30357678886E+01  0.37288829367E+01  0.00000000000E+00 0. -1.
         22    1    4    4    0    0  0.27204141044E+02  0.34216974714E+01  0.85674572269E+01  0.28725852935E+02  0.00000000000E+00 0. -1.
<mgrwt>
<rscale>  0 0.89783174E+02</rscale>
<asrwt>0</asrwt>
<pdfrwt beam="2">  1        1 0.18005855E-02 0.89783174E+02</pdfrwt>
<pdfrwt beam="1">  1       -1 0.26490457E-01 0.89783174E+02</pdfrwt>
<totfact> 0.75253136E+04</totfact>
</mgrwt>
</event>
<event>
 7    1  0.2787125E-009  0.8882793E+02  0.7818608E-02  0.1305715E+00
         -1   -1    0    0    0  501 -0.00000000000E+00  0.00000000000E+00  0.66673123215E+01  0.66673142264E+01  0.50400000000E-02 0.  1.
          1   -1    0    0  501    0  0.00000000000E+00 -0.00000000000E+00 -0.29586135240E+03  0.29586135245E+03  0.50400000000E-02 0. -1.
         23    2    1    2    0    0 -0.17763568394E-14  0.00000000000E+00 -0.28919404008E+03  0.30252866667E+03  0.88827931080E+02 0.  0.
    9000005    2    3    3    0    0  0.93710685433E+01  0.54024510936E+01 -0.29112976961E+03  0.29154001561E+03  0.11046924646E+02 0.  0.
         22    1    3    3    0    0 -0.93710685433E+01 -0.54024510936E+01  0.19357295263E+01  0.10988651066E+02  0.00000000000E+00 0.  1.
         22    1    4    4    0    0 -0.53652281845E+00 -0.25776966167E+01 -0.64151796223E+02  0.64205804529E+02  0.00000000000E+00 0.  1.
         22    1    4    4    0    0  0.99075913618E+01  0.79801477103E+01 -0.22697797339E+03  0.22733421108E+03  0.00000000000E+00 0.  1.
<mgrwt>
<rscale>  0 0.88827931E+02</rscale>
<asrwt>0</asrwt>
<pdfrwt beam="2">  1        1 0.45517121E-01 0.88827931E+02</pdfrwt>
<pdfrwt beam="1">  1       -1 0.10257407E-02 0.88827931E+02</pdfrwt>
<totfact> 0.13696898E+05</totfact>
</mgrwt>
</event>
<event>
 7    1  0.2787125E-009  0.9449910E+02  0.7818608E-02  0.1292308E+00
          1   -1    0    0  501    0  0.00000000000E+00  0.00000000000E+00  0.71294838669E+03  0.71294838670E+03  0.50400000000E-02 0. -1.
         -1   -1    0    0    0  501 -0.00000000000E+00 -0.00000000000E+00 -0.31313884695E+01  0.31313925255E+01  0.50400000000E-02 0.  1.
         23    2    1    2    0    0  0.00000000000E+00  0.00000000000E+00  0.70981699822E+03  0.71607977923E+03  0.94499096631E+02 0.  0.
    9000005    2    3    3    0    0 -0.18940518407E+02 -0.37438616252E+02  0.51037427356E+03  0.51227155161E+03  0.13410826191E+02 0.  0.
         22    1    3    3    0    0  0.18940518407E+02  0.37438616252E+02  0.19944272466E+03  0.20380822762E+03  0.00000000000E+00 0.  1.
         22    1    4    4    0    0 -0.12093682489E+01 -0.16574315820E+02  0.18120121912E+03  0.18196167818E+03  0.00000000000E+00 0. -1.
         22    1    4    4    0    0 -0.17731150159E+02 -0.20864300432E+02  0.32917305444E+03  0.33030987343E+03  0.00000000000E+00 0. -1.
<mgrwt>
<rscale>  0 0.94499097E+02</rscale>
<asrwt>0</asrwt>
<pdfrwt beam="1">  1        1 0.10968454E+00 0.94499097E+02</pdfrwt>
<pdfrwt beam="2">  1       -1 0.48175162E-03 0.94499097E+02</pdfrwt>
<totfact> 0.12927954E+05</totfact>
</mgrwt>
</event>
<event>
 7    1  0.2787125E-009  0.9113369E+02  0.7818608E-02  0.1300129E+00
          1   -1    0    0  501    0  0.00000000000E+00  0.00000000000E+00  0.15170973999E+03  0.15170974007E+03  0.50400000000E-02 0.  1.
         -1   -1    0    0    0  501 -0.00000000000E+00 -0.00000000000E+00 -0.13686247731E+02  0.13686248659E+02  0.50400000000E-02 0. -1.
         23    2    1    2    0    0  0.00000000000E+00  0.00000000000E+00  0.13802349226E+03  0.16539598873E+03  0.91133685723E+02 0.  0.
    9000005    2    3    3    0    0 -0.43026160244E+02  0.10254168348E+02  0.88222787388E+02  0.98788867195E+02  0.44251139430E+01 0.  0.
         22    1    3    3    0    0  0.43026160244E+02 -0.10254168348E+02  0.49800704872E+02  0.66607121538E+02  0.00000000000E+00 0.  1.
         22    1    4    4    0    0 -0.11418644377E+02  0.46010676061E+01  0.26160579287E+02  0.28912474318E+02  0.00000000000E+00 0.  1.
         22    1    4    4    0    0 -0.31607515866E+02  0.56531007423E+01  0.62062208101E+02  0.69876392878E+02  0.00000000000E+00 0.  1.
<mgrwt>
<rscale>  0 0.91133686E+02</rscale>
<asrwt>0</asrwt>
<pdfrwt beam="1">  1        1 0.23339961E-01 0.91133686E+02</pdfrwt>
<pdfrwt beam="2">  1       -1 0.21055766E-02 0.91133686E+02</pdfrwt>
<totfact> 0.11251057E+05</totfact>
</mgrwt>
</event>
<event>
 7    1  0.2787125E-009  0.8979399E+02  0.7818608E-02  0.1303351E+00
          1   -1    0    0  501    0  0.00000000000E+00  0.00000000000E+00  0.60938056255E+02  0.60938056463E+02  0.50400000000E-02 0. -1.
         -1   -1    0    0    0  501 -0.00000000000E+00 -0.00000000000E+00 -0.33078507246E+02  0.33078507630E+02  0.50400000000E-02 0.  1.
         23    2    1    2    0    0  0.00000000000E+00  0.00000000000E+00  0.27859549009E+02  0.94016564093E+02  0.89793985616E+02 0.  0.
    9000005    2    3    3    0    0 -0.27780192826E+02 -0.33454527834E+02  0.14489189551E+02  0.48522486918E+02  0.15923271548E+02 0.  0.
         22    1    3    3    0    0  0.27780192826E+02  0.33454527834E+02  0.13370359458E+02  0.45494077176E+02  0.00000000000E+00 0.  1.
         22    1    4    4    0    0 -0.24109156326E+02 -0.31433313334E+02  0.17555160641E+02  0.43329992742E+02  0.00000000000E+00 0. -1.
         22    1    4    4    0    0 -0.36710364999E+01 -0.20212145002E+01 -0.30659710902E+01  0.51924941758E+01  0.00000000000E+00 0. -1.
<mgrwt>
<rscale>  0 0.89793986E+02</rscale>
<asrwt>0</asrwt>
<pdfrwt beam="1">  1        1 0.93750856E-02 0.89793986E+02</pdfrwt>
<pdfrwt beam="2">  1       -1 0.50890012E-02 0.89793986E+02</pdfrwt>
<totfact> 0.10077015E+05</totfact>
</mgrwt>
</event>
<event>
 7    1  0.2787125E-009  0.9071858E+02  0.7818608E-02  0.1301121E+00
         -1   -1    0    0    0  501 -0.00000000000E+00  0.00000000000E+00  0.17812276524E+02  0.17812277237E+02  0.50400000000E-02 0.  1.
          1   -1    0    0  501    0  0.00000000000E+00 -0.00000000000E+00 -0.11550826128E+03  0.11550826139E+03  0.50400000000E-02 0. -1.
         23    2    1    2    0    0  0.00000000000E+00 -0.17763568394E-14 -0.97695984756E+02  0.13332053863E+03  0.90718579037E+02 0.  0.
    9000005    2    3    3    0    0  0.15384357851E+02 -0.15348812508E+02 -0.10702841357E+03  0.10966977248E+03  0.10005656940E+02 0.  0.
         22    1    3    3    0    0 -0.15384357851E+02  0.15348812508E+02  0.93324288184E+01  0.23650766152E+02  0.00000000000E+00 0.  1.
         22    1    4    4    0    0  0.16417973897E+02 -0.11809982202E+02 -0.89161766614E+02  0.91426725700E+02  0.00000000000E+00 0. -1.
         22    1    4    4    0    0 -0.10336160460E+01 -0.35388303068E+01 -0.17866646960E+02  0.18243046776E+02  0.00000000000E+00 0. -1.
<mgrwt>
<rscale>  0 0.90718579E+02</rscale>
<asrwt>0</asrwt>
<pdfrwt beam="2">  1        1 0.17770501E-01 0.90718579E+02</pdfrwt>
<pdfrwt beam="1">  1       -1 0.27403504E-02 0.90718579E+02</pdfrwt>
<totfact> 0.10850358E+05</totfact>
</mgrwt>
</event>
<event>
 7    1  0.2787125E-009  0.8913803E+02  0.7818608E-02  0.1304953E+00
         -1   -1    0    0    0  501 -0.00000000000E+00  0.00000000000E+00  0.60833085920E+01  0.60833106798E+01  0.50400000000E-02 0.  1.
          1   -1    0    0  501    0  0.00000000000E+00 -0.00000000000E+00 -0.32653230354E+03  0.32653230358E+03  0.50400000000E-02 0. -1.
         23    2    1    2    0    0  0.00000000000E+00  0.00000000000E+00 -0.32044899495E+03  0.33261561426E+03  0.89138030523E+02 0.  0.
    9000005    2    3    3    0    0  0.31463189243E+01 -0.29860668147E+02 -0.28256675411E+03  0.28427698586E+03  0.82386488340E+01 0.  0.
         22    1    3    3    0    0 -0.31463189243E+01  0.29860668147E+02 -0.37882240841E+02  0.48338628405E+02  0.00000000000E+00 0.  1.
         22    1    4    4    0    0  0.31465941075E+01 -0.68235448617E+01 -0.95929960206E+02  0.96223796870E+02  0.00000000000E+00 0. -1.
         22    1    4    4    0    0 -0.27518324970E-03 -0.23037123285E+02 -0.18663679390E+03  0.18805318899E+03  0.00000000000E+00 0. -1.
<mgrwt>
<rscale>  0 0.89138031E+02</rscale>
<asrwt>0</asrwt>
<pdfrwt beam="2">  1        1 0.50235725E-01 0.89138031E+02</pdfrwt>
<pdfrwt beam="1">  1       -1 0.93589405E-03 0.89138031E+02</pdfrwt>
<totfact> 0.13824132E+05</totfact>
</mgrwt>
</event>
<event>
 7    1  0.2787125E-009  0.8794123E+02  0.7818608E-02  0.1307915E+00
          1   -1    0    0  501    0  0.00000000000E+00  0.00000000000E+00  0.51044768060E+02  0.51044768309E+02  0.50400000000E-02 0. -1.
         -1   -1    0    0    0  501 -0.00000000000E+00 -0.00000000000E+00 -0.37876848209E+02  0.37876848544E+02  0.50400000000E-02 0.  1.
         23    2    1    2    0    0  0.71054273576E-14  0.17763568394E-14  0.13167919851E+02  0.88921616854E+02  0.87941229413E+02 0.  0.
    9000005    2    3    3    0    0  0.39493491405E+02  0.10896768593E+02 -0.62283637917E+01  0.43592914597E+02  0.13530493650E+02 0.  0.
         22    1    3    3    0    0 -0.39493491405E+02 -0.10896768593E+02  0.19396283643E+02  0.45328702257E+02  0.00000000000E+00 0. -1.
         22    1    4    4    0    0  0.16212372889E+02 -0.75655891622E+00 -0.66881694438E+01  0.17554060117E+02  0.00000000000E+00 0. -1.
         22    1    4    4    0    0  0.23281118515E+02  0.11653327509E+02  0.45980565209E+00  0.26038854479E+02  0.00000000000E+00 0. -1.
<mgrwt>
<rscale>  0 0.87941229E+02</rscale>
<asrwt>0</asrwt>
<pdfrwt beam="1">  1        1 0.78530413E-02 0.87941229E+02</pdfrwt>
<pdfrwt beam="2">  1       -1 0.58272075E-02 0.87941229E+02</pdfrwt>
<totfact> 0.10400178E+05</totfact>
</mgrwt>
</event>
<event>
 7    1  0.2787125E-009  0.9031891E+02  0.7818608E-02  0.1302081E+00
         -1   -1    0    0    0  501 -0.00000000000E+00  0.00000000000E+00  0.38199714229E+01  0.38199747478E+01  0.50400000000E-02 0.  1.
          1   -1    0    0  501    0  0.00000000000E+00 -0.00000000000E+00 -0.53387195692E+03  0.53387195695E+03  0.50400000000E-02 0. -1.
         23    2    1    2    0    0  0.00000000000E+00  0.00000000000E+00 -0.53005198550E+03  0.53769193169E+03  0.90318913174E+02 0.  0.
    9000005    2    3    3    0    0 -0.37925866619E+02 -0.21604531163E+02 -0.29960326638E+03  0.30314611683E+03  0.15176422469E+02 0.  0.
         22    1    3    3    0    0  0.37925866619E+02  0.21604531163E+02 -0.23044871912E+03  0.23454581486E+03  0.00000000000E+00 0. -1.
         22    1    4    4    0    0 -0.10213786250E+02  0.18260233954E+00 -0.47175249760E+02  0.48268612608E+02  0.00000000000E+00 0. -1.
         22    1    4    4    0    0 -0.27712080370E+02 -0.21787133503E+02 -0.25242801662E+03  0.25487750423E+03  0.00000000000E+00 0. -1.
<mgrwt>
<rscale>  0 0.90318913E+02</rscale>
<asrwt>0</asrwt>
<pdfrwt beam="2">  1        1 0.82134089E-01 0.90318913E+02</pdfrwt>
<pdfrwt beam="1">  1       -1 0.58768859E-03 0.90318913E+02</pdfrwt>
<totfact> 0.14381757E+05</totfact>
</mgrwt>
</event>
<event>
 7    1  0.2787125E-009  0.8449067E+02  0.7818608E-02  0.1316770E+00
         -1   -1    0    0    0  501 -0.00000000000E+00  0.00000000000E+00  0.26566920000E+01  0.26566967806E+01  0.50400000000E-02 0.  1.
          1   -1    0    0  501    0  0.00000000000E+00 -0.00000000000E+00 -0.67176277977E+03  0.67176277979E+03  0.50400000000E-02 0. -1.
         23    2    1    2    0    0  0.35527136788E-14  0.88817841970E-15 -0.66910608777E+03  0.67441947657E+03  0.84490672180E+02 0.  0.
    9000005    2    3    3    0    0 -0.28325132008E+02 -0.47247729647E+01 -0.57908131730E+03  0.57992558322E+03  0.12404573351E+02 0.  0.
         22    1    3    3    0    0  0.28325132008E+02  0.47247729647E+01 -0.90024770463E+02  0.94493893347E+02  0.00000000000E+00 0.  1.
         22    1    4    4    0    0 -0.69930903681E+01  0.13655273114E+01 -0.70135645679E+02  0.70496643698E+02  0.00000000000E+00 0.  1.
         22    1    4    4    0    0 -0.21332041640E+02 -0.60903002761E+01 -0.50894567162E+03  0.50942893952E+03  0.00000000000E+00 0.  1.
<mgrwt>
<rscale>  0 0.84490672E+02</rscale>
<asrwt>0</asrwt>
<pdfrwt beam="2">  1        1 0.10334799E+00 0.84490672E+02</pdfrwt>
<pdfrwt beam="1">  1       -1 0.40872275E-03 0.84490672E+02</pdfrwt>
<totfact> 0.17376572E+05</totfact>
</mgrwt>
</event>
<event>
 7    1  0.2787125E-009  0.9077623E+02  0.7818608E-02  0.1300983E+00
          1   -1    0    0  501    0  0.00000000000E+00  0.00000000000E+00  0.89490500500E+03  0.89490500502E+03  0.50400000000E-02 0. -1.
         -1   -1    0    0    0  501 -0.00000000000E+00 -0.00000000000E+00 -0.23020082410E+01  0.23020137582E+01  0.50400000000E-02 0.  1.
         23    2    1    2    0    0  0.35527136788E-14 -0.17763568394E-14  0.89260299676E+03  0.89720701878E+03  0.90776234287E+02 0.  0.
    9000005    2    3    3    0    0 -0.28827135540E+02 -0.11212043727E+02  0.77440022819E+03  0.77502433520E+03  0.32082801475E+01 0.  0.
         22    1    3    3    0    0  0.28827135540E+02  0.11212043727E+02  0.11820276858E+03  0.12218268358E+03  0.00000000000E+00 0.  1.
         22    1    4    4    0    0 -0.24874969810E+02 -0.84795876969E+01  0.64692054651E+03  0.64745413816E+03  0.00000000000E+00 0.  1.
         22    1    4    4    0    0 -0.39521657301E+01 -0.27324560296E+01  0.12747968168E+03  0.12757019703E+03  0.00000000000E+00 0.  1.
<mgrwt>
<rscale>  0 0.90776234E+02</rscale>
<asrwt>0</asrwt>
<pdfrwt beam="1">  1        1 0.13767794E+00 0.90776234E+02</pdfrwt>
<pdfrwt beam="2">  1       -1 0.35415490E-03 0.90776234E+02</pdfrwt>
<totfact> 0.14094195E+05</totfact>
</mgrwt>
</event>
<event>
 7    1  0.2787125E-009  0.9988242E+02  0.7818608E-02  0.1280543E+00
         -1   -1    0    0    0  501 -0.00000000000E+00  0.00000000000E+00  0.29965506449E+02  0.29965506873E+02  0.50400000000E-02 0.  1.
          1   -1    0    0  501    0  0.00000000000E+00 -0.00000000000E+00 -0.83233181529E+02  0.83233181682E+02  0.50400000000E-02 0. -1.
         23    2    1    2    0    0 -0.17763568394E-14  0.00000000000E+00 -0.53267675080E+02  0.11319868855E+03  0.99882420285E+02 0.  0.
    9000005    2    3    3    0    0 -0.14341773545E+02  0.28357946800E+01  0.27375358082E+02  0.31241217892E+02  0.35882119988E+01 0.  0.
         22    1    3    3    0    0  0.14341773545E+02 -0.28357946800E+01 -0.80643033162E+02  0.81957470663E+02  0.00000000000E+00 0. -1.
         22    1    4    4    0    0 -0.98884794903E+01  0.30414109300E+01  0.16344827633E+02  0.19343877518E+02  0.00000000000E+00 0. -1.
         22    1    4    4    0    0 -0.44532940542E+01 -0.20561625003E+00  0.11030530449E+02  0.11897340373E+02  0.00000000000E+00 0. -1.
<mgrwt>
<rscale>  0 0.99882420E+02</rscale>
<asrwt>0</asrwt>
<pdfrwt beam="2">  1        1 0.12805105E-01 0.99882420E+02</pdfrwt>
<pdfrwt beam="1">  1       -1 0.46100780E-02 0.99882420E+02</pdfrwt>
<totfact> 0.78815772E+04</totfact>
</mgrwt>
</event>
<event>
 7    1  0.2787125E-009  0.9064586E+02  0.7818608E-02  0.1301295E+00
          1   -1    0    0  501    0  0.00000000000E+00  0.00000000000E+00  0.34498140919E+03  0.34498140923E+03  0.50400000000E-02 0. -1.
         -1   -1    0    0    0  501 -0.00000000000E+00 -0.00000000000E+00 -0.59544304943E+01  0.59544326273E+01  0.50400000000E-02 0.  1.
         23    2    1    2    0    0  0.00000000000E+00  0.00000000000E+00  0.33902697870E+03  0.35093584186E+03  0.90645864850E+02 0.  0.
    9000005    2    3    3    0    0 -0.38752969148E+02  0.18583543382E+02  0.22426842567E+03  0.22839333415E+03  0.44774577971E+01 0.  0.
         22    1    3    3    0    0  0.38752969148E+02 -0.18583543382E+02  0.11475855303E+03  0.12254250771E+03  0.00000000000E+00 0.  1.
         22    1    4    4    0    0 -0.72336502946E+01  0.22773238435E+01  0.32947655395E+02  0.33809168823E+02  0.00000000000E+00 0.  1.
         22    1    4    4    0    0 -0.31519318853E+02  0.16306219538E+02  0.19132077027E+03  0.19458416532E+03  0.00000000000E+00 0.  1.
<mgrwt>
<rscale>  0 0.90645865E+02</rscale>
<asrwt>0</asrwt>
<pdfrwt beam="1">  1        1 0.53074066E-01 0.90645865E+02</pdfrwt>
<pdfrwt beam="2">  1       -1 0.91606635E-03 0.90645865E+02</pdfrwt>
<totfact> 0.13354891E+05</totfact>
</mgrwt>
</event>
<event>
 7    1  0.2787125E-009  0.9122662E+02  0.7818608E-02  0.1299908E+00
         -1   -1    0    0    0  501 -0.00000000000E+00  0.00000000000E+00  0.15423426734E+03  0.15423426743E+03  0.50400000000E-02 0.  1.
          1   -1    0    0  501    0  0.00000000000E+00 -0.00000000000E+00 -0.13489699208E+02  0.13489700150E+02  0.50400000000E-02 0. -1.
         23    2    1    2    0    0  0.00000000000E+00  0.00000000000E+00  0.14074456814E+03  0.16772396758E+03  0.91226618044E+02 0.  0.
    9000005    2    3    3    0    0  0.34112408259E+02  0.11932212442E+02  0.12061321674E+03  0.12635604038E+03  0.10595602821E+02 0.  0.
         22    1    3    3    0    0 -0.34112408259E+02 -0.11932212442E+02  0.20131351399E+02  0.41367927192E+02  0.00000000000E+00 0. -1.
         22    1    4    4    0    0  0.78311568251E+01  0.55236830023E+01  0.46070823583E+02  0.47056974794E+02  0.00000000000E+00 0.  1.
         22    1    4    4    0    0  0.26281251434E+02  0.64085294396E+01  0.74542393153E+02  0.79299065590E+02  0.00000000000E+00 0.  1.
<mgrwt>
<rscale>  0 0.91226618E+02</rscale>
<asrwt>0</asrwt>
<pdfrwt beam="2">  1        1 0.20753384E-02 0.91226618E+02</pdfrwt>
<pdfrwt beam="1">  1       -1 0.23728349E-01 0.91226618E+02</pdfrwt>
<totfact> 0.74192947E+04</totfact>
</mgrwt>
</event>
<event>
 7    1  0.2787125E-009  0.9069096E+02  0.7818608E-02  0.1301187E+00
          1   -1    0    0  501    0  0.00000000000E+00  0.00000000000E+00  0.81436353335E+02  0.81436353491E+02  0.50400000000E-02 0. -1.
         -1   -1    0    0    0  501 -0.00000000000E+00 -0.00000000000E+00 -0.25249319312E+02  0.25249319815E+02  0.50400000000E-02 0.  1.
         23    2    1    2    0    0  0.22204460493E-15  0.00000000000E+00  0.56187034023E+02  0.10668567331E+03  0.90690959288E+02 0.  0.
    9000005    2    3    3    0    0 -0.12279225727E+01 -0.41402891160E+02  0.47068217406E+02  0.64272703512E+02  0.14137048374E+02 0.  0.
         22    1    3    3    0    0  0.12279225727E+01  0.41402891160E+02  0.91188166169E+01  0.42412969794E+02  0.00000000000E+00 0.  1.
         22    1    4    4    0    0 -0.22962132087E+01 -0.28567613426E+02  0.22146023284E+02  0.36219159008E+02  0.00000000000E+00 0.  1.
         22    1    4    4    0    0  0.10682906360E+01 -0.12835277734E+02  0.24922194122E+02  0.28053544505E+02  0.00000000000E+00 0.  1.
<mgrwt>
<rscale>  0 0.90690959E+02</rscale>
<asrwt>0</asrwt>
<pdfrwt beam="1">  1        1 0.12528670E-01 0.90690959E+02</pdfrwt>
<pdfrwt beam="2">  1       -1 0.38845107E-02 0.90690959E+02</pdfrwt>
<totfact> 0.10251861E+05</totfact>
</mgrwt>
</event>
<event>
 7    1  0.2787125E-009  0.9179912E+02  0.7818608E-02  0.1298552E+00
         -1   -1    0    0    0  501 -0.00000000000E+00  0.00000000000E+00  0.24956281266E+03  0.24956281271E+03  0.50400000000E-02 0.  1.
          1   -1    0    0  501    0  0.00000000000E+00 -0.00000000000E+00 -0.84418394058E+01  0.84418409104E+01  0.50400000000E-02 0. -1.
         23    2    1    2    0    0  0.00000000000E+00 -0.17763568394E-14  0.24112097325E+03  0.25800465362E+03  0.91799115176E+02 0.  0.
    9000005    2    3    3    0    0 -0.42893015724E+02  0.10318536349E+02  0.15558988145E+03  0.16176614441E+03  0.37136608381E+01 0.  0.
         22    1    3    3    0    0  0.42893015724E+02 -0.10318536349E+02  0.85531091804E+02  0.96238509212E+02  0.00000000000E+00 0. -1.
         22    1    4    4    0    0 -0.35927477346E+02  0.80007638852E+01  0.12491017868E+03  0.13022038469E+03  0.00000000000E+00 0.  1.
         22    1    4    4    0    0 -0.69655383778E+01  0.23177724641E+01  0.30679702768E+02  0.31545759715E+02  0.00000000000E+00 0.  1.
<mgrwt>
<rscale>  0 0.91799115E+02</rscale>
<asrwt>0</asrwt>
<pdfrwt beam="2">  1        1 0.12987448E-02 0.91799115E+02</pdfrwt>
<pdfrwt beam="1">  1       -1 0.38394275E-01 0.91799115E+02</pdfrwt>
<totfact> 0.63661502E+04</totfact>
</mgrwt>
</event>
<event>
 7    1  0.2787125E-009  0.9067468E+02  0.7818608E-02  0.1301226E+00
          1   -1    0    0  501    0  0.00000000000E+00  0.00000000000E+00  0.89145512037E+02  0.89145512180E+02  0.50400000000E-02 0. -1.
         -1   -1    0    0    0  501 -0.00000000000E+00 -0.00000000000E+00 -0.23057521718E+02  0.23057522269E+02  0.50400000000E-02 0.  1.
         23    2    1    2    0    0  0.00000000000E+00 -0.35527136788E-14  0.66087990319E+02  0.11220303445E+03  0.90674684864E+02 0.  0.
    9000005    2    3    3    0    0  0.15698831177E+02 -0.30658105340E+02  0.68777068905E+02  0.77654461873E+02  0.10656337002E+02 0.  0.
         22    1    3    3    0    0 -0.15698831177E+02  0.30658105340E+02 -0.26890785865E+01  0.34548572576E+02  0.00000000000E+00 0.  1.
         22    1    4    4    0    0  0.84798828289E+01 -0.23197068458E+02  0.55903189519E+02  0.61116110775E+02  0.00000000000E+00 0.  1.
         22    1    4    4    0    0  0.72189483484E+01 -0.74610368820E+01  0.12873879386E+02  0.16538351099E+02  0.00000000000E+00 0.  1.
<mgrwt>
<rscale>  0 0.90674685E+02</rscale>
<asrwt>0</asrwt>
<pdfrwt beam="1">  1        1 0.13714694E-01 0.90674685E+02</pdfrwt>
<pdfrwt beam="2">  1       -1 0.35473111E-02 0.90674685E+02</pdfrwt>
<totfact> 0.10406083E+05</totfact>
</mgrwt>
</event>
<event>
 7    1  0.2787125E-009  0.9119209E+02  0.7818608E-02  0.1299990E+00
          1   -1    0    0  501    0  0.00000000000E+00  0.00000000000E+00  0.67892123263E+01  0.67892141970E+01  0.50400000000E-02 0. -1.
         -1   -1    0    0    0  501 -0.00000000000E+00 -0.00000000000E+00 -0.30622095455E+03  0.30622095459E+03  0.50400000000E-02 0.  1.
         23    2    1    2    0    0  0.00000000000E+00  0.00000000000E+00 -0.29943174222E+03  0.31301016879E+03  0.91192091290E+02 0.  0.
    9000005    2    3    3    0    0 -0.11375717398E+02 -0.33009655865E+02 -0.25002489477E+03  0.25251156631E+03  0.55316171673E+01 0.  0.
         22    1    3    3    0    0  0.11375717398E+02  0.33009655865E+02 -0.49406847453E+02  0.60498602479E+02  0.00000000000E+00 0. -1.
         22    1    4    4    0    0 -0.17325074036E+01 -0.10025468920E+02 -0.59567146248E+02  0.60429765192E+02  0.00000000000E+00 0. -1.
         22    1    4    4    0    0 -0.96432099944E+01 -0.22984186945E+02 -0.19045774852E+03  0.19208180112E+03  0.00000000000E+00 0. -1.
<mgrwt>
<rscale>  0 0.91192091E+02</rscale>
<asrwt>0</asrwt>
<pdfrwt beam="1">  1        1 0.10444946E-02 0.91192091E+02</pdfrwt>
<pdfrwt beam="2">  1       -1 0.47110905E-01 0.91192091E+02</pdfrwt>
<totfact> 0.60068341E+04</totfact>
</mgrwt>
</event>
<event>
 7    1  0.2787125E-009  0.9002825E+02  0.7818608E-02  0.1302783E+00
         -1   -1    0    0    0  501 -0.00000000000E+00  0.00000000000E+00  0.47013358788E+02  0.47013359058E+02  0.50400000000E-02 0.  1.
          1   -1    0    0  501    0  0.00000000000E+00 -0.00000000000E+00 -0.43099912247E+02  0.43099912541E+02  0.50400000000E-02 0. -1.
         23    2    1    2    0    0  0.00000000000E+00  0.22204460493E-15  0.39134465414E+01  0.90113271599E+02  0.90028254757E+02 0.  0.
    9000005    2    3    3    0    0 -0.37746724995E+02 -0.19343830111E+01 -0.21428344029E+02  0.44607629809E+02  0.10104930671E+02 0.  0.
         22    1    3    3    0    0  0.37746724995E+02  0.19343830111E+01  0.25341790571E+02  0.45505641791E+02  0.00000000000E+00 0.  1.
         22    1    4    4    0    0 -0.27358917193E+02 -0.58762620195E+01 -0.14539425747E+02  0.31534674667E+02  0.00000000000E+00 0.  1.
         22    1    4    4    0    0 -0.10387807802E+02  0.39418790084E+01 -0.68889182824E+01  0.13072955142E+02  0.00000000000E+00 0.  1.
<mgrwt>
<rscale>  0 0.90028255E+02</rscale>
<asrwt>0</asrwt>
<pdfrwt beam="2">  1        1 0.66307558E-02 0.90028255E+02</pdfrwt>
<pdfrwt beam="1">  1       -1 0.72328245E-02 0.90028255E+02</pdfrwt>
<totfact> 0.95018349E+04</totfact>
</mgrwt>
</event>
<event>
 7    1  0.2787125E-009  0.9971857E+02  0.7818608E-02  0.1280889E+00
         -1   -1    0    0    0  501 -0.00000000000E+00  0.00000000000E+00  0.21436934804E+01  0.21436994051E+01  0.50400000000E-02 0.  1.
          1   -1    0    0  501    0  0.00000000000E+00 -0.00000000000E+00 -0.11596549586E+04  0.11596549586E+04  0.50400000000E-02 0. -1.
         23    2    1    2    0    0  0.00000000000E+00  0.88817841970E-15 -0.11575112651E+04  0.11617986580E+04  0.99718568428E+02 0.  0.
    9000005    2    3    3    0    0 -0.26261853802E+02  0.56467638863E+01 -0.10679936765E+04  0.10683375988E+04  0.36278335269E+01 0.  0.
         22    1    3    3    0    0  0.26261853802E+02 -0.56467638863E+01 -0.89517588657E+02  0.93461059198E+02  0.00000000000E+00 0.  1.
         22    1    4    4    0    0 -0.13085551990E+02  0.44019710740E+01 -0.50830226159E+03  0.50848972277E+03  0.00000000000E+00 0.  1.
         22    1    4    4    0    0 -0.13176301812E+02  0.12447928123E+01 -0.55969141487E+03  0.55984787605E+03  0.00000000000E+00 0.  1.
<mgrwt>
<rscale>  0 0.99718568E+02</rscale>
<asrwt>0</asrwt>
<pdfrwt beam="2">  1        1 0.17840795E+00 0.99718568E+02</pdfrwt>
<pdfrwt beam="1">  1       -1 0.32980038E-03 0.99718568E+02</pdfrwt>
<totfact> 0.10191372E+05</totfact>
</mgrwt>
</event>
<event>
 7    1  0.2787125E-009  0.9157235E+02  0.7818608E-02  0.1299088E+00
         -1   -1    0    0    0  501 -0.00000000000E+00  0.00000000000E+00  0.15586081714E+02  0.15586082529E+02  0.50400000000E-02 0.  1.
          1   -1    0    0  501    0  0.00000000000E+00 -0.00000000000E+00 -0.13450292932E+03  0.13450292942E+03  0.50400000000E-02 0. -1.
         23    2    1    2    0    0  0.00000000000E+00  0.00000000000E+00 -0.11891684761E+03  0.15008901194E+03  0.91572347690E+02 0.  0.
    9000005    2    3    3    0    0 -0.31551399926E+02 -0.30056693043E+02 -0.80471436058E+02  0.91977521658E+02  0.92367112801E+01 0.  0.
         22    1    3    3    0    0  0.31551399926E+02  0.30056693043E+02 -0.38445411550E+02  0.58111490286E+02  0.00000000000E+00 0. -1.
         22    1    4    4    0    0 -0.25857632917E+02 -0.18932458237E+02 -0.57981195579E+02  0.66248578821E+02  0.00000000000E+00 0.  1.
         22    1    4    4    0    0 -0.56937670094E+01 -0.11124234806E+02 -0.22490240478E+02  0.25728942838E+02  0.00000000000E+00 0.  1.
<mgrwt>
<rscale>  0 0.91572348E+02</rscale>
<asrwt>0</asrwt>
<pdfrwt beam="2">  1        1 0.20692758E-01 0.91572348E+02</pdfrwt>
<pdfrwt beam="1">  1       -1 0.23978589E-02 0.91572348E+02</pdfrwt>
<totfact> 0.10865279E+05</totfact>
</mgrwt>
</event>
<event>
 7    1  0.2787125E-009  0.9045256E+02  0.7818608E-02  0.1301759E+00
         -1   -1    0    0    0  501 -0.00000000000E+00  0.00000000000E+00  0.99944529592E+00  0.99945800369E+00  0.50400000000E-02 0.  1.
          1   -1    0    0  501    0  0.00000000000E+00 -0.00000000000E+00 -0.20465384841E+04  0.20465384841E+04  0.50400000000E-02 0. -1.
         23    2    1    2    0    0  0.35527136788E-14  0.44408920985E-15 -0.20455390388E+04  0.20475379421E+04  0.90452557222E+02 0.  0.
    9000005    2    3    3    0    0 -0.15227384447E+02 -0.19766584118E+01 -0.19839764499E+04  0.19840892797E+04  0.14558002288E+02 0.  0.
         22    1    3    3    0    0  0.15227384447E+02  0.19766584118E+01 -0.61562588806E+02  0.63448662366E+02  0.00000000000E+00 0.  1.
         22    1    4    4    0    0 -0.64879169808E+01  0.81319136644E+00 -0.15594908929E+04  0.15595046006E+04  0.00000000000E+00 0. -1.
         22    1    4    4    0    0 -0.87394674665E+01 -0.27898497783E+01 -0.42448555710E+03  0.42458467911E+03  0.00000000000E+00 0. -1.
<mgrwt>
<rscale>  0 0.90452557E+02</rscale>
<asrwt>0</asrwt>
<pdfrwt beam="2">  1        1 0.31484872E+00 0.90452557E+02</pdfrwt>
<pdfrwt beam="1">  1       -1 0.15376343E-03 0.90452557E+02</pdfrwt>
<totfact> 0.78611529E+04</totfact>
</mgrwt>
</event>
<event>
 7    1  0.2787125E-009  0.9164962E+02  0.7818608E-02  0.1298905E+00
          1   -1    0    0  501    0  0.00000000000E+00  0.00000000000E+00  0.93019289155E+03  0.93019289156E+03  0.50400000000E-02 0. -1.
         -1   -1    0    0    0  501 -0.00000000000E+00 -0.00000000000E+00 -0.22575002313E+01  0.22575058573E+01  0.50400000000E-02 0.  1.
         23    2    1    2    0    0  0.00000000000E+00 -0.17763568394E-14  0.92793539132E+03  0.93245039742E+03  0.91649621869E+02 0.  0.
    9000005    2    3    3    0    0  0.29302074597E+02  0.11067093043E+02  0.80368336481E+03  0.80431118322E+03  0.53325846079E+01 0.  0.
         22    1    3    3    0    0 -0.29302074597E+02 -0.11067093043E+02  0.12425202651E+03  0.12813921420E+03  0.00000000000E+00 0.  1.
         22    1    4    4    0    0  0.26573657733E+02  0.86817996277E+01  0.73617105060E+03  0.73670166871E+03  0.00000000000E+00 0.  1.
         22    1    4    4    0    0  0.27284168640E+01  0.23852934150E+01  0.67512314209E+02  0.67609514516E+02  0.00000000000E+00 0.  1.
<mgrwt>
<rscale>  0 0.91649622E+02</rscale>
<asrwt>0</asrwt>
<pdfrwt beam="1">  1        1 0.14310681E+00 0.91649622E+02</pdfrwt>
<pdfrwt beam="2">  1       -1 0.34730766E-03 0.91649622E+02</pdfrwt>
<totfact> 0.13644317E+05</totfact>
</mgrwt>
</event>
<event>
 7    1  0.2787125E-009  0.9108270E+02  0.7818608E-02  0.1300251E+00
         -1   -1    0    0    0  501 -0.00000000000E+00  0.00000000000E+00  0.69544512266E+01  0.69544530528E+01  0.50400000000E-02 0.  1.
          1   -1    0    0  501    0  0.00000000000E+00 -0.00000000000E+00 -0.29822832567E+03  0.29822832571E+03  0.50400000000E-02 0. -1.
         23    2    1    2    0    0  0.00000000000E+00  0.00000000000E+00 -0.29127387445E+03  0.30518277877E+03  0.91082701551E+02 0.  0.
    9000005    2    3    3    0    0  0.23276370672E+02  0.33404347329E+02 -0.21064841165E+03  0.21486054948E+03  0.11604419030E+02 0.  0.
         22    1    3    3    0    0 -0.23276370672E+02 -0.33404347329E+02 -0.80625462798E+02  0.90322229287E+02  0.00000000000E+00 0. -1.
         22    1    4    4    0    0  0.19591352421E+02  0.30225244567E+02 -0.16130016296E+03  0.16527289272E+03  0.00000000000E+00 0.  1.
         22    1    4    4    0    0  0.36850182512E+01  0.31791027614E+01 -0.49348248693E+02  0.49587656760E+02  0.00000000000E+00 0.  1.
<mgrwt>
<rscale>  0 0.91082702E+02</rscale>
<asrwt>0</asrwt>
<pdfrwt beam="2">  1        1 0.45881271E-01 0.91082702E+02</pdfrwt>
<pdfrwt beam="1">  1       -1 0.10699159E-02 0.91082702E+02</pdfrwt>
<totfact> 0.12833017E+05</totfact>
</mgrwt>
</event>
<event>
 7    1  0.2787125E-009  0.9150850E+02  0.7818608E-02  0.1299239E+00
          1   -1    0    0  501    0  0.00000000000E+00  0.00000000000E+00  0.35923314074E+01  0.35923349429E+01  0.50400000000E-02 0. -1.
         -1   -1    0    0    0  501 -0.00000000000E+00 -0.00000000000E+00 -0.58275540388E+03  0.58275540390E+03  0.50400000000E-02 0.  1.
         23    2    1    2    0    0  0.00000000000E+00  0.00000000000E+00 -0.57916307247E+03  0.58634773884E+03  0.91508504153E+02 0.  0.
    9000005    2    3    3    0    0 -0.28103953359E+02 -0.57552922496E+01 -0.51621628384E+03  0.51717221006E+03  0.12840855696E+02 0.  0.
         22    1    3    3    0    0  0.28103953359E+02  0.57552922496E+01 -0.62946788634E+02  0.69175528785E+02  0.00000000000E+00 0. -1.
         22    1    4    4    0    0 -0.18355922057E+02 -0.91012861039E+00 -0.22379171966E+03  0.22454510014E+03  0.00000000000E+00 0. -1.
         22    1    4    4    0    0 -0.97480313023E+01 -0.48451636392E+01 -0.29242456417E+03  0.29262710991E+03  0.00000000000E+00 0. -1.
<mgrwt>
<rscale>  0 0.91508504E+02</rscale>
<asrwt>0</asrwt>
<pdfrwt beam="1">  1        1 0.55266711E-03 0.91508504E+02</pdfrwt>
<pdfrwt beam="2">  1       -1 0.89654602E-01 0.91508504E+02</pdfrwt>
<totfact> 0.42097206E+04</totfact>
</mgrwt>
</event>
<event>
 7    1  0.3804570E-009  0.9407383E+02  0.7818608E-02  0.1293276E+00
         -1   -1    0    0    0  501 -0.00000000000E+00  0.00000000000E+00  0.10554669326E+03  0.10554669338E+03  0.50400000000E-02 0.  1.
          1   -1    0    0  501    0  0.00000000000E+00 -0.00000000000E+00 -0.20962016491E+02  0.20962017097E+02  0.50400000000E-02 0. -1.
         23    2    1    2    0    0  0.00000000000E+00  0.00000000000E+00  0.84584676764E+02  0.12650871047E+03  0.94073834206E+02 0.  0.
    9000005    2    3    3    0    0  0.75403996108E+01  0.16901725166E+02  0.99834514079E+02  0.10252781228E+03  0.14230114213E+02 0.  0.
         22    1    3    3    0    0 -0.75403996108E+01 -0.16901725166E+02 -0.15249837314E+02  0.23980898189E+02  0.00000000000E+00 0. -1.
         22    1    4    4    0    0  0.68594633545E+01  0.22239630410E+01  0.51703025717E+02  0.52203458864E+02  0.00000000000E+00 0.  1.
         22    1    4    4    0    0  0.68093625622E+00  0.14677762124E+02  0.48131488362E+02  0.50324353420E+02  0.00000000000E+00 0.  1.
<mgrwt>
<rscale>  0 0.94073834E+02</rscale>
<asrwt>0</asrwt>
<pdfrwt beam="2">  1        1 0.32249256E-02 0.94073834E+02</pdfrwt>
<pdfrwt beam="1">  1       -1 0.16237953E-01 0.94073834E+02</pdfrwt>
<totfact> 0.74297370E+04</totfact>
</mgrwt>
</event>
<event>
 7    1  0.2787125E-009  0.9069902E+02  0.7818608E-02  0.1301168E+00
          1   -1    0    0  501    0  0.00000000000E+00  0.00000000000E+00  0.13083597066E+03  0.13083597076E+03  0.50400000000E-02 0. -1.
         -1   -1    0    0    0  501 -0.00000000000E+00 -0.00000000000E+00 -0.15718749422E+02  0.15718750230E+02  0.50400000000E-02 0.  1.
         23    2    1    2    0    0  0.00000000000E+00  0.00000000000E+00  0.11511722124E+03  0.14655472099E+03  0.90699016632E+02 0.  0.
    9000005    2    3    3    0    0 -0.44354426862E+02  0.27209744967E+01  0.45179884251E+02  0.63693692817E+02  0.63988811002E+01 0.  0.
         22    1    3    3    0    0  0.44354426862E+02 -0.27209744967E+01  0.69937336987E+02  0.82861028170E+02  0.00000000000E+00 0. -1.
         22    1    4    4    0    0 -0.44012925166E+02  0.19599896425E+01  0.44200123860E+02  0.62406971487E+02  0.00000000000E+00 0.  1.
         22    1    4    4    0    0 -0.34150169649E+00  0.76098485419E+00  0.97976039098E+00  0.12867213299E+01  0.00000000000E+00 0.  1.
<mgrwt>
<rscale>  0 0.90699017E+02</rscale>
<asrwt>0</asrwt>
<pdfrwt beam="1">  1        1 0.20128610E-01 0.90699017E+02</pdfrwt>
<pdfrwt beam="2">  1       -1 0.24182693E-02 0.90699017E+02</pdfrwt>
<totfact> 0.11095749E+05</totfact>
</mgrwt>
</event>
<event>
 7    1  0.2787125E-009  0.9953118E+02  0.7818608E-02  0.1281285E+00
         -1   -1    0    0    0  501 -0.00000000000E+00  0.00000000000E+00  0.66599107850E+02  0.66599108041E+02  0.50400000000E-02 0.  1.
          1   -1    0    0  501    0  0.00000000000E+00 -0.00000000000E+00 -0.37186894913E+02  0.37186895255E+02  0.50400000000E-02 0. -1.
         23    2    1    2    0    0 -0.35527136788E-14 -0.71054273576E-14  0.29412212937E+02  0.10378600330E+03  0.99531182100E+02 0.  0.
    9000005    2    3    3    0    0 -0.23805586201E+02 -0.42803864427E+02  0.56871636242E+01  0.49363997552E+02  0.23629811704E+01 0.  0.
         22    1    3    3    0    0  0.23805586201E+02  0.42803864427E+02  0.23725049313E+02  0.54422005744E+02  0.00000000000E+00 0.  1.
         22    1    4    4    0    0 -0.18637269433E+02 -0.32537678984E+02  0.34614339352E+01  0.37656737650E+02  0.00000000000E+00 0.  1.
         22    1    4    4    0    0 -0.51683167673E+01 -0.10266185443E+02  0.22257296890E+01  0.11707259902E+02  0.00000000000E+00 0.  1.
<mgrwt>
<rscale>  0 0.99531182E+02</rscale>
<asrwt>0</asrwt>
<pdfrwt beam="2">  1        1 0.57210609E-02 0.99531182E+02</pdfrwt>
<pdfrwt beam="1">  1       -1 0.10246017E-01 0.99531182E+02</pdfrwt>
<totfact> 0.69773247E+04</totfact>
</mgrwt>
</event>
<event>
 7    1  0.2787125E-009  0.1004010E+03  0.7818608E-02  0.1279455E+00
          1   -1    0    0  501    0  0.00000000000E+00  0.00000000000E+00  0.43605448155E+02  0.43605448446E+02  0.50400000000E-02 0. -1.
         -1   -1    0    0    0  501 -0.00000000000E+00 -0.00000000000E+00 -0.57792985670E+02  0.57792985890E+02  0.50400000000E-02 0.  1.
         23    2    1    2    0    0  0.00000000000E+00 -0.71054273576E-14 -0.14187537516E+02  0.10139843434E+03  0.10040097741E+03 0.  0.
    9000005    2    3    3    0    0  0.13652992662E+02 -0.38996393765E+02  0.20275767005E+02  0.47594695676E+02  0.12125402820E+02 0.  0.
         22    1    3    3    0    0 -0.13652992662E+02  0.38996393765E+02 -0.34463304520E+02  0.53803738660E+02  0.00000000000E+00 0.  1.
         22    1    4    4    0    0  0.69884309865E+01 -0.60897547613E+01  0.24808757109E+01  0.95957295188E+01  0.00000000000E+00 0.  1.
         22    1    4    4    0    0  0.66645616751E+01 -0.32906639004E+02  0.17794891294E+02  0.37998966157E+02  0.00000000000E+00 0.  1.
<mgrwt>
<rscale>  0 0.10040098E+03</rscale>
<asrwt>0</asrwt>
<pdfrwt beam="1">  1        1 0.67085305E-02 0.10040098E+03</pdfrwt>
<pdfrwt beam="2">  1       -1 0.88912287E-02 0.10040098E+03</pdfrwt>
<totfact> 0.69876368E+04</totfact>
</mgrwt>
</event>
<event>
 7    1  0.2787125E-009  0.8663124E+02  0.7818608E-02  0.1311221E+00
          1   -1    0    0  501    0  0.00000000000E+00  0.00000000000E+00  0.16285360805E+03  0.16285360813E+03  0.50400000000E-02 0. -1.
         -1   -1    0    0    0  501 -0.00000000000E+00 -0.00000000000E+00 -0.11521040473E+02  0.11521041575E+02  0.50400000000E-02 0.  1.
         23    2    1    2    0    0  0.00000000000E+00  0.00000000000E+00  0.15133256758E+03  0.17437464971E+03  0.86631244073E+02 0.  0.
    9000005    2    3    3    0    0 -0.23907553318E+02 -0.26993095921E+02  0.33407498610E+02  0.51059929479E+02  0.13815104125E+02 0.  0.
         22    1    3    3    0    0  0.23907553318E+02  0.26993095921E+02  0.11792506897E+03  0.12331472023E+03  0.00000000000E+00 0.  1.
         22    1    4    4    0    0 -0.75003566771E+01 -0.18207226564E+02  0.13934223873E+02  0.24123039701E+02  0.00000000000E+00 0.  1.
         22    1    4    4    0    0 -0.16407196641E+02 -0.87858693569E+01  0.19473274737E+02  0.26936889779E+02  0.00000000000E+00 0.  1.
<mgrwt>
<rscale>  0 0.86631244E+02</rscale>
<asrwt>0</asrwt>
<pdfrwt beam="1">  1        1 0.25054401E-01 0.86631244E+02</pdfrwt>
<pdfrwt beam="2">  1       -1 0.17724678E-02 0.86631244E+02</pdfrwt>
<totfact> 0.13059856E+05</totfact>
</mgrwt>
</event>
<event>
 7    1  0.2787125E-009  0.9040907E+02  0.7818608E-02  0.1301864E+00
         -1   -1    0    0    0  501 -0.00000000000E+00  0.00000000000E+00  0.74668207677E+02  0.74668207848E+02  0.50400000000E-02 0.  1.
          1   -1    0    0  501    0  0.00000000000E+00 -0.00000000000E+00 -0.27367067000E+02  0.27367067464E+02  0.50400000000E-02 0. -1.
         23    2    1    2    0    0  0.35527136788E-14  0.00000000000E+00  0.47301140678E+02  0.10203527531E+03  0.90409067568E+02 0.  0.
    9000005    2    3    3    0    0  0.17074284160E+02 -0.12459573302E+02 -0.19374636949E+02  0.32089357143E+02  0.14407572262E+02 0.  0.
         22    1    3    3    0    0 -0.17074284160E+02  0.12459573302E+02  0.66675777626E+02  0.69945918169E+02  0.00000000000E+00 0.  1.
         22    1    4    4    0    0  0.99887702700E+01 -0.14509248518E+02 -0.10338332686E+02  0.20424860998E+02  0.00000000000E+00 0.  1.
         22    1    4    4    0    0  0.70855138902E+01  0.20496752160E+01 -0.90363042630E+01  0.11664496145E+02  0.00000000000E+00 0.  1.
<mgrwt>
<rscale>  0 0.90409068E+02</rscale>
<asrwt>0</asrwt>
<pdfrwt beam="2">  1        1 0.42103181E-02 0.90409068E+02</pdfrwt>
<pdfrwt beam="1">  1       -1 0.11487416E-01 0.90409068E+02</pdfrwt>
<totfact> 0.87500055E+04</totfact>
</mgrwt>
</event>
<event>
 7    1  0.2787125E-009  0.9308990E+02  0.7818608E-02  0.1295537E+00
         -1   -1    0    0    0  501 -0.00000000000E+00  0.00000000000E+00  0.24071437911E+01  0.24071490674E+01  0.50400000000E-02 0.  1.
          1   -1    0    0  501    0  0.00000000000E+00 -0.00000000000E+00 -0.90000031811E+03  0.90000031813E+03  0.50400000000E-02 0. -1.
         23    2    1    2    0    0  0.00000000000E+00  0.00000000000E+00 -0.89759317432E+03  0.90240746720E+03  0.93089904174E+02 0.  0.
    9000005    2    3    3    0    0  0.29560388180E+02 -0.20484877020E+02 -0.72916011315E+03  0.73017755448E+03  0.13832705099E+02 0.  0.
         22    1    3    3    0    0 -0.29560388180E+02  0.20484877020E+02 -0.16843306118E+03  0.17222991271E+03  0.00000000000E+00 0.  1.
         22    1    4    4    0    0  0.21493199776E+02 -0.21336221797E+02 -0.54858513130E+03  0.54942045673E+03  0.00000000000E+00 0.  1.
         22    1    4    4    0    0  0.80671884035E+01  0.85134477664E+00 -0.18057498185E+03  0.18075709775E+03  0.00000000000E+00 0.  1.
<mgrwt>
<rscale>  0 0.93089904E+02</rscale>
<asrwt>0</asrwt>
<pdfrwt beam="2">  1        1 0.13846132E+00 0.93089904E+02</pdfrwt>
<pdfrwt beam="1">  1       -1 0.37033094E-03 0.93089904E+02</pdfrwt>
<totfact> 0.13173556E+05</totfact>
</mgrwt>
</event>
<event>
 7    1  0.2787125E-009  0.1056290E+03  0.7818608E-02  0.1268885E+00
          1   -1    0    0  501    0  0.00000000000E+00  0.00000000000E+00  0.10978216845E+04  0.10978216845E+04  0.50400000000E-02 0. -1.
         -1   -1    0    0    0  501 -0.00000000000E+00 -0.00000000000E+00 -0.25408232111E+01  0.25408282098E+01  0.50400000000E-02 0.  1.
         23    2    1    2    0    0  0.00000000000E+00  0.00000000000E+00  0.10952808613E+04  0.11003625127E+04  0.10562904097E+03 0.  0.
    9000005    2    3    3    0    0  0.34980892204E+02  0.19653557996E+02  0.90177902175E+03  0.90274447947E+03  0.11500694845E+02 0.  0.
         22    1    3    3    0    0 -0.34980892204E+02 -0.19653557996E+02  0.19350183950E+03  0.19761803321E+03  0.00000000000E+00 0. -1.
         22    1    4    4    0    0  0.16875934069E+02  0.30028392604E+01  0.37353195069E+03  0.37392503578E+03  0.00000000000E+00 0. -1.
         22    1    4    4    0    0  0.18104958135E+02  0.16650718735E+02  0.52824707107E+03  0.52881944370E+03  0.00000000000E+00 0. -1.
<mgrwt>
<rscale>  0 0.10562904E+03</rscale>
<asrwt>0</asrwt>
<pdfrwt beam="1">  1        1 0.16889537E+00 0.10562904E+03</pdfrwt>
<pdfrwt beam="2">  1       -1 0.39089689E-03 0.10562904E+03</pdfrwt>
<totfact> 0.89284467E+04</totfact>
</mgrwt>
</event>
<event>
 7    1  0.2787125E-009  0.9029099E+02  0.7818608E-02  0.1302149E+00
          1   -1    0    0  501    0  0.00000000000E+00  0.00000000000E+00  0.19272547923E+04  0.19272547923E+04  0.50400000000E-02 0. -1.
         -1   -1    0    0    0  501 -0.00000000000E+00 -0.00000000000E+00 -0.10575166629E+01  0.10575286729E+01  0.50400000000E-02 0.  1.
         23    2    1    2    0    0  0.00000000000E+00  0.00000000000E+00  0.19261972757E+04  0.19283123210E+04  0.90290988309E+02 0.  0.
    9000005    2    3    3    0    0 -0.17970703785E+02 -0.11833992974E+02  0.18104259233E+04  0.18105583588E+04  0.40690693085E+01 0.  0.
         22    1    3    3    0    0  0.17970703785E+02  0.11833992974E+02  0.11577135239E+03  0.11775396222E+03  0.00000000000E+00 0.  1.
         22    1    4    4    0    0 -0.17677920306E+02 -0.11403093354E+02  0.16844031298E+04  0.16845344885E+04  0.00000000000E+00 0.  1.
         22    1    4    4    0    0 -0.29278347972E+00 -0.43089961994E+00  0.12602279354E+03  0.12602387031E+03  0.00000000000E+00 0.  1.
<mgrwt>
<rscale>  0 0.90290988E+02</rscale>
<asrwt>0</asrwt>
<pdfrwt beam="1">  1        1 0.29650007E+00 0.90290988E+02</pdfrwt>
<pdfrwt beam="2">  1       -1 0.16269616E-03 0.90290988E+02</pdfrwt>
<totfact> 0.86348836E+04</totfact>
</mgrwt>
</event>
<event>
 7    1  0.2787125E-009  0.8693193E+02  0.7818608E-02  0.1310456E+00
         -1   -1    0    0    0  501 -0.00000000000E+00  0.00000000000E+00  0.32144760347E+02  0.32144760742E+02  0.50400000000E-02 0.  1.
          1   -1    0    0  501    0  0.00000000000E+00 -0.00000000000E+00 -0.58774439581E+02  0.58774439797E+02  0.50400000000E-02 0. -1.
         23    2    1    2    0    0  0.00000000000E+00  0.35527136788E-14 -0.26629679234E+02  0.90919200539E+02  0.86931934354E+02 0.  0.
    9000005    2    3    3    0    0 -0.25923111575E+02  0.26235812756E+02 -0.36362207787E+02  0.52774113087E+02  0.10127747639E+02 0.  0.
         22    1    3    3    0    0  0.25923111575E+02 -0.26235812756E+02  0.97325285533E+01  0.38145087452E+02  0.00000000000E+00 0.  1.
         22    1    4    4    0    0 -0.89486363416E+01  0.15541983229E+02 -0.14159342749E+02  0.22849908581E+02  0.00000000000E+00 0.  1.
         22    1    4    4    0    0 -0.16974475234E+02  0.10693829526E+02 -0.22202865038E+02  0.29924204506E+02  0.00000000000E+00 0.  1.
<mgrwt>
<rscale>  0 0.86931934E+02</rscale>
<asrwt>0</asrwt>
<pdfrwt beam="2">  1        1 0.90422215E-02 0.86931934E+02</pdfrwt>
<pdfrwt beam="1">  1       -1 0.49453478E-02 0.86931934E+02</pdfrwt>
<totfact> 0.10960197E+05</totfact>
</mgrwt>
</event>
<event>
 7    1  0.2787125E-009  0.9134748E+02  0.7818608E-02  0.1299621E+00
          1   -1    0    0  501    0  0.00000000000E+00  0.00000000000E+00  0.49505362006E+02  0.49505362263E+02  0.50400000000E-02 0. -1.
         -1   -1    0    0    0  501 -0.00000000000E+00 -0.00000000000E+00 -0.42138682395E+02  0.42138682696E+02  0.50400000000E-02 0.  1.
         23    2    1    2    0    0  0.35527136788E-14  0.00000000000E+00  0.73666796110E+01  0.91644044959E+02  0.91347484957E+02 0.  0.
    9000005    2    3    3    0    0  0.23323083279E+02 -0.75296064624E+01  0.41349495302E+02  0.49745441768E+02  0.12812768157E+02 0.  0.
         22    1    3    3    0    0 -0.23323083279E+02  0.75296064624E+01 -0.33982815691E+02  0.41898603191E+02  0.00000000000E+00 0.  1.
         22    1    4    4    0    0  0.90355319761E+01  0.32715800911E+01  0.12157202035E+02  0.15496503983E+02  0.00000000000E+00 0. -1.
         22    1    4    4    0    0  0.14287551302E+02 -0.10801186554E+02  0.29192293267E+02  0.34248937785E+02  0.00000000000E+00 0. -1.
<mgrwt>
<rscale>  0 0.91347485E+02</rscale>
<asrwt>0</asrwt>
<pdfrwt beam="1">  1        1 0.76162096E-02 0.91347485E+02</pdfrwt>
<pdfrwt beam="2">  1       -1 0.64828743E-02 0.91347485E+02</pdfrwt>
<totfact> 0.93135251E+04</totfact>
</mgrwt>
</event>
<event>
 7    1  0.2787125E-009  0.9006587E+02  0.7818608E-02  0.1302692E+00
          1   -1    0    0  501    0  0.00000000000E+00  0.00000000000E+00  0.10089607447E+04  0.10089607447E+04  0.50400000000E-02 0. -1.
         -1   -1    0    0    0  501 -0.00000000000E+00 -0.00000000000E+00 -0.20099514848E+01  0.20099578037E+01  0.50400000000E-02 0.  1.
         23    2    1    2    0    0  0.35527136788E-14  0.17763568394E-14  0.10069507932E+04  0.10109707025E+04  0.90065872501E+02 0.  0.
    9000005    2    3    3    0    0 -0.30316602649E+02 -0.11082118940E+02  0.85159073471E+03  0.85229286054E+03  0.12427023867E+02 0.  0.
         22    1    3    3    0    0  0.30316602649E+02  0.11082118940E+02  0.15536005849E+03  0.15867784196E+03  0.00000000000E+00 0.  1.
         22    1    4    4    0    0 -0.13501388204E+02 -0.11059302243E+02  0.49141669676E+03  0.49172651494E+03  0.00000000000E+00 0.  1.
         22    1    4    4    0    0 -0.16815214445E+02 -0.22816697277E-01  0.36017403796E+03  0.36056634559E+03  0.00000000000E+00 0.  1.
<mgrwt>
<rscale>  0 0.90065873E+02</rscale>
<asrwt>0</asrwt>
<pdfrwt beam="1">  1        1 0.15522510E+00 0.90065873E+02</pdfrwt>
<pdfrwt beam="2">  1       -1 0.30922306E-03 0.90065873E+02</pdfrwt>
<totfact> 0.14015500E+05</totfact>
</mgrwt>
</event>
<event>
 7    1  0.2787125E-009  0.9169660E+02  0.7818608E-02  0.1298794E+00
         -1   -1    0    0    0  501 -0.00000000000E+00  0.00000000000E+00  0.53618024759E+03  0.53618024761E+03  0.50400000000E-02 0.  1.
          1   -1    0    0  501    0  0.00000000000E+00 -0.00000000000E+00 -0.39204464113E+01  0.39204496509E+01  0.50400000000E-02 0. -1.
         23    2    1    2    0    0  0.00000000000E+00  0.00000000000E+00  0.53225980118E+03  0.54010069726E+03  0.91696604271E+02 0.  0.
    9000005    2    3    3    0    0  0.15449107053E+02 -0.35637942785E+02  0.40601520263E+03  0.40801573772E+03  0.10943472369E+02 0.  0.
         22    1    3    3    0    0 -0.15449107053E+02  0.35637942785E+02  0.12624459855E+03  0.13208495955E+03  0.00000000000E+00 0. -1.
         22    1    4    4    0    0  0.60723314925E+01 -0.20800011022E+02  0.27090216699E+03  0.27176735961E+03  0.00000000000E+00 0. -1.
         22    1    4    4    0    0  0.93767755602E+01 -0.14837931763E+02  0.13511303563E+03  0.13624837811E+03  0.00000000000E+00 0. -1.
<mgrwt>
<rscale>  0 0.91696604E+02</rscale>
<asrwt>0</asrwt>
<pdfrwt beam="2">  1        1 0.60314615E-03 0.91696604E+02</pdfrwt>
<pdfrwt beam="1">  1       -1 0.82489229E-01 0.91696604E+02</pdfrwt>
<totfact> 0.44328031E+04</totfact>
</mgrwt>
</event>
<event>
 7    1  0.2787125E-009  0.9011498E+02  0.7818608E-02  0.1302574E+00
          1   -1    0    0  501    0  0.00000000000E+00  0.00000000000E+00  0.88854158010E+02  0.88854158153E+02  0.50400000000E-02 0. -1.
         -1   -1    0    0    0  501 -0.00000000000E+00 -0.00000000000E+00 -0.22848421587E+02  0.22848422143E+02  0.50400000000E-02 0.  1.
         23    2    1    2    0    0  0.00000000000E+00  0.35527136788E-14  0.66005736422E+02  0.11170258030E+03  0.90114977690E+02 0.  0.
    9000005    2    3    3    0    0  0.34229816022E+02  0.27175041467E+02  0.44055137374E+02  0.62794585221E+02  0.95990426822E+01 0.  0.
         22    1    3    3    0    0 -0.34229816022E+02 -0.27175041467E+02  0.21950599049E+02  0.48907995075E+02  0.00000000000E+00 0. -1.
         22    1    4    4    0    0  0.28772902108E+02  0.23720142058E+02  0.32085180218E+02  0.49193331099E+02  0.00000000000E+00 0.  1.
         22    1    4    4    0    0  0.54569139137E+01  0.34548994097E+01  0.11969957155E+02  0.13601254122E+02  0.00000000000E+00 0.  1.
<mgrwt>
<rscale>  0 0.90114978E+02</rscale>
<asrwt>0</asrwt>
<pdfrwt beam="1">  1        1 0.13669871E-01 0.90114978E+02</pdfrwt>
<pdfrwt beam="2">  1       -1 0.35151418E-02 0.90114978E+02</pdfrwt>
<totfact> 0.10577883E+05</totfact>
</mgrwt>
</event>
<event>
 7    1  0.4733508E-009  0.9097710E+02  0.7818608E-02  0.1300503E+00
          1   -1    0    0  501    0  0.00000000000E+00  0.00000000000E+00  0.19730444141E+04  0.19730444142E+04  0.50400000000E-02 0. -1.
         -1   -1    0    0    0  501 -0.00000000000E+00 -0.00000000000E+00 -0.10487326255E+01  0.10487447360E+01  0.50400000000E-02 0.  1.
         23    2    1    2    0    0 -0.17763568394E-14  0.00000000000E+00  0.19719956815E+04  0.19740931589E+04  0.90977096210E+02 0.  0.
    9000005    2    3    3    0    0 -0.13191309593E+02  0.17699502523E+02  0.18458868515E+04  0.18460669114E+04  0.13322528570E+02 0.  0.
         22    1    3    3    0    0  0.13191309593E+02 -0.17699502523E+02  0.12610883005E+03  0.12802624753E+03  0.00000000000E+00 0.  1.
         22    1    4    4    0    0  0.26010260511E+01  0.41146726536E+01  0.29491105732E+03  0.29495122919E+03  0.00000000000E+00 0.  1.
         22    1    4    4    0    0 -0.15792335644E+02  0.13584829869E+02  0.15509757941E+04  0.15511156822E+04  0.00000000000E+00 0.  1.
<mgrwt>
<rscale>  0 0.90977096E+02</rscale>
<asrwt>0</asrwt>
<pdfrwt beam="1">  1        1 0.30354654E+00 0.90977096E+02</pdfrwt>
<pdfrwt beam="2">  1       -1 0.16134375E-03 0.90977096E+02</pdfrwt>
<totfact> 0.81833395E+04</totfact>
</mgrwt>
</event>
<event>
 7    1  0.2787125E-009  0.8967085E+02  0.7818608E-02  0.1303651E+00
         -1   -1    0    0    0  501 -0.00000000000E+00  0.00000000000E+00  0.23322023290E+01  0.23322077748E+01  0.50400000000E-02 0.  1.
          1   -1    0    0  501    0  0.00000000000E+00 -0.00000000000E+00 -0.86193766077E+03  0.86193766078E+03  0.50400000000E-02 0. -1.
         23    2    1    2    0    0  0.00000000000E+00  0.00000000000E+00 -0.85960545844E+03  0.86426986856E+03  0.89670850996E+02 0.  0.
    9000005    2    3    3    0    0  0.13947363281E+02  0.15215696571E+02 -0.81212165223E+03  0.81249382954E+03  0.13364080535E+02 0.  0.
         22    1    3    3    0    0 -0.13947363281E+02 -0.15215696571E+02 -0.47483806205E+02  0.51776039017E+02  0.00000000000E+00 0.  1.
         22    1    4    4    0    0  0.90935203411E+01  0.54833223990E+01 -0.20505262488E+03  0.20532739200E+03  0.00000000000E+00 0.  1.
         22    1    4    4    0    0  0.48538429400E+01  0.97323741721E+01 -0.60706902736E+03  0.60716643754E+03  0.00000000000E+00 0.  1.
<mgrwt>
<rscale>  0 0.89670851E+02</rscale>
<asrwt>0</asrwt>
<pdfrwt beam="2">  1        1 0.13260554E+00 0.89670851E+02</pdfrwt>
<pdfrwt beam="1">  1       -1 0.35880147E-03 0.89670851E+02</pdfrwt>
<totfact> 0.14641822E+05</totfact>
</mgrwt>
</event>
<event>
 7    1  0.2787125E-009  0.9014447E+02  0.7818608E-02  0.1302502E+00
          1   -1    0    0  501    0  0.00000000000E+00  0.00000000000E+00  0.12342977418E+02  0.12342978447E+02  0.50400000000E-02 0. -1.
         -1   -1    0    0    0  501 -0.00000000000E+00 -0.00000000000E+00 -0.16458801604E+03  0.16458801612E+03  0.50400000000E-02 0.  1.
         23    2    1    2    0    0  0.00000000000E+00  0.88817841970E-15 -0.15224503863E+03  0.17693099457E+03  0.90144467676E+02 0.  0.
    9000005    2    3    3    0    0  0.37727549577E+02 -0.79623131026E+01 -0.36501995263E+02  0.54934197422E+02  0.14092691764E+02 0.  0.
         22    1    3    3    0    0 -0.37727549577E+02  0.79623131026E+01 -0.11574304336E+03  0.12199679715E+03  0.00000000000E+00 0.  1.
         22    1    4    4    0    0  0.19140498501E+02  0.13004980063E+01 -0.11251338737E+02  0.22240562072E+02  0.00000000000E+00 0.  1.
         22    1    4    4    0    0  0.18587051076E+02 -0.92628111089E+01 -0.25250656526E+02  0.32693635349E+02  0.00000000000E+00 0.  1.
<mgrwt>
<rscale>  0 0.90144468E+02</rscale>
<asrwt>0</asrwt>
<pdfrwt beam="1">  1        1 0.18989198E-02 0.90144468E+02</pdfrwt>
<pdfrwt beam="2">  1       -1 0.25321232E-01 0.90144468E+02</pdfrwt>
<totfact> 0.75325934E+04</totfact>
</mgrwt>
</event>
<event>
 7    1  0.2787125E-009  0.9133351E+02  0.7818608E-02  0.1299654E+00
         -1   -1    0    0    0  501 -0.00000000000E+00  0.00000000000E+00  0.56767354215E+01  0.56767376588E+01  0.50400000000E-02 0.  1.
          1   -1    0    0  501    0  0.00000000000E+00 -0.00000000000E+00 -0.36736818220E+03  0.36736818224E+03  0.50400000000E-02 0. -1.
         23    2    1    2    0    0  0.00000000000E+00  0.71054273576E-14 -0.36169144678E+03  0.37304491990E+03  0.91333507464E+02 0.  0.
    9000005    2    3    3    0    0 -0.45455783794E+01 -0.34240626572E+02 -0.30267492168E+03  0.30466339442E+03  0.38200651646E+01 0.  0.
         22    1    3    3    0    0  0.45455783794E+01  0.34240626572E+02 -0.59016525108E+02  0.68381525478E+02  0.00000000000E+00 0.  1.
         22    1    4    4    0    0 -0.48046929393E+01 -0.27767554041E+02 -0.23688447054E+03  0.23855476209E+03  0.00000000000E+00 0.  1.
         22    1    4    4    0    0  0.25911455988E+00 -0.64730725309E+01 -0.65790451135E+02  0.66108632332E+02  0.00000000000E+00 0.  1.
<mgrwt>
<rscale>  0 0.91333507E+02</rscale>
<asrwt>0</asrwt>
<pdfrwt beam="2">  1        1 0.56518164E-01 0.91333507E+02</pdfrwt>
<pdfrwt beam="1">  1       -1 0.87334437E-03 0.91333507E+02</pdfrwt>
<totfact> 0.13235536E+05</totfact>
</mgrwt>
</event>
<event>
 7    1  0.2787125E-009  0.8855350E+02  0.7818608E-02  0.1306393E+00
          1   -1    0    0  501    0  0.00000000000E+00  0.00000000000E+00  0.98897276022E+03  0.98897276023E+03  0.50400000000E-02 0. -1.
         -1   -1    0    0    0  501 -0.00000000000E+00 -0.00000000000E+00 -0.19822867303E+01  0.19822931374E+01  0.50400000000E-02 0.  1.
         23    2    1    2    0    0 -0.88817841970E-15  0.17763568394E-14  0.98699047349E+03  0.99095505337E+03  0.88553503830E+02 0.  0.
    9000005    2    3    3    0    0  0.61489302803E+01 -0.15949168641E+02  0.95022779449E+03  0.95041273115E+03  0.77014793048E+01 0.  0.
         22    1    3    3    0    0 -0.61489302803E+01  0.15949168641E+02  0.36762679001E+02  0.40542322224E+02  0.00000000000E+00 0.  1.
         22    1    4    4    0    0  0.21679251886E+01 -0.95466226764E+01  0.34776266827E+03  0.34790043310E+03  0.00000000000E+00 0. -1.
         22    1    4    4    0    0  0.39810050917E+01 -0.64025459644E+01  0.60246512622E+03  0.60251229805E+03  0.00000000000E+00 0. -1.
<mgrwt>
<rscale>  0 0.88553504E+02</rscale>
<asrwt>0</asrwt>
<pdfrwt beam="1">  1        1 0.15214978E+00 0.88553504E+02</pdfrwt>
<pdfrwt beam="2">  1       -1 0.30496744E-03 0.88553504E+02</pdfrwt>
<totfact> 0.14733765E+05</totfact>
</mgrwt>
</event>
<event>
 7    1  0.2787125E-009  0.9311138E+02  0.7818608E-02  0.1295487E+00
          1   -1    0    0  501    0  0.00000000000E+00  0.00000000000E+00  0.20832703620E+02  0.20832704230E+02  0.50400000000E-02 0. -1.
         -1   -1    0    0    0  501 -0.00000000000E+00 -0.00000000000E+00 -0.10403989950E+03  0.10403989962E+03  0.50400000000E-02 0.  1.
         23    2    1    2    0    0  0.44408920985E-15  0.00000000000E+00 -0.83207195881E+02  0.12487260385E+03  0.93111383550E+02 0.  0.
    9000005    2    3    3    0    0  0.39323525242E+01 -0.22921431654E+02  0.11903054884E+02  0.26960320528E+02  0.66573825149E+01 0.  0.
         22    1    3    3    0    0 -0.39323525242E+01  0.22921431654E+02 -0.95110250765E+02  0.97912283326E+02  0.00000000000E+00 0.  1.
         22    1    4    4    0    0  0.27062509552E+01 -0.22652118649E+02  0.10615541069E+02  0.25162114094E+02  0.00000000000E+00 0. -1.
         22    1    4    4    0    0  0.12261015689E+01 -0.26931300473E+00  0.12875138152E+01  0.17982064331E+01  0.00000000000E+00 0. -1.
<mgrwt>
<rscale>  0 0.93111384E+02</rscale>
<asrwt>0</asrwt>
<pdfrwt beam="1">  1        1 0.32050315E-02 0.93111384E+02</pdfrwt>
<pdfrwt beam="2">  1       -1 0.16006138E-01 0.93111384E+02</pdfrwt>
<totfact> 0.76507557E+04</totfact>
</mgrwt>
</event>
<event>
 7    1  0.2787125E-009  0.9023079E+02  0.7818608E-02  0.1302294E+00
          1   -1    0    0  501    0  0.00000000000E+00  0.00000000000E+00  0.14859274229E+03  0.14859274237E+03  0.50400000000E-02 0. -1.
         -1   -1    0    0    0  501 -0.00000000000E+00 -0.00000000000E+00 -0.13697835697E+02  0.13697836625E+02  0.50400000000E-02 0.  1.
         23    2    1    2    0    0  0.00000000000E+00  0.00000000000E+00  0.13489490659E+03  0.16229057900E+03  0.90230794119E+02 0.  0.
    9000005    2    3    3    0    0 -0.17451120193E+02 -0.37581548740E+02  0.97291259691E+02  0.10633569841E+03  0.11170368930E+02 0.  0.
         22    1    3    3    0    0  0.17451120193E+02  0.37581548740E+02  0.37603646900E+02  0.55954880590E+02  0.00000000000E+00 0.  1.
         22    1    4    4    0    0 -0.18242857145E+02 -0.30190074524E+02  0.84023608907E+02  0.91127434345E+02  0.00000000000E+00 0. -1.
         22    1    4    4    0    0  0.79173695239E+00 -0.73914742154E+01  0.13267650784E+02  0.15208264063E+02  0.00000000000E+00 0. -1.
<mgrwt>
<rscale>  0 0.90230794E+02</rscale>
<asrwt>0</asrwt>
<pdfrwt beam="1">  1        1 0.22860422E-01 0.90230794E+02</pdfrwt>
<pdfrwt beam="2">  1       -1 0.21073594E-02 0.90230794E+02</pdfrwt>
<totfact> 0.11512997E+05</totfact>
</mgrwt>
</event>
<event>
 7    1  0.2787125E-009  0.8612361E+02  0.7818608E-02  0.1312520E+00
          1   -1    0    0  501    0  0.00000000000E+00  0.00000000000E+00  0.27699787509E+02  0.27699787968E+02  0.50400000000E-02 0. -1.
         -1   -1    0    0    0  501 -0.00000000000E+00 -0.00000000000E+00 -0.66943439387E+02  0.66943439576E+02  0.50400000000E-02 0.  1.
         23    2    1    2    0    0  0.00000000000E+00  0.00000000000E+00 -0.39243651878E+02  0.94643227544E+02  0.86123610626E+02 0.  0.
    9000005    2    3    3    0    0  0.40611124745E+01  0.41393298638E+02 -0.26436583423E+02  0.51124050059E+02  0.13596975570E+02 0.  0.
         22    1    3    3    0    0 -0.40611124745E+01 -0.41393298638E+02 -0.12807068454E+02  0.43519177486E+02  0.00000000000E+00 0. -1.
         22    1    4    4    0    0 -0.13504079245E+01  0.32180563434E+02 -0.15189152978E+02  0.35610709522E+02  0.00000000000E+00 0. -1.
         22    1    4    4    0    0  0.54115203990E+01  0.92127352032E+01 -0.11247430446E+02  0.15513340536E+02  0.00000000000E+00 0. -1.
<mgrwt>
<rscale>  0 0.86123611E+02</rscale>
<asrwt>0</asrwt>
<pdfrwt beam="1">  1        1 0.42615058E-02 0.86123611E+02</pdfrwt>
<pdfrwt beam="2">  1       -1 0.10298991E-01 0.86123611E+02</pdfrwt>
<totfact> 0.10075875E+05</totfact>
</mgrwt>
</event>
<event>
 7    1  0.2787125E-009  0.8355673E+02  0.7818608E-02  0.1319251E+00
         -1   -1    0    0    0  501 -0.00000000000E+00  0.00000000000E+00  0.83782276471E+01  0.83782291630E+01  0.50400000000E-02 0. -1.
          1   -1    0    0  501    0  0.00000000000E+00 -0.00000000000E+00 -0.20832947528E+03  0.20832947534E+03  0.50400000000E-02 0.  1.
         23    2    1    2    0    0  0.00000000000E+00  0.35527136788E-14 -0.19995124763E+03  0.21670770450E+03  0.83556733788E+02 0.  0.
    9000005    2    3    3    0    0 -0.24099567245E+02 -0.29713672063E+02 -0.62630369035E+02  0.74156958635E+02  0.10630142977E+02 0.  0.
         22    1    3    3    0    0  0.24099567245E+02  0.29713672063E+02 -0.13732087860E+03  0.14255074587E+03  0.00000000000E+00 0.  1.
         22    1    4    4    0    0 -0.13377019310E+02 -0.83920168801E+01 -0.23132174151E+02  0.28008357215E+02  0.00000000000E+00 0. -1.
         22    1    4    4    0    0 -0.10722547935E+02 -0.21321655183E+02 -0.39498194883E+02  0.46148601420E+02  0.00000000000E+00 0. -1.
<mgrwt>
<rscale>  0 0.83556734E+02</rscale>
<asrwt>0</asrwt>
<pdfrwt beam="2">  1        1 0.32050685E-01 0.83556734E+02</pdfrwt>
<pdfrwt beam="1">  1       -1 0.12889584E-02 0.83556734E+02</pdfrwt>
<totfact> 0.15060928E+05</totfact>
</mgrwt>
</event>
<event>
 7    1  0.2787125E-009  0.9155758E+02  0.7818608E-02  0.1299123E+00
          1   -1    0    0  501    0  0.00000000000E+00  0.00000000000E+00  0.36332081888E+03  0.36332081891E+03  0.50400000000E-02 0. -1.
         -1   -1    0    0    0  501 -0.00000000000E+00 -0.00000000000E+00 -0.57681724371E+01  0.57681746389E+01  0.50400000000E-02 0.  1.
         23    2    1    2    0    0  0.00000000000E+00  0.00000000000E+00  0.35755264644E+03  0.36908899355E+03  0.91557578519E+02 0.  0.
    9000005    2    3    3    0    0  0.23065215556E+02  0.37013966870E+02  0.12774977151E+03  0.13518431374E+03  0.72633771721E+01 0.  0.
         22    1    3    3    0    0 -0.23065215556E+02 -0.37013966870E+02  0.22980287493E+03  0.23390467981E+03  0.00000000000E+00 0. -1.
         22    1    4    4    0    0  0.90559423497E+01  0.93350551381E+01  0.32316384869E+02  0.34835356712E+02  0.00000000000E+00 0.  1.
         22    1    4    4    0    0  0.14009273207E+02  0.27678911732E+02  0.95433386646E+02  0.10034895703E+03  0.00000000000E+00 0.  1.
<mgrwt>
<rscale>  0 0.91557579E+02</rscale>
<asrwt>0</asrwt>
<pdfrwt beam="1">  1        1 0.55895516E-01 0.91557579E+02</pdfrwt>
<pdfrwt beam="2">  1       -1 0.88741123E-03 0.91557579E+02</pdfrwt>
<totfact> 0.13124218E+05</totfact>
</mgrwt>
</event>
<event>
 7    1  0.2787125E-009  0.8920407E+02  0.7818608E-02  0.1304791E+00
          1   -1    0    0  501    0  0.00000000000E+00  0.00000000000E+00  0.25914681599E+02  0.25914682089E+02  0.50400000000E-02 0. -1.
         -1   -1    0    0    0  501 -0.00000000000E+00 -0.00000000000E+00 -0.76765039100E+02  0.76765039265E+02  0.50400000000E-02 0.  1.
         23    2    1    2    0    0  0.00000000000E+00  0.00000000000E+00 -0.50850357500E+02  0.10267972135E+03  0.89204071205E+02 0.  0.
    9000005    2    3    3    0    0 -0.31844663404E+02  0.85661235646E+01 -0.59022299081E+02  0.68705588702E+02  0.12221500315E+02 0.  0.
         22    1    3    3    0    0  0.31844663404E+02 -0.85661235646E+01  0.81719415802E+01  0.33974132652E+02  0.00000000000E+00 0. -1.
         22    1    4    4    0    0 -0.43375359327E+01 -0.30359040597E+01 -0.97501519898E+01  0.11094881489E+02  0.00000000000E+00 0.  1.
         22    1    4    4    0    0 -0.27507127471E+02  0.11602027624E+02 -0.49272147091E+02  0.57610707214E+02  0.00000000000E+00 0.  1.
<mgrwt>
<rscale>  0 0.89204071E+02</rscale>
<asrwt>0</asrwt>
<pdfrwt beam="1">  1        1 0.39868742E-02 0.89204071E+02</pdfrwt>
<pdfrwt beam="2">  1       -1 0.11810006E-01 0.89204071E+02</pdfrwt>
<totfact> 0.90136300E+04</totfact>
</mgrwt>
</event>
<event>
 7    1  0.2787125E-009  0.8611305E+02  0.7818608E-02  0.1312547E+00
          1   -1    0    0  501    0  0.00000000000E+00  0.00000000000E+00  0.77190869434E+02  0.77190869599E+02  0.50400000000E-02 0. -1.
         -1   -1    0    0    0  501 -0.00000000000E+00 -0.00000000000E+00 -0.24016625026E+02  0.24016625555E+02  0.50400000000E-02 0.  1.
         23    2    1    2    0    0  0.00000000000E+00  0.00000000000E+00  0.53174244408E+02  0.10120749515E+03  0.86113046671E+02 0.  0.
    9000005    2    3    3    0    0  0.20769326212E+02  0.32295815664E+02  0.48225567223E+02  0.62492200675E+02  0.10255983157E+02 0.  0.
         22    1    3    3    0    0 -0.20769326212E+02 -0.32295815664E+02  0.49486771846E+01  0.38715294479E+02  0.00000000000E+00 0.  1.
         22    1    4    4    0    0  0.30387128434E+01  0.77919292261E+01  0.17402955787E+02  0.19308309271E+02  0.00000000000E+00 0.  1.
         22    1    4    4    0    0  0.17730613369E+02  0.24503886438E+02  0.30822611436E+02  0.43183891404E+02  0.00000000000E+00 0.  1.
<mgrwt>
<rscale>  0 0.86113047E+02</rscale>
<asrwt>0</asrwt>
<pdfrwt beam="1">  1        1 0.11875518E-01 0.86113047E+02</pdfrwt>
<pdfrwt beam="2">  1       -1 0.36948655E-02 0.86113047E+02</pdfrwt>
<totfact> 0.11712509E+05</totfact>
</mgrwt>
</event>
<event>
 7    1  0.2787125E-009  0.9088870E+02  0.7818608E-02  0.1300714E+00
          1   -1    0    0  501    0  0.00000000000E+00  0.00000000000E+00  0.84689896087E+02  0.84689896237E+02  0.50400000000E-02 0. -1.
         -1   -1    0    0    0  501 -0.00000000000E+00 -0.00000000000E+00 -0.24385307006E+02  0.24385307526E+02  0.50400000000E-02 0.  1.
         23    2    1    2    0    0  0.35527136788E-14  0.00000000000E+00  0.60304589081E+02  0.10907520376E+03  0.90888704533E+02 0.  0.
    9000005    2    3    3    0    0  0.31591455382E+02  0.13598668893E+02 -0.32870162498E+01  0.36778342715E+02  0.12605481673E+02 0.  0.
         22    1    3    3    0    0 -0.31591455382E+02 -0.13598668893E+02  0.63591605331E+02  0.72296861048E+02  0.00000000000E+00 0.  1.
         22    1    4    4    0    0  0.12604644274E+02  0.74273426960E+01  0.45639813917E+01  0.15325547394E+02  0.00000000000E+00 0. -1.
         22    1    4    4    0    0  0.18986811109E+02  0.61713261971E+01 -0.78509976416E+01  0.21452795321E+02  0.00000000000E+00 0. -1.
<mgrwt>
<rscale>  0 0.90888705E+02</rscale>
<asrwt>0</asrwt>
<pdfrwt beam="1">  1        1 0.13029215E-01 0.90888705E+02</pdfrwt>
<pdfrwt beam="2">  1       -1 0.37515858E-02 0.90888705E+02</pdfrwt>
<totfact> 0.10254500E+05</totfact>
</mgrwt>
</event>
<event>
 7    1  0.2787125E-009  0.8997547E+02  0.7818608E-02  0.1302911E+00
          1   -1    0    0  501    0  0.00000000000E+00  0.00000000000E+00  0.20254706847E+03  0.20254706853E+03  0.50400000000E-02 0. -1.
         -1   -1    0    0    0  501 -0.00000000000E+00 -0.00000000000E+00 -0.99922262256E+01  0.99922274966E+01  0.50400000000E-02 0.  1.
         23    2    1    2    0    0  0.00000000000E+00  0.35527136788E-14  0.19255484224E+03  0.21253929603E+03  0.89975469351E+02 0.  0.
    9000005    2    3    3    0    0 -0.31556206126E+02  0.24924885625E+02  0.14210143408E+03  0.14802115545E+03  0.10020021174E+02 0.  0.
         22    1    3    3    0    0  0.31556206126E+02 -0.24924885625E+02  0.50453408161E+02  0.64518140577E+02  0.00000000000E+00 0.  1.
         22    1    4    4    0    0 -0.29153318077E+02  0.18643228691E+02  0.11469977701E+03  0.11980619674E+03  0.00000000000E+00 0. -1.
         22    1    4    4    0    0 -0.24028880491E+01  0.62816569335E+01  0.27401657076E+02  0.28214958716E+02  0.00000000000E+00 0. -1.
<mgrwt>
<rscale>  0 0.89975469E+02</rscale>
<asrwt>0</asrwt>
<pdfrwt beam="1">  1        1 0.31161087E-01 0.89975469E+02</pdfrwt>
<pdfrwt beam="2">  1       -1 0.15372657E-02 0.89975469E+02</pdfrwt>
<totfact> 0.12298863E+05</totfact>
</mgrwt>
</event>
<event>
 7    1  0.2787125E-009  0.8863460E+02  0.7818608E-02  0.1306192E+00
         -1   -1    0    0    0  501 -0.00000000000E+00  0.00000000000E+00  0.27677832080E+02  0.27677832539E+02  0.50400000000E-02 0.  1.
          1   -1    0    0  501    0  0.00000000000E+00 -0.00000000000E+00 -0.70960141111E+02  0.70960141290E+02  0.50400000000E-02 0. -1.
         23    2    1    2    0    0  0.00000000000E+00  0.22204460493E-15 -0.43282309031E+02  0.98637973829E+02  0.88634595989E+02 0.  0.
    9000005    2    3    3    0    0 -0.17337161284E+02  0.18081148191E+01 -0.66544074254E+02  0.69569844171E+02  0.10392447212E+02 0.  0.
         22    1    3    3    0    0  0.17337161284E+02 -0.18081148191E+01  0.23261765223E+02  0.29068129659E+02  0.00000000000E+00 0.  1.
         22    1    4    4    0    0 -0.83349972833E+01  0.12064465352E+00 -0.49723084354E+02  0.50416979804E+02  0.00000000000E+00 0. -1.
         22    1    4    4    0    0 -0.90021640004E+01  0.16874701656E+01 -0.16820989900E+02  0.19152864367E+02  0.00000000000E+00 0. -1.
<mgrwt>
<rscale>  0 0.88634596E+02</rscale>
<asrwt>0</asrwt>
<pdfrwt beam="2">  1        1 0.10916945E-01 0.88634596E+02</pdfrwt>
<pdfrwt beam="1">  1       -1 0.42581281E-02 0.88634596E+02</pdfrwt>
<totfact> 0.10686690E+05</totfact>
</mgrwt>
</event>
<event>
 7    1  0.2787125E-009  0.8941037E+02  0.7818608E-02  0.1304286E+00
         -1   -1    0    0    0  501 -0.00000000000E+00  0.00000000000E+00  0.23184956079E+02  0.23184956626E+02  0.50400000000E-02 0.  1.
          1   -1    0    0  501    0  0.00000000000E+00 -0.00000000000E+00 -0.86200443388E+02  0.86200443536E+02  0.50400000000E-02 0. -1.
         23    2    1    2    0    0  0.00000000000E+00  0.00000000000E+00 -0.63015487310E+02  0.10938540016E+03  0.89410369240E+02 0.  0.
    9000005    2    3    3    0    0 -0.17469499388E+02  0.38929358069E+02 -0.20804746185E+02  0.49365195274E+02  0.13542773427E+02 0.  0.
         22    1    3    3    0    0  0.17469499388E+02 -0.38929358069E+02 -0.42210741125E+02  0.60020204888E+02  0.00000000000E+00 0. -1.
         22    1    4    4    0    0 -0.14034741535E+02  0.17221371778E+02 -0.14393368860E+02  0.26471091459E+02  0.00000000000E+00 0.  1.
         22    1    4    4    0    0 -0.34347578531E+01  0.21707986290E+02 -0.64113773249E+01  0.22894103815E+02  0.00000000000E+00 0.  1.
<mgrwt>
<rscale>  0 0.89410369E+02</rscale>
<asrwt>0</asrwt>
<pdfrwt beam="2">  1        1 0.13261607E-01 0.89410369E+02</pdfrwt>
<pdfrwt beam="1">  1       -1 0.35669164E-02 0.89410369E+02</pdfrwt>
<totfact> 0.10754650E+05</totfact>
</mgrwt>
</event>
<event>
 7    1  0.2787125E-009  0.9351548E+02  0.7818608E-02  0.1294555E+00
         -1   -1    0    0    0  501 -0.00000000000E+00  0.00000000000E+00  0.12175541214E+01  0.12175645528E+01  0.50400000000E-02 0.  1.
          1   -1    0    0  501    0  0.00000000000E+00 -0.00000000000E+00 -0.17956301679E+04  0.17956301679E+04  0.50400000000E-02 0. -1.
         23    2    1    2    0    0 -0.17763568394E-14 -0.44408920985E-15 -0.17944126138E+04  0.17968477325E+04  0.93515480849E+02 0.  0.
    9000005    2    3    3    0    0  0.15317225394E+02  0.10952207618E+01 -0.17442656793E+04  0.17444022184E+04  0.15508799109E+02 0.  0.
         22    1    3    3    0    0 -0.15317225394E+02 -0.10952207618E+01 -0.50146934526E+02  0.52445514056E+02  0.00000000000E+00 0.  1.
         22    1    4    4    0    0  0.40762937127E+01 -0.69090065402E+01 -0.65705699879E+03  0.65710596573E+03  0.00000000000E+00 0. -1.
         22    1    4    4    0    0  0.11240931681E+02  0.80042273020E+01 -0.10872086805E+04  0.10872962527E+04  0.00000000000E+00 0. -1.
<mgrwt>
<rscale>  0 0.93515481E+02</rscale>
<asrwt>0</asrwt>
<pdfrwt beam="2">  1        1 0.27624868E+00 0.93515481E+02</pdfrwt>
<pdfrwt beam="1">  1       -1 0.18731826E-03 0.93515481E+02</pdfrwt>
<totfact> 0.86252911E+04</totfact>
</mgrwt>
</event>
<event>
 7    1  0.2787125E-009  0.9077043E+02  0.7818608E-02  0.1300997E+00
          1   -1    0    0  501    0  0.00000000000E+00  0.00000000000E+00  0.31472333429E+02  0.31472333833E+02  0.50400000000E-02 0. -1.
         -1   -1    0    0    0  501 -0.00000000000E+00 -0.00000000000E+00 -0.65448524811E+02  0.65448525005E+02  0.50400000000E-02 0.  1.
         23    2    1    2    0    0  0.00000000000E+00 -0.35527136788E-14 -0.33976191382E+02  0.96920858838E+02  0.90770431843E+02 0.  0.
    9000005    2    3    3    0    0 -0.33385337338E+02  0.22302949810E+02  0.27584489037E+01  0.42501780232E+02  0.13667112466E+02 0.  0.
         22    1    3    3    0    0  0.33385337338E+02 -0.22302949810E+02 -0.36734640286E+02  0.54419078606E+02  0.00000000000E+00 0.  1.
         22    1    4    4    0    0 -0.19873059370E+02  0.62446952945E+01  0.49189360427E+01  0.21403986541E+02  0.00000000000E+00 0.  1.
         22    1    4    4    0    0 -0.13512277968E+02  0.16058254516E+02 -0.21604871390E+01  0.21097793691E+02  0.00000000000E+00 0.  1.
<mgrwt>
<rscale>  0 0.90770432E+02</rscale>
<asrwt>0</asrwt>
<pdfrwt beam="1">  1        1 0.48418975E-02 0.90770432E+02</pdfrwt>
<pdfrwt beam="2">  1       -1 0.10069004E-01 0.90770432E+02</pdfrwt>
<totfact> 0.88476045E+04</totfact>
</mgrwt>
</event>
<event>
 7    1  0.2787125E-009  0.9160572E+02  0.7818608E-02  0.1299009E+00
          1   -1    0    0  501    0  0.00000000000E+00  0.00000000000E+00  0.29937572809E+03  0.29937572814E+03  0.50400000000E-02 0. -1.
         -1   -1    0    0    0  501 -0.00000000000E+00 -0.00000000000E+00 -0.70075879113E+01  0.70075897237E+01  0.50400000000E-02 0.  1.
         23    2    1    2    0    0  0.00000000000E+00 -0.17763568394E-14  0.29236814018E+03  0.30638331786E+03  0.91605720723E+02 0.  0.
    9000005    2    3    3    0    0  0.34836619488E+02  0.13583341146E+02  0.23196177796E+03  0.23534089524E+03  0.13452632701E+02 0.  0.
         22    1    3    3    0    0 -0.34836619488E+02 -0.13583341146E+02  0.60406362227E+02  0.71042422619E+02  0.00000000000E+00 0.  1.
         22    1    4    4    0    0  0.16079951145E+01  0.16459286114E+01  0.36475701316E+01  0.43127134320E+01  0.00000000000E+00 0.  1.
         22    1    4    4    0    0  0.33228624374E+02  0.11937412535E+02  0.22831420782E+03  0.23102818181E+03  0.00000000000E+00 0.  1.
<mgrwt>
<rscale>  0 0.91605721E+02</rscale>
<asrwt>0</asrwt>
<pdfrwt beam="1">  1        1 0.46057810E-01 0.91605721E+02</pdfrwt>
<pdfrwt beam="2">  1       -1 0.10780905E-02 0.91605721E+02</pdfrwt>
<totfact> 0.12647813E+05</totfact>
</mgrwt>
</event>
<event>
 7    1  0.2787125E-009  0.9056091E+02  0.7818608E-02  0.1301499E+00
          1   -1    0    0  501    0  0.00000000000E+00  0.00000000000E+00  0.20491094230E+03  0.20491094236E+03  0.50400000000E-02 0. -1.
         -1   -1    0    0    0  501 -0.00000000000E+00 -0.00000000000E+00 -0.10005906092E+02  0.10005907361E+02  0.50400000000E-02 0.  1.
         23    2    1    2    0    0  0.00000000000E+00 -0.17763568394E-14  0.19490503621E+03  0.21491684972E+03  0.90560914062E+02 0.  0.
    9000005    2    3    3    0    0  0.15130995710E+02  0.15389055585E+02  0.19131164350E+03  0.19303803499E+03  0.14062999363E+02 0.  0.
         22    1    3    3    0    0 -0.15130995710E+02 -0.15389055585E+02  0.35933927071E+01  0.21878814733E+02  0.00000000000E+00 0.  1.
         22    1    4    4    0    0  0.57992979825E+01 -0.66977556686E+00  0.77624023394E+02  0.77843236471E+02  0.00000000000E+00 0.  1.
         22    1    4    4    0    0  0.93316977271E+01  0.16058831152E+02  0.11368762011E+03  0.11519479852E+03  0.00000000000E+00 0.  1.
<mgrwt>
<rscale>  0 0.90560914E+02</rscale>
<asrwt>0</asrwt>
<pdfrwt beam="1">  1        1 0.31524757E-01 0.90560914E+02</pdfrwt>
<pdfrwt beam="2">  1       -1 0.15393705E-02 0.90560914E+02</pdfrwt>
<totfact> 0.12114465E+05</totfact>
</mgrwt>
</event>
<event>
 7    1  0.3336378E-009  0.8851449E+02  0.7818608E-02  0.1306489E+00
         -1   -1    0    0    0  501 -0.00000000000E+00  0.00000000000E+00  0.14945774109E+03  0.14945774117E+03  0.50400000000E-02 0.  1.
          1   -1    0    0  501    0  0.00000000000E+00 -0.00000000000E+00 -0.13105402030E+02  0.13105403000E+02  0.50400000000E-02 0. -1.
         23    2    1    2    0    0 -0.35527136788E-14 -0.35527136788E-14  0.13635233906E+03  0.16256314417E+03  0.88514493032E+02 0.  0.
    9000005    2    3    3    0    0  0.17316328761E+02  0.31662257664E+02  0.11366262471E+03  0.11993478578E+03  0.12759576064E+02 0.  0.
         22    1    3    3    0    0 -0.17316328761E+02 -0.31662257664E+02  0.22689714342E+02  0.42628358390E+02  0.00000000000E+00 0.  1.
         22    1    4    4    0    0 -0.10606914687E+01 -0.40899505814E+00  0.59158141118E+01  0.60240517889E+01  0.00000000000E+00 0.  1.
         22    1    4    4    0    0  0.18377020229E+02  0.32071252722E+02  0.10774681060E+03  0.11391073399E+03  0.00000000000E+00 0.  1.
<mgrwt>
<rscale>  0 0.88514493E+02</rscale>
<asrwt>0</asrwt>
<pdfrwt beam="2">  1        1 0.20162158E-02 0.88514493E+02</pdfrwt>
<pdfrwt beam="1">  1       -1 0.22993498E-01 0.88514493E+02</pdfrwt>
<totfact> 0.80826603E+04</totfact>
</mgrwt>
</event>
<event>
 7    1  0.2787125E-009  0.9061752E+02  0.7818608E-02  0.1301363E+00
         -1   -1    0    0    0  501 -0.00000000000E+00  0.00000000000E+00  0.20730691266E+03  0.20730691272E+03  0.50400000000E-02 0.  1.
          1   -1    0    0  501    0  0.00000000000E+00 -0.00000000000E+00 -0.99026303766E+01  0.99026316591E+01  0.50400000000E-02 0. -1.
         23    2    1    2    0    0  0.71054273576E-14 -0.17763568394E-14  0.19740428228E+03  0.21720954438E+03  0.90617523173E+02 0.  0.
    9000005    2    3    3    0    0  0.43691814123E+02 -0.94388373919E+01  0.11320903974E+03  0.12188428467E+03  0.64362952863E+01 0.  0.
         22    1    3    3    0    0 -0.43691814123E+02  0.94388373919E+01  0.84195242541E+02  0.95325259712E+02  0.00000000000E+00 0. -1.
         22    1    4    4    0    0  0.65152259666E+01 -0.72020243564E+00  0.23250806008E+02  0.24157128161E+02  0.00000000000E+00 0. -1.
         22    1    4    4    0    0  0.37176588156E+02 -0.87186349562E+01  0.89958233732E+02  0.97727156505E+02  0.00000000000E+00 0. -1.
<mgrwt>
<rscale>  0 0.90617523E+02</rscale>
<asrwt>0</asrwt>
<pdfrwt beam="2">  1        1 0.15234817E-02 0.90617523E+02</pdfrwt>
<pdfrwt beam="1">  1       -1 0.31893371E-01 0.90617523E+02</pdfrwt>
<totfact> 0.69816444E+04</totfact>
</mgrwt>
</event>
<event>
 7    1  0.3980749E-009  0.9217143E+02  0.7818608E-02  0.1297677E+00
          1   -1    0    0  501    0  0.00000000000E+00  0.00000000000E+00  0.20495265194E+03  0.20495265200E+03  0.50400000000E-02 0. -1.
         -1   -1    0    0    0  501 -0.00000000000E+00 -0.00000000000E+00 -0.10362847574E+02  0.10362848800E+02  0.50400000000E-02 0.  1.
         23    2    1    2    0    0  0.00000000000E+00  0.00000000000E+00  0.19458980437E+03  0.21531550080E+03  0.92171432246E+02 0.  0.
    9000005    2    3    3    0    0  0.16997134355E+02  0.41289755554E+02  0.10759346989E+03  0.11752946549E+03  0.15590830800E+02 0.  0.
         22    1    3    3    0    0 -0.16997134355E+02 -0.41289755554E+02  0.86996334479E+02  0.97786035316E+02  0.00000000000E+00 0.  1.
         22    1    4    4    0    0  0.11119622572E+02  0.33059704304E+02  0.65167510087E+02  0.73914778128E+02  0.00000000000E+00 0. -1.
         22    1    4    4    0    0  0.58775117832E+01  0.82300512503E+01  0.42425959800E+02  0.43614687358E+02  0.00000000000E+00 0. -1.
<mgrwt>
<rscale>  0 0.92171432E+02</rscale>
<asrwt>0</asrwt>
<pdfrwt beam="1">  1        1 0.31531179E-01 0.92171432E+02</pdfrwt>
<pdfrwt beam="2">  1       -1 0.15942843E-02 0.92171432E+02</pdfrwt>
<totfact> 0.11555492E+05</totfact>
</mgrwt>
</event>
<event>
 7    1  0.2787125E-009  0.9010253E+02  0.7818608E-02  0.1302604E+00
          1   -1    0    0  501    0  0.00000000000E+00  0.00000000000E+00  0.12208906608E+02  0.12208907649E+02  0.50400000000E-02 0. -1.
         -1   -1    0    0    0  501 -0.00000000000E+00 -0.00000000000E+00 -0.16624061905E+03  0.16624061913E+03  0.50400000000E-02 0.  1.
         23    2    1    2    0    0  0.00000000000E+00  0.22204460493E-15 -0.15403171245E+03  0.17844952678E+03  0.90102525873E+02 0.  0.
    9000005    2    3    3    0    0  0.43796243408E+02  0.19687105978E+01 -0.90946147759E+02  0.10162651441E+03  0.11608612331E+02 0.  0.
         22    1    3    3    0    0 -0.43796243408E+02 -0.19687105978E+01 -0.63085564687E+02  0.76823012372E+02  0.00000000000E+00 0. -1.
         22    1    4    4    0    0  0.10110000227E+02  0.27182108149E+01 -0.12872059804E+02  0.16591886518E+02  0.00000000000E+00 0.  1.
         22    1    4    4    0    0  0.33686243181E+02 -0.74950021707E+00 -0.78074087956E+02  0.85034627890E+02  0.00000000000E+00 0.  1.
<mgrwt>
<rscale>  0 0.90102526E+02</rscale>
<asrwt>0</asrwt>
<pdfrwt beam="1">  1        1 0.18782935E-02 0.90102526E+02</pdfrwt>
<pdfrwt beam="2">  1       -1 0.25575478E-01 0.90102526E+02</pdfrwt>
<totfact> 0.75229288E+04</totfact>
</mgrwt>
</event>
<event>
 6    1  0.2787125E-009  0.2740349E+03  0.7818608E-02  0.1098992E+00
          1   -1    0    0  501    0  0.00000000000E+00  0.00000000000E+00  0.25721810685E+02  0.25721811179E+02  0.50400000000E-02 0. -1.
         -1   -1    0    0    0  501 -0.00000000000E+00 -0.00000000000E+00 -0.72987798863E+03  0.72987798865E+03  0.50400000000E-02 0.  1.
    9000005    2    1    2    0    0  0.65118930591E+02 -0.12369963968E+02 -0.68258532271E+03  0.68589475750E+03  0.11636342267E+02 0.  0.
         22    1    1    2    0    0 -0.65118930591E+02  0.12369963968E+02 -0.21570855237E+02  0.69705042326E+02  0.00000000000E+00 0. -1.
         22    1    3    3    0    0  0.51065212693E+02 -0.53023213786E+01 -0.54512848222E+03  0.54754071327E+03  0.00000000000E+00 0.  1.
         22    1    3    3    0    0  0.14053717899E+02 -0.70676425892E+01 -0.13745684049E+03  0.13835404423E+03  0.00000000000E+00 0.  1.
<mgrwt>
<rscale>  0 0.27403491E+03</rscale>
<asrwt>0</asrwt>
<pdfrwt beam="1">  1        1 0.39572022E-02 0.27403491E+03</pdfrwt>
<pdfrwt beam="2">  1       -1 0.11228891E+00 0.27403491E+03</pdfrwt>
<totfact> 0.17838797E+03</totfact>
</mgrwt>
</event>
<event>
 7    1  0.2787125E-009  0.9420650E+02  0.7818608E-02  0.1292973E+00
         -1   -1    0    0    0  501 -0.00000000000E+00  0.00000000000E+00  0.12914701048E+02  0.12914702032E+02  0.50400000000E-02 0.  1.
          1   -1    0    0  501    0  0.00000000000E+00 -0.00000000000E+00 -0.17179769379E+03  0.17179769386E+03  0.50400000000E-02 0. -1.
         23    2    1    2    0    0  0.00000000000E+00 -0.17763568394E-14 -0.15888299274E+03  0.18471239589E+03  0.94206495608E+02 0.  0.
    9000005    2    3    3    0    0  0.32534524066E+02 -0.11105495925E+02 -0.14142548829E+03  0.14615605066E+03  0.13363948180E+02 0.  0.
         22    1    3    3    0    0 -0.32534524066E+02  0.11105495925E+02 -0.17457504448E+02  0.38556345230E+02  0.00000000000E+00 0.  1.
         22    1    4    4    0    0  0.23194679815E+02 -0.83646531551E+01 -0.12154295874E+03  0.12401875428E+03  0.00000000000E+00 0. -1.
         22    1    4    4    0    0  0.93398442516E+01 -0.27408427702E+01 -0.19882529549E+02  0.22137296379E+02  0.00000000000E+00 0. -1.
<mgrwt>
<rscale>  0 0.94206496E+02</rscale>
<asrwt>0</asrwt>
<pdfrwt beam="2">  1        1 0.26430413E-01 0.94206496E+02</pdfrwt>
<pdfrwt beam="1">  1       -1 0.19868773E-02 0.94206496E+02</pdfrwt>
<totfact> 0.10529971E+05</totfact>
</mgrwt>
</event>
<event>
 7    1  0.2787125E-009  0.1002373E+03  0.7818608E-02  0.1279798E+00
         -1   -1    0    0    0  501 -0.00000000000E+00  0.00000000000E+00  0.17706786381E+02  0.17706787098E+02  0.50400000000E-02 0.  1.
          1   -1    0    0  501    0  0.00000000000E+00 -0.00000000000E+00 -0.14185958983E+03  0.14185958992E+03  0.50400000000E-02 0. -1.
         23    2    1    2    0    0  0.00000000000E+00  0.00000000000E+00 -0.12415280345E+03  0.15956637702E+03  0.10023726887E+03 0.  0.
    9000005    2    3    3    0    0 -0.19867853743E+02  0.32856615503E+02 -0.13008730248E+02  0.41976863019E+02  0.10887661438E+02 0.  0.
         22    1    3    3    0    0  0.19867853743E+02 -0.32856615503E+02 -0.11114407320E+03  0.11758951400E+03  0.00000000000E+00 0. -1.
         22    1    4    4    0    0 -0.20790288884E+02  0.32955789676E+02 -0.12516112003E+02  0.40926436990E+02  0.00000000000E+00 0.  1.
         22    1    4    4    0    0  0.92243514124E+00 -0.99174172969E-01 -0.49261824576E+00  0.10504260290E+01  0.00000000000E+00 0.  1.
<mgrwt>
<rscale>  0 0.10023727E+03</rscale>
<asrwt>0</asrwt>
<pdfrwt beam="2">  1        1 0.21824552E-01 0.10023727E+03</pdfrwt>
<pdfrwt beam="1">  1       -1 0.27241211E-02 0.10023727E+03</pdfrwt>
<totfact> 0.85795887E+04</totfact>
</mgrwt>
</event>
<event>
 7    1  0.2787125E-009  0.9282859E+02  0.7818608E-02  0.1296143E+00
         -1   -1    0    0    0  501 -0.00000000000E+00  0.00000000000E+00  0.15541324154E+02  0.15541324971E+02  0.50400000000E-02 0.  1.
          1   -1    0    0  501    0  0.00000000000E+00 -0.00000000000E+00 -0.13861667784E+03  0.13861667794E+03  0.50400000000E-02 0. -1.
         23    2    1    2    0    0  0.71054273576E-14 -0.35527136788E-14 -0.12307535369E+03  0.15415800291E+03  0.92828590284E+02 0.  0.
    9000005    2    3    3    0    0  0.37628036612E+02 -0.20202042790E+02 -0.91063978449E+02  0.10078460301E+03  0.63950261796E+01 0.  0.
         22    1    3    3    0    0 -0.37628036612E+02  0.20202042790E+02 -0.32011375241E+02  0.53373399901E+02  0.00000000000E+00 0.  1.
         22    1    4    4    0    0  0.32305087669E+02 -0.19630681682E+02 -0.78504258037E+02  0.87131514864E+02  0.00000000000E+00 0. -1.
         22    1    4    4    0    0  0.53229489424E+01 -0.57136110858E+00 -0.12559720412E+02  0.13653088141E+02  0.00000000000E+00 0. -1.
<mgrwt>
<rscale>  0 0.92828590E+02</rscale>
<asrwt>0</asrwt>
<pdfrwt beam="2">  1        1 0.21325642E-01 0.92828590E+02</pdfrwt>
<pdfrwt beam="1">  1       -1 0.23909731E-02 0.92828590E+02</pdfrwt>
<totfact> 0.10528637E+05</totfact>
</mgrwt>
</event>
<event>
 7    1  0.2787125E-009  0.9306326E+02  0.7818608E-02  0.1295599E+00
         -1   -1    0    0    0  501 -0.00000000000E+00  0.00000000000E+00  0.28049229744E+02  0.28049230197E+02  0.50400000000E-02 0.  1.
          1   -1    0    0  501    0  0.00000000000E+00 -0.00000000000E+00 -0.77192577666E+02  0.77192577831E+02  0.50400000000E-02 0. -1.
         23    2    1    2    0    0  0.00000000000E+00  0.00000000000E+00 -0.49143347922E+02  0.10524180803E+03  0.93063255434E+02 0.  0.
    9000005    2    3    3    0    0 -0.33207881822E+02  0.35985387719E+01  0.10151319247E+02  0.37186165711E+02  0.12808151367E+02 0.  0.
         22    1    3    3    0    0  0.33207881822E+02 -0.35985387719E+01 -0.59294667169E+02  0.68055642316E+02  0.00000000000E+00 0. -1.
         22    1    4    4    0    0 -0.24891112441E+02  0.27816304853E+01  0.13992010232E+01  0.25085109332E+02  0.00000000000E+00 0.  1.
         22    1    4    4    0    0 -0.83167693812E+01  0.81690828657E+00  0.87521182235E+01  0.12101056379E+02  0.00000000000E+00 0.  1.
<mgrwt>
<rscale>  0 0.93063255E+02</rscale>
<asrwt>0</asrwt>
<pdfrwt beam="2">  1        1 0.11875781E-01 0.93063255E+02</pdfrwt>
<pdfrwt beam="1">  1       -1 0.43152662E-02 0.93063255E+02</pdfrwt>
<totfact> 0.94684669E+04</totfact>
</mgrwt>
</event>
<event>
 7    1  0.2787125E-009  0.9087746E+02  0.7818608E-02  0.1300741E+00
         -1   -1    0    0    0  501 -0.00000000000E+00  0.00000000000E+00  0.99326518634E+02  0.99326518762E+02  0.50400000000E-02 0.  1.
          1   -1    0    0  501    0  0.00000000000E+00 -0.00000000000E+00 -0.20786774250E+02  0.20786774861E+02  0.50400000000E-02 0. -1.
         23    2    1    2    0    0  0.00000000000E+00  0.00000000000E+00  0.78539744384E+02  0.12011329362E+03  0.90877455164E+02 0.  0.
    9000005    2    3    3    0    0  0.16449231848E+02  0.39653586415E+02  0.19616525399E+02  0.47209728008E+02  0.98295773928E+00 0.  0.
         22    1    3    3    0    0 -0.16449231848E+02 -0.39653586415E+02  0.58923218984E+02  0.72903565615E+02  0.00000000000E+00 0.  1.
         22    1    4    4    0    0  0.11157400458E+02  0.27940723578E+02  0.13517344358E+02  0.32983180828E+02  0.00000000000E+00 0. -1.
         22    1    4    4    0    0  0.52918313895E+01  0.11712862837E+02  0.60991810410E+01  0.14226547180E+02  0.00000000000E+00 0. -1.
<mgrwt>
<rscale>  0 0.90877455E+02</rscale>
<asrwt>0</asrwt>
<pdfrwt beam="2">  1        1 0.31979653E-02 0.90877455E+02</pdfrwt>
<pdfrwt beam="1">  1       -1 0.15281003E-01 0.90877455E+02</pdfrwt>
<totfact> 0.82165548E+04</totfact>
</mgrwt>
</event>
<event>
 7    1  0.2787125E-009  0.9058077E+02  0.7818608E-02  0.1301451E+00
          1   -1    0    0  501    0  0.00000000000E+00  0.00000000000E+00  0.83893235727E+02  0.83893235878E+02  0.50400000000E-02 0. -1.
         -1   -1    0    0    0  501 -0.00000000000E+00 -0.00000000000E+00 -0.24450350605E+02  0.24450351124E+02  0.50400000000E-02 0.  1.
         23    2    1    2    0    0  0.00000000000E+00  0.71054273576E-14  0.59442885122E+02  0.10834358700E+03  0.90580771982E+02 0.  0.
    9000005    2    3    3    0    0  0.50523907672E+01  0.34451956353E+02 -0.39274328509E+01  0.36036871208E+02  0.84123366941E+01 0.  0.
         22    1    3    3    0    0 -0.50523907672E+01 -0.34451956353E+02  0.63370317973E+02  0.72306715794E+02  0.00000000000E+00 0. -1.
         22    1    4    4    0    0  0.53450731274E+01  0.33881653470E+02 -0.24048754890E+01  0.34384875668E+02  0.00000000000E+00 0.  1.
         22    1    4    4    0    0 -0.29268236017E+00  0.57030288244E+00 -0.15225573619E+01  0.16519955394E+01  0.00000000000E+00 0.  1.
<mgrwt>
<rscale>  0 0.90580772E+02</rscale>
<asrwt>0</asrwt>
<pdfrwt beam="1">  1        1 0.12906652E-01 0.90580772E+02</pdfrwt>
<pdfrwt beam="2">  1       -1 0.37615924E-02 0.90580772E+02</pdfrwt>
<totfact> 0.10334568E+05</totfact>
</mgrwt>
</event>
<event>
 7    1  0.2787125E-009  0.9053881E+02  0.7818608E-02  0.1301552E+00
         -1   -1    0    0    0  501 -0.00000000000E+00  0.00000000000E+00  0.14006983714E+02  0.14006984621E+02  0.50400000000E-02 0.  1.
          1   -1    0    0  501    0  0.00000000000E+00 -0.00000000000E+00 -0.14630692807E+03  0.14630692815E+03  0.50400000000E-02 0. -1.
         23    2    1    2    0    0  0.00000000000E+00  0.00000000000E+00 -0.13229994435E+03  0.16031391277E+03  0.90538805787E+02 0.  0.
    9000005    2    3    3    0    0 -0.40497240312E+02  0.17573609265E+02 -0.66410880463E+02  0.81002961729E+02  0.14220286548E+02 0.  0.
         22    1    3    3    0    0  0.40497240312E+02 -0.17573609265E+02 -0.65889063888E+02  0.79310951044E+02  0.00000000000E+00 0. -1.
         22    1    4    4    0    0 -0.24125648692E+02  0.60603731191E+01 -0.46700738433E+02  0.52912512861E+02  0.00000000000E+00 0.  1.
         22    1    4    4    0    0 -0.16371591620E+02  0.11513236146E+02 -0.19710142031E+02  0.28090448868E+02  0.00000000000E+00 0.  1.
<mgrwt>
<rscale>  0 0.90538806E+02</rscale>
<asrwt>0</asrwt>
<pdfrwt beam="2">  1        1 0.22508757E-01 0.90538806E+02</pdfrwt>
<pdfrwt beam="1">  1       -1 0.21549208E-02 0.90538806E+02</pdfrwt>
<totfact> 0.11375541E+05</totfact>
</mgrwt>
</event>
<event>
 7    1  0.2787125E-009  0.9140654E+02  0.7818608E-02  0.1299481E+00
         -1   -1    0    0    0  501 -0.00000000000E+00  0.00000000000E+00  0.73833595294E+02  0.73833595466E+02  0.50400000000E-02 0.  1.
          1   -1    0    0  501    0  0.00000000000E+00 -0.00000000000E+00 -0.28290495476E+02  0.28290495925E+02  0.50400000000E-02 0. -1.
         23    2    1    2    0    0  0.00000000000E+00  0.00000000000E+00  0.45543099817E+02  0.10212409139E+03  0.91406542990E+02 0.  0.
    9000005    2    3    3    0    0 -0.87661901852E+01  0.31146913202E+02  0.58507529588E+02  0.67266484880E+02  0.73940974572E+01 0.  0.
         22    1    3    3    0    0  0.87661901852E+01 -0.31146913202E+02 -0.12964429771E+02  0.34857606511E+02  0.00000000000E+00 0. -1.
         22    1    4    4    0    0  0.39159483481E-01  0.52952913926E+01  0.14900178342E+02  0.15813189401E+02  0.00000000000E+00 0. -1.
         22    1    4    4    0    0 -0.88053496687E+01  0.25851621809E+02  0.43607351246E+02  0.51453295479E+02  0.00000000000E+00 0. -1.
<mgrwt>
<rscale>  0 0.91406543E+02</rscale>
<asrwt>0</asrwt>
<pdfrwt beam="2">  1        1 0.43523841E-02 0.91406543E+02</pdfrwt>
<pdfrwt beam="1">  1       -1 0.11359014E-01 0.91406543E+02</pdfrwt>
<totfact> 0.85240088E+04</totfact>
</mgrwt>
</event>
<event>
 7    1  0.2787125E-009  0.8974408E+02  0.7818608E-02  0.1303473E+00
          1   -1    0    0  501    0  0.00000000000E+00  0.00000000000E+00  0.53051667552E+03  0.53051667554E+03  0.50400000000E-02 0. -1.
         -1   -1    0    0    0  501 -0.00000000000E+00 -0.00000000000E+00 -0.37953548029E+01  0.37953581493E+01  0.50400000000E-02 0.  1.
         23    2    1    2    0    0 -0.71054273576E-14  0.88817841970E-15  0.52672132072E+03  0.53431203369E+03  0.89744078643E+02 0.  0.
    9000005    2    3    3    0    0  0.43428980933E+02 -0.39305902834E+01  0.32264193793E+03  0.32562585685E+03  0.57317201705E+01 0.  0.
         22    1    3    3    0    0 -0.43428980933E+02  0.39305902834E+01  0.20407938279E+03  0.20868617684E+03  0.00000000000E+00 0. -1.
         22    1    4    4    0    0  0.33844469456E+01  0.11887744685E+01  0.29423060400E+02  0.29640920180E+02  0.00000000000E+00 0. -1.
         22    1    4    4    0    0  0.40044533988E+02 -0.51193647519E+01  0.29321887753E+03  0.29598493667E+03  0.00000000000E+00 0. -1.
<mgrwt>
<rscale>  0 0.89744079E+02</rscale>
<asrwt>0</asrwt>
<pdfrwt beam="1">  1        1 0.81617973E-01 0.89744079E+02</pdfrwt>
<pdfrwt beam="2">  1       -1 0.58390084E-03 0.89744079E+02</pdfrwt>
<totfact> 0.14617411E+05</totfact>
</mgrwt>
</event>
<event>
 7    1  0.2787125E-009  0.9450194E+02  0.7818608E-02  0.1292302E+00
         -1   -1    0    0    0  501 -0.00000000000E+00  0.00000000000E+00  0.14613691225E+03  0.14613691234E+03  0.50400000000E-02 0.  1.
          1   -1    0    0  501    0  0.00000000000E+00 -0.00000000000E+00 -0.15277823030E+02  0.15277823861E+02  0.50400000000E-02 0. -1.
         23    2    1    2    0    0  0.00000000000E+00  0.00000000000E+00  0.13085908922E+03  0.16141473620E+03  0.94501935591E+02 0.  0.
    9000005    2    3    3    0    0 -0.21338598149E+02  0.82278558052E+01  0.13540902790E+03  0.13809660325E+03  0.14561373884E+02 0.  0.
         22    1    3    3    0    0  0.21338598149E+02 -0.82278558052E+01 -0.45499386844E+01  0.23318132947E+02  0.00000000000E+00 0. -1.
         22    1    4    4    0    0 -0.18264700343E+01  0.64031743043E+01  0.51543709670E+02  0.51972017860E+02  0.00000000000E+00 0. -1.
         22    1    4    4    0    0 -0.19512128115E+02  0.18246815010E+01  0.83865318233E+02  0.86124585390E+02  0.00000000000E+00 0. -1.
<mgrwt>
<rscale>  0 0.94501936E+02</rscale>
<asrwt>0</asrwt>
<pdfrwt beam="2">  1        1 0.23504343E-02 0.94501936E+02</pdfrwt>
<pdfrwt beam="1">  1       -1 0.22482603E-01 0.94501936E+02</pdfrwt>
<totfact> 0.68554949E+04</totfact>
</mgrwt>
</event>
<event>
 7    1  0.2787125E-009  0.8326070E+02  0.7818608E-02  0.1320045E+00
         -1   -1    0    0    0  501 -0.00000000000E+00  0.00000000000E+00  0.75038351165E+01  0.75038368090E+01  0.50400000000E-02 0.  1.
          1   -1    0    0  501    0  0.00000000000E+00 -0.00000000000E+00 -0.23096002874E+03  0.23096002880E+03  0.50400000000E-02 0. -1.
         23    2    1    2    0    0  0.00000000000E+00  0.00000000000E+00 -0.22345619363E+03  0.23846386561E+03  0.83260703397E+02 0.  0.
    9000005    2    3    3    0    0  0.34002072595E+02  0.12781848681E+02 -0.65927987265E+02  0.76801710494E+02  0.15247512369E+02 0.  0.
         22    1    3    3    0    0 -0.34002072595E+02 -0.12781848681E+02 -0.15752820636E+03  0.16166215511E+03  0.00000000000E+00 0. -1.
         22    1    4    4    0    0  0.16373272001E+02  0.28614084312E+01 -0.16617982903E+02  0.23503809266E+02  0.00000000000E+00 0. -1.
         22    1    4    4    0    0  0.17628800594E+02  0.99204402495E+01 -0.49310004362E+02  0.53297901228E+02  0.00000000000E+00 0. -1.
<mgrwt>
<rscale>  0 0.83260703E+02</rscale>
<asrwt>0</asrwt>
<pdfrwt beam="2">  1        1 0.35532307E-01 0.83260703E+02</pdfrwt>
<pdfrwt beam="1">  1       -1 0.11544365E-02 0.83260703E+02</pdfrwt>
<totfact> 0.15505973E+05</totfact>
</mgrwt>
</event>
<event>
 7    1  0.2787125E-009  0.9072323E+02  0.7818608E-02  0.1301110E+00
         -1   -1    0    0    0  501 -0.00000000000E+00  0.00000000000E+00  0.17849952345E+02  0.17849953056E+02  0.50400000000E-02 0.  1.
          1   -1    0    0  501    0  0.00000000000E+00 -0.00000000000E+00 -0.11527627405E+03  0.11527627416E+03  0.50400000000E-02 0. -1.
         23    2    1    2    0    0  0.00000000000E+00  0.00000000000E+00 -0.97426321704E+02  0.13312622722E+03  0.90723228623E+02 0.  0.
    9000005    2    3    3    0    0  0.50986196226E+01 -0.40705769295E+02 -0.74450137327E+02  0.86106437504E+02  0.13730988885E+02 0.  0.
         22    1    3    3    0    0 -0.50986196226E+01  0.40705769295E+02 -0.22976184378E+02  0.47019789711E+02  0.00000000000E+00 0.  1.
         22    1    4    4    0    0  0.60657092685E+01 -0.34452428813E+02 -0.70346555223E+02  0.78564626339E+02  0.00000000000E+00 0.  1.
         22    1    4    4    0    0 -0.96708964597E+00 -0.62533404822E+01 -0.41035821032E+01  0.75418111650E+01  0.00000000000E+00 0.  1.
<mgrwt>
<rscale>  0 0.90723229E+02</rscale>
<asrwt>0</asrwt>
<pdfrwt beam="2">  1        1 0.17734811E-01 0.90723229E+02</pdfrwt>
<pdfrwt beam="1">  1       -1 0.27461466E-02 0.90723229E+02</pdfrwt>
<totfact> 0.10845107E+05</totfact>
</mgrwt>
</event>
<event>
 7    1  0.2787125E-009  0.9249238E+02  0.7818608E-02  0.1296926E+00
          1   -1    0    0  501    0  0.00000000000E+00  0.00000000000E+00  0.37403202078E+03  0.37403202082E+03  0.50400000000E-02 0. -1.
         -1   -1    0    0    0  501 -0.00000000000E+00 -0.00000000000E+00 -0.57179853075E+01  0.57179875287E+01  0.50400000000E-02 0.  1.
         23    2    1    2    0    0  0.00000000000E+00  0.00000000000E+00  0.36831403548E+03  0.37975000835E+03  0.92492378660E+02 0.  0.
    9000005    2    3    3    0    0 -0.26926827285E+02 -0.36907837702E+02  0.16799691656E+03  0.17428908592E+03  0.81534647403E+01 0.  0.
         22    1    3    3    0    0  0.26926827285E+02  0.36907837702E+02  0.20031711892E+03  0.20546092243E+03  0.00000000000E+00 0. -1.
         22    1    4    4    0    0 -0.13702100760E+02 -0.23709750508E+02  0.89286105251E+02  0.93391158175E+02  0.00000000000E+00 0. -1.
         22    1    4    4    0    0 -0.13224726526E+02 -0.13198087194E+02  0.78710811305E+02  0.80897927746E+02  0.00000000000E+00 0. -1.
<mgrwt>
<rscale>  0 0.92492379E+02</rscale>
<asrwt>0</asrwt>
<pdfrwt beam="1">  1        1 0.57543402E-01 0.92492379E+02</pdfrwt>
<pdfrwt beam="2">  1       -1 0.87969001E-03 0.92492379E+02</pdfrwt>
<totfact> 0.12838713E+05</totfact>
</mgrwt>
</event>
<event>
 6    1  0.2787125E-009  0.1326935E+03  0.7818608E-02  0.1223513E+00
         -1   -1    0    0    0  501 -0.00000000000E+00  0.00000000000E+00  0.18235100729E+02  0.18235101426E+02  0.50400000000E-02 0.  1.
          1   -1    0    0  501    0  0.00000000000E+00 -0.00000000000E+00 -0.24139669619E+03  0.24139669624E+03  0.50400000000E-02 0. -1.
    9000005    2    1    2    0    0 -0.63746394133E+02  0.83450094882E+00 -0.14670360654E+03  0.16008219583E+03  0.63294622398E+01 0.  0.
         22    1    1    2    0    0  0.63746394133E+02 -0.83450094882E+00 -0.76457988916E+02  0.99549601837E+02  0.00000000000E+00 0. -1.
         22    1    3    3    0    0 -0.55698027085E+02  0.17175276122E+01 -0.13234459907E+03  0.14359774729E+03  0.00000000000E+00 0.  1.
         22    1    3    3    0    0 -0.80483670478E+01 -0.88302666336E+00 -0.14359007470E+02  0.16484448543E+02  0.00000000000E+00 0.  1.
<mgrwt>
<rscale>  0 0.13269353E+03</rscale>
<asrwt>0</asrwt>
<pdfrwt beam="2">  1        1 0.37137951E-01 0.13269353E+03</pdfrwt>
<pdfrwt beam="1">  1       -1 0.28054003E-02 0.13269353E+03</pdfrwt>
<totfact> 0.44096487E+04</totfact>
</mgrwt>
</event>
<event>
 7    1  0.2787125E-009  0.9207726E+02  0.7818608E-02  0.1297898E+00
          1   -1    0    0  501    0  0.00000000000E+00  0.00000000000E+00  0.43273396973E+03  0.43273396976E+03  0.50400000000E-02 0. -1.
         -1   -1    0    0    0  501 -0.00000000000E+00 -0.00000000000E+00 -0.48980547829E+01  0.48980573759E+01  0.50400000000E-02 0.  1.
         23    2    1    2    0    0  0.17763568394E-14  0.00000000000E+00  0.42783591495E+03  0.43763202714E+03  0.92077255910E+02 0.  0.
    9000005    2    3    3    0    0  0.14047500578E+02  0.43547455284E+02  0.21722175271E+03  0.22210467744E+03  0.71752877049E+01 0.  0.
         22    1    3    3    0    0 -0.14047500578E+02 -0.43547455284E+02  0.21061416224E+03  0.21552734970E+03  0.00000000000E+00 0.  1.
         22    1    4    4    0    0  0.68302022441E+01  0.23624040399E+02  0.13326884891E+03  0.13551875530E+03  0.00000000000E+00 0.  1.
         22    1    4    4    0    0  0.72172983336E+01  0.19923414885E+02  0.83952903799E+02  0.86585922136E+02  0.00000000000E+00 0.  1.
<mgrwt>
<rscale>  0 0.92077256E+02</rscale>
<asrwt>0</asrwt>
<pdfrwt beam="1">  1        1 0.66574445E-01 0.92077256E+02</pdfrwt>
<pdfrwt beam="2">  1       -1 0.75354723E-03 0.92077256E+02</pdfrwt>
<totfact> 0.13305315E+05</totfact>
</mgrwt>
</event>
<event>
 7    1  0.2787125E-009  0.9167602E+02  0.7818608E-02  0.1298843E+00
          1   -1    0    0  501    0  0.00000000000E+00  0.00000000000E+00  0.75525132313E+02  0.75525132481E+02  0.50400000000E-02 0. -1.
         -1   -1    0    0    0  501 -0.00000000000E+00 -0.00000000000E+00 -0.27820182991E+02  0.27820183448E+02  0.50400000000E-02 0.  1.
         23    2    1    2    0    0  0.00000000000E+00  0.00000000000E+00  0.47704949322E+02  0.10334531593E+03  0.91676017227E+02 0.  0.
    9000005    2    3    3    0    0 -0.42801517243E+02  0.67597009673E+01  0.74238682685E+01  0.44182583349E+02  0.43958407469E+01 0.  0.
         22    1    3    3    0    0  0.42801517243E+02 -0.67597009673E+01  0.40281081054E+02  0.59162732580E+02  0.00000000000E+00 0.  1.
         22    1    4    4    0    0 -0.42065336154E+01  0.12095887372E+01 -0.46145218310E+00  0.44012461972E+01  0.00000000000E+00 0.  1.
         22    1    4    4    0    0 -0.38594983628E+02  0.55501122300E+01  0.78853204516E+01  0.39781337152E+02  0.00000000000E+00 0.  1.
<mgrwt>
<rscale>  0 0.91676017E+02</rscale>
<asrwt>0</asrwt>
<pdfrwt beam="1">  1        1 0.11619251E-01 0.91676017E+02</pdfrwt>
<pdfrwt beam="2">  1       -1 0.42800283E-02 0.91676017E+02</pdfrwt>
<totfact> 0.98347906E+04</totfact>
</mgrwt>
</event>
<event>
 7    1  0.2787125E-009  0.8878979E+02  0.7818608E-02  0.1305809E+00
          1   -1    0    0  501    0  0.00000000000E+00  0.00000000000E+00  0.85905990488E+01  0.85906005272E+01  0.50400000000E-02 0. -1.
         -1   -1    0    0    0  501 -0.00000000000E+00 -0.00000000000E+00 -0.22942599057E+03  0.22942599063E+03  0.50400000000E-02 0.  1.
         23    2    1    2    0    0  0.00000000000E+00  0.00000000000E+00 -0.22083539152E+03  0.23801659116E+03  0.88789793984E+02 0.  0.
    9000005    2    3    3    0    0  0.40652991855E+02 -0.11902181899E+02 -0.14085411291E+03  0.14751061008E+03  0.11187997297E+02 0.  0.
         22    1    3    3    0    0 -0.40652991855E+02  0.11902181899E+02 -0.79981278618E+02  0.90505981073E+02  0.00000000000E+00 0. -1.
         22    1    4    4    0    0  0.26885141454E+01 -0.43017719917E+01 -0.14890607908E+02  0.15730974364E+02  0.00000000000E+00 0.  1.
         22    1    4    4    0    0  0.37964477709E+02 -0.76004099073E+01 -0.12596350500E+03  0.13177963572E+03  0.00000000000E+00 0.  1.
<mgrwt>
<rscale>  0 0.88789794E+02</rscale>
<asrwt>0</asrwt>
<pdfrwt beam="1">  1        1 0.13216309E-02 0.88789794E+02</pdfrwt>
<pdfrwt beam="2">  1       -1 0.35296302E-01 0.88789794E+02</pdfrwt>
<totfact> 0.71380569E+04</totfact>
</mgrwt>
</event>
<event>
 7    1  0.2787125E-009  0.9074841E+02  0.7818608E-02  0.1301049E+00
         -1   -1    0    0    0  501 -0.00000000000E+00  0.00000000000E+00  0.35418771522E+02  0.35418771881E+02  0.50400000000E-02 0.  1.
          1   -1    0    0  501    0  0.00000000000E+00 -0.00000000000E+00 -0.58127892706E+02  0.58127892924E+02  0.50400000000E-02 0. -1.
         23    2    1    2    0    0  0.00000000000E+00 -0.35527136788E-14 -0.22709121183E+02  0.93546664805E+02  0.90748412169E+02 0.  0.
    9000005    2    3    3    0    0 -0.75134303669E+01 -0.31796229814E+02 -0.42752420547E+02  0.55216706344E+02  0.12396101427E+02 0.  0.
         22    1    3    3    0    0  0.75134303669E+01  0.31796229814E+02  0.20043299364E+02  0.38329958461E+02  0.00000000000E+00 0.  1.
         22    1    4    4    0    0 -0.11509514451E+01 -0.55127759416E+01 -0.13934543847E+01  0.58014742035E+01  0.00000000000E+00 0.  1.
         22    1    4    4    0    0 -0.63624789218E+01 -0.26283453872E+02 -0.41358966162E+02  0.49415232141E+02  0.00000000000E+00 0.  1.
<mgrwt>
<rscale>  0 0.90748412E+02</rscale>
<asrwt>0</asrwt>
<pdfrwt beam="2">  1        1 0.89427528E-02 0.90748412E+02</pdfrwt>
<pdfrwt beam="1">  1       -1 0.54490418E-02 0.90748412E+02</pdfrwt>
<totfact> 0.97172639E+04</totfact>
</mgrwt>
</event>
<event>
 7    1  0.2787125E-009  0.9154583E+02  0.7818608E-02  0.1299151E+00
         -1   -1    0    0    0  501 -0.00000000000E+00  0.00000000000E+00  0.45910986418E+01  0.45911014082E+01  0.50400000000E-02 0.  1.
          1   -1    0    0  501    0  0.00000000000E+00 -0.00000000000E+00 -0.45635241227E+03  0.45635241229E+03  0.50400000000E-02 0. -1.
         23    2    1    2    0    0  0.00000000000E+00  0.00000000000E+00 -0.45176131362E+03  0.46094351370E+03  0.91545826428E+02 0.  0.
    9000005    2    3    3    0    0 -0.38252769331E+02  0.20461542015E+02 -0.29341462460E+03  0.29676183693E+03  0.96693777035E+01 0.  0.
         22    1    3    3    0    0  0.38252769331E+02 -0.20461542015E+02 -0.15834668903E+03  0.16418167677E+03  0.00000000000E+00 0. -1.
         22    1    4    4    0    0 -0.14604930797E+02  0.84523768992E+01 -0.84328559314E+02  0.86000305783E+02  0.00000000000E+00 0. -1.
         22    1    4    4    0    0 -0.23647838533E+02  0.12009165116E+02 -0.20908606529E+03  0.21076153114E+03  0.00000000000E+00 0. -1.
<mgrwt>
<rscale>  0 0.91545826E+02</rscale>
<asrwt>0</asrwt>
<pdfrwt beam="2">  1        1 0.70208028E-01 0.91545826E+02</pdfrwt>
<pdfrwt beam="1">  1       -1 0.70632344E-03 0.91545826E+02</pdfrwt>
<totfact> 0.13616255E+05</totfact>
</mgrwt>
</event>
<event>
 7    1  0.2787125E-009  0.9187808E+02  0.7818608E-02  0.1298366E+00
         -1   -1    0    0    0  501 -0.00000000000E+00  0.00000000000E+00  0.24680665359E+02  0.24680665874E+02  0.50400000000E-02 0.  1.
          1   -1    0    0  501    0  0.00000000000E+00 -0.00000000000E+00 -0.85508049245E+02  0.85508049394E+02  0.50400000000E-02 0. -1.
         23    2    1    2    0    0  0.00000000000E+00  0.00000000000E+00 -0.60827383886E+02  0.11018871527E+03  0.91878084122E+02 0.  0.
    9000005    2    3    3    0    0  0.18372446019E+02 -0.32783872370E+02 -0.60729279239E+02  0.72607620488E+02  0.13095500592E+02 0.  0.
         22    1    3    3    0    0 -0.18372446019E+02  0.32783872370E+02 -0.98104647082E-01  0.37581094779E+02  0.00000000000E+00 0.  1.
         22    1    4    4    0    0  0.59627064177E+00 -0.13581666032E+01 -0.11296750996E+02  0.11393714858E+02  0.00000000000E+00 0.  1.
         22    1    4    4    0    0  0.17776175377E+02 -0.31425705767E+02 -0.49432528243E+02  0.61213905630E+02  0.00000000000E+00 0.  1.
<mgrwt>
<rscale>  0 0.91878084E+02</rscale>
<asrwt>0</asrwt>
<pdfrwt beam="2">  1        1 0.13155084E-01 0.91878084E+02</pdfrwt>
<pdfrwt beam="1">  1       -1 0.37970255E-02 0.91878084E+02</pdfrwt>
<totfact> 0.99699019E+04</totfact>
</mgrwt>
</event>
<event>
 7    1  0.2787125E-009  0.9160393E+02  0.7818608E-02  0.1299013E+00
          1   -1    0    0  501    0  0.00000000000E+00  0.00000000000E+00  0.29832003220E+03  0.29832003225E+03  0.50400000000E-02 0. -1.
         -1   -1    0    0    0  501 -0.00000000000E+00 -0.00000000000E+00 -0.70321119604E+01  0.70321137666E+01  0.50400000000E-02 0.  1.
         23    2    1    2    0    0  0.00000000000E+00  0.00000000000E+00  0.29128792024E+03  0.30535214601E+03  0.91603933294E+02 0.  0.
    9000005    2    3    3    0    0 -0.39346512212E+02 -0.15952272795E+02  0.19756686765E+03  0.20246259975E+03  0.12482550804E+02 0.  0.
         22    1    3    3    0    0  0.39346512212E+02  0.15952272795E+02  0.93721052594E+02  0.10288954626E+03  0.00000000000E+00 0. -1.
         22    1    4    4    0    0 -0.22269819314E+02 -0.28248037815E+01  0.89707048327E+02  0.92473125221E+02  0.00000000000E+00 0.  1.
         22    1    4    4    0    0 -0.17076692898E+02 -0.13127469014E+02  0.10785981932E+03  0.10998947453E+03  0.00000000000E+00 0.  1.
<mgrwt>
<rscale>  0 0.91603933E+02</rscale>
<asrwt>0</asrwt>
<pdfrwt beam="1">  1        1 0.45895399E-01 0.91603933E+02</pdfrwt>
<pdfrwt beam="2">  1       -1 0.10818633E-02 0.91603933E+02</pdfrwt>
<totfact> 0.12639939E+05</totfact>
</mgrwt>
</event>
<event>
 7    1  0.2787125E-009  0.9233767E+02  0.7818608E-02  0.1297287E+00
         -1   -1    0    0    0  501 -0.00000000000E+00  0.00000000000E+00  0.98442903573E+02  0.98442903702E+02  0.50400000000E-02 0.  1.
          1   -1    0    0  501    0  0.00000000000E+00 -0.00000000000E+00 -0.21652768776E+02  0.21652769362E+02  0.50400000000E-02 0. -1.
         23    2    1    2    0    0  0.00000000000E+00  0.00000000000E+00  0.76790134797E+02  0.12009567306E+03  0.92337673171E+02 0.  0.
    9000005    2    3    3    0    0 -0.15349467768E+02 -0.15815806670E+02  0.91028362093E+02  0.93856903697E+02  0.60999807277E+01 0.  0.
         22    1    3    3    0    0  0.15349467768E+02  0.15815806670E+02 -0.14238227296E+02  0.26238769367E+02  0.00000000000E+00 0. -1.
         22    1    4    4    0    0 -0.74508165248E+01 -0.47417611286E+01  0.27298435881E+02  0.28691524307E+02  0.00000000000E+00 0.  1.
         22    1    4    4    0    0 -0.78986512432E+01 -0.11074045541E+02  0.63729926212E+02  0.65165379390E+02  0.00000000000E+00 0.  1.
<mgrwt>
<rscale>  0 0.92337673E+02</rscale>
<asrwt>0</asrwt>
<pdfrwt beam="2">  1        1 0.33311952E-02 0.92337673E+02</pdfrwt>
<pdfrwt beam="1">  1       -1 0.15145062E-01 0.92337673E+02</pdfrwt>
<totfact> 0.78989546E+04</totfact>
</mgrwt>
</event>
<event>
 7    1  0.2787125E-009  0.8701528E+02  0.7818608E-02  0.1310245E+00
         -1   -1    0    0    0  501 -0.00000000000E+00  0.00000000000E+00  0.55508503620E+01  0.55508526500E+01  0.50400000000E-02 0.  1.
          1   -1    0    0  501    0  0.00000000000E+00 -0.00000000000E+00 -0.34101343258E+03  0.34101343262E+03  0.50400000000E-02 0. -1.
         23    2    1    2    0    0  0.00000000000E+00  0.00000000000E+00 -0.33546258222E+03  0.34656428527E+03  0.87015284603E+02 0.  0.
    9000005    2    3    3    0    0 -0.24511705829E+02 -0.32858921046E+02 -0.13373548383E+03  0.14071396431E+03  0.15320173014E+02 0.  0.
         22    1    3    3    0    0  0.24511705829E+02  0.32858921046E+02 -0.20172709839E+03  0.20585032096E+03  0.00000000000E+00 0. -1.
         22    1    4    4    0    0 -0.50571423872E+01 -0.84584871661E+00 -0.29704828197E+02  0.30144103361E+02  0.00000000000E+00 0.  1.
         22    1    4    4    0    0 -0.19454563442E+02 -0.32013072329E+02 -0.10403065563E+03  0.11056986095E+03  0.00000000000E+00 0.  1.
<mgrwt>
<rscale>  0 0.87015285E+02</rscale>
<asrwt>0</asrwt>
<pdfrwt beam="2">  1        1 0.52463589E-01 0.87015285E+02</pdfrwt>
<pdfrwt beam="1">  1       -1 0.85397742E-03 0.87015285E+02</pdfrwt>
<totfact> 0.14852723E+05</totfact>
</mgrwt>
</event>
<event>
 7    1  0.2787125E-009  0.9021697E+02  0.7818608E-02  0.1302327E+00
          1   -1    0    0  501    0  0.00000000000E+00  0.00000000000E+00  0.19703070072E+02  0.19703070717E+02  0.50400000000E-02 0. -1.
         -1   -1    0    0    0  501 -0.00000000000E+00 -0.00000000000E+00 -0.10327200307E+03  0.10327200320E+03  0.50400000000E-02 0.  1.
         23    2    1    2    0    0  0.00000000000E+00  0.00000000000E+00 -0.83568933001E+02  0.12297507391E+03  0.90216973131E+02 0.  0.
    9000005    2    3    3    0    0 -0.32025991752E+02 -0.13385289886E+02 -0.80869313917E+02  0.88159587758E+02  0.52380193870E+01 0.  0.
         22    1    3    3    0    0  0.32025991752E+02  0.13385289886E+02 -0.26996190839E+01  0.34815486155E+02  0.00000000000E+00 0. -1.
         22    1    4    4    0    0 -0.21062092834E+02 -0.64681857864E+01 -0.47523925243E+02  0.52382942380E+02  0.00000000000E+00 0.  1.
         22    1    4    4    0    0 -0.10963898918E+02 -0.69171040993E+01 -0.33345388675E+02  0.35776645378E+02  0.00000000000E+00 0.  1.
<mgrwt>
<rscale>  0 0.90216973E+02</rscale>
<asrwt>0</asrwt>
<pdfrwt beam="1">  1        1 0.30312417E-02 0.90216973E+02</pdfrwt>
<pdfrwt beam="2">  1       -1 0.15888000E-01 0.90216973E+02</pdfrwt>
<totfact> 0.83115351E+04</totfact>
</mgrwt>
</event>
<event>
 7    1  0.2787125E-009  0.8982128E+02  0.7818608E-02  0.1303285E+00
         -1   -1    0    0    0  501 -0.00000000000E+00  0.00000000000E+00  0.45437860212E+02  0.45437860492E+02  0.50400000000E-02 0.  1.
          1   -1    0    0  501    0  0.00000000000E+00 -0.00000000000E+00 -0.44389531869E+02  0.44389532155E+02  0.50400000000E-02 0. -1.
         23    2    1    2    0    0  0.00000000000E+00  0.00000000000E+00  0.10483283433E+01  0.89827392647E+02  0.89821275194E+02 0.  0.
    9000005    2    3    3    0    0 -0.42428615538E+01 -0.19193926267E+02  0.39442056328E+02  0.46694029362E+02  0.15435280722E+02 0.  0.
         22    1    3    3    0    0  0.42428615538E+01  0.19193926267E+02 -0.38393727985E+02  0.43133363285E+02  0.00000000000E+00 0. -1.
         22    1    4    4    0    0 -0.62015936294E+01 -0.45445674033E+01  0.48851783080E+01  0.91092164058E+01  0.00000000000E+00 0.  1.
         22    1    4    4    0    0  0.19587320756E+01 -0.14649358864E+02  0.34556878020E+02  0.37584812956E+02  0.00000000000E+00 0.  1.
<mgrwt>
<rscale>  0 0.89821275E+02</rscale>
<asrwt>0</asrwt>
<pdfrwt beam="2">  1        1 0.68291588E-02 0.89821275E+02</pdfrwt>
<pdfrwt beam="1">  1       -1 0.69904401E-02 0.89821275E+02</pdfrwt>
<totfact> 0.96054081E+04</totfact>
</mgrwt>
</event>
<event>
 7    1  0.2787125E-009  0.8864326E+02  0.7818608E-02  0.1306171E+00
          1   -1    0    0  501    0  0.00000000000E+00  0.00000000000E+00  0.11566357548E+02  0.11566358646E+02  0.50400000000E-02 0. -1.
         -1   -1    0    0    0  501 -0.00000000000E+00 -0.00000000000E+00 -0.16983798405E+03  0.16983798412E+03  0.50400000000E-02 0.  1.
         23    2    1    2    0    0  0.35527136788E-14  0.00000000000E+00 -0.15827162650E+03  0.18140434277E+03  0.88643261563E+02 0.  0.
    9000005    2    3    3    0    0 -0.31910555306E+02 -0.23929807322E+02 -0.44555587605E+02  0.60896016416E+02  0.11498052451E+02 0.  0.
         22    1    3    3    0    0  0.31910555306E+02  0.23929807322E+02 -0.11371603890E+03  0.12050832635E+03  0.00000000000E+00 0.  1.
         22    1    4    4    0    0  0.76771129206E+00 -0.48320577866E-01 -0.21108016195E+01  0.22465972009E+01  0.00000000000E+00 0. -1.
         22    1    4    4    0    0 -0.32678266598E+02 -0.23881486744E+02 -0.42444785986E+02  0.58649419216E+02  0.00000000000E+00 0. -1.
<mgrwt>
<rscale>  0 0.88643262E+02</rscale>
<asrwt>0</asrwt>
<pdfrwt beam="1">  1        1 0.17794398E-02 0.88643262E+02</pdfrwt>
<pdfrwt beam="2">  1       -1 0.26128919E-01 0.88643262E+02</pdfrwt>
<totfact> 0.78063038E+04</totfact>
</mgrwt>
</event>
<event>
 7    1  0.2787125E-009  0.1113563E+03  0.7818608E-02  0.1258079E+00
          1   -1    0    0  501    0  0.00000000000E+00  0.00000000000E+00  0.79144456188E+02  0.79144456349E+02  0.50400000000E-02 0. -1.
         -1   -1    0    0    0  501 -0.00000000000E+00 -0.00000000000E+00 -0.39169608873E+02  0.39169609197E+02  0.50400000000E-02 0.  1.
         23    2    1    2    0    0 -0.71054273576E-14  0.00000000000E+00  0.39974847316E+02  0.11831406555E+03  0.11135631858E+03 0.  0.
    9000005    2    3    3    0    0  0.43499697611E+02  0.33364299219E+02  0.16282282180E+02  0.58591893806E+02  0.12747437080E+02 0.  0.
         22    1    3    3    0    0 -0.43499697611E+02 -0.33364299219E+02  0.23692565136E+02  0.59722171740E+02  0.00000000000E+00 0.  1.
         22    1    4    4    0    0  0.42639572176E+02  0.30263309726E+02  0.12762406997E+02  0.53822672391E+02  0.00000000000E+00 0.  1.
         22    1    4    4    0    0  0.86012543492E+00  0.31009894936E+01  0.35198751827E+01  0.47692214149E+01  0.00000000000E+00 0.  1.
<mgrwt>
<rscale>  0 0.11135632E+03</rscale>
<asrwt>0</asrwt>
<pdfrwt beam="1">  1        1 0.12176070E-01 0.11135632E+03</pdfrwt>
<pdfrwt beam="2">  1       -1 0.60260937E-02 0.11135632E+03</pdfrwt>
<totfact> 0.57611844E+04</totfact>
</mgrwt>
</event>
<event>
 7    1  0.2787125E-009  0.9848699E+02  0.7818608E-02  0.1283510E+00
         -1   -1    0    0    0  501 -0.00000000000E+00  0.00000000000E+00  0.18578872774E+03  0.18578872781E+03  0.50400000000E-02 0.  1.
          1   -1    0    0  501    0  0.00000000000E+00 -0.00000000000E+00 -0.13052037663E+02  0.13052038636E+02  0.50400000000E-02 0. -1.
         23    2    1    2    0    0  0.00000000000E+00 -0.35527136788E-14  0.17273669008E+03  0.19884076645E+03  0.98486985443E+02 0.  0.
    9000005    2    3    3    0    0 -0.40118127753E+02 -0.21635812829E+02  0.12010739793E+03  0.12921738702E+03  0.13920254974E+02 0.  0.
         22    1    3    3    0    0  0.40118127753E+02  0.21635812829E+02  0.52629292149E+02  0.69623379430E+02  0.00000000000E+00 0. -1.
         22    1    4    4    0    0 -0.38854705705E+02 -0.21899515885E+02  0.10533274168E+03  0.11438646520E+03  0.00000000000E+00 0.  1.
         22    1    4    4    0    0 -0.12634220482E+01  0.26370305583E+00  0.14774656249E+02  0.14830921813E+02  0.00000000000E+00 0.  1.
<mgrwt>
<rscale>  0 0.98486985E+02</rscale>
<asrwt>0</asrwt>
<pdfrwt beam="2">  1        1 0.20080061E-02 0.98486985E+02</pdfrwt>
<pdfrwt beam="1">  1       -1 0.28582878E-01 0.98486985E+02</pdfrwt>
<totfact> 0.57943712E+04</totfact>
</mgrwt>
</event>
<event>
 7    1  0.2787125E-009  0.9210080E+02  0.7818608E-02  0.1297843E+00
          1   -1    0    0  501    0  0.00000000000E+00  0.00000000000E+00  0.87348671777E+02  0.87348671923E+02  0.50400000000E-02 0. -1.
         -1   -1    0    0    0  501 -0.00000000000E+00 -0.00000000000E+00 -0.24277864085E+02  0.24277864608E+02  0.50400000000E-02 0.  1.
         23    2    1    2    0    0  0.35527136788E-14 -0.35527136788E-14  0.63070807692E+02  0.11162653653E+03  0.92100797363E+02 0.  0.
    9000005    2    3    3    0    0 -0.18708240917E+02 -0.25548297844E+02  0.71889802216E+02  0.78755752157E+02  0.56223690903E+01 0.  0.
         22    1    3    3    0    0  0.18708240917E+02  0.25548297844E+02 -0.88189945234E+01  0.32870784374E+02  0.00000000000E+00 0.  1.
         22    1    4    4    0    0 -0.16247306007E+02 -0.22233096498E+02  0.56984278434E+02  0.63288968399E+02  0.00000000000E+00 0. -1.
         22    1    4    4    0    0 -0.24609349108E+01 -0.33152013462E+01  0.14905523781E+02  0.15466783757E+02  0.00000000000E+00 0. -1.
<mgrwt>
<rscale>  0 0.92100797E+02</rscale>
<asrwt>0</asrwt>
<pdfrwt beam="1">  1        1 0.13438257E-01 0.92100797E+02</pdfrwt>
<pdfrwt beam="2">  1       -1 0.37350560E-02 0.92100797E+02</pdfrwt>
<totfact> 0.99380058E+04</totfact>
</mgrwt>
</event>
<event>
 7    1  0.2787125E-009  0.9218707E+02  0.7818608E-02  0.1297640E+00
          1   -1    0    0  501    0  0.00000000000E+00  0.00000000000E+00  0.97343625242E+02  0.97343625372E+02  0.50400000000E-02 0. -1.
         -1   -1    0    0    0  501 -0.00000000000E+00 -0.00000000000E+00 -0.21825917700E+02  0.21825918281E+02  0.50400000000E-02 0.  1.
         23    2    1    2    0    0  0.00000000000E+00  0.88817841970E-15  0.75517707542E+02  0.11916954365E+03  0.92187070580E+02 0.  0.
    9000005    2    3    3    0    0 -0.34096457341E+02  0.68909382178E+01  0.76220517832E+02  0.84376622319E+02  0.99896758023E+01 0.  0.
         22    1    3    3    0    0  0.34096457341E+02 -0.68909382178E+01 -0.70281028911E+00  0.34792921335E+02  0.00000000000E+00 0.  1.
         22    1    4    4    0    0 -0.82173269660E+01  0.13808470692E+01  0.97029970082E+01  0.12789814386E+02  0.00000000000E+00 0.  1.
         22    1    4    4    0    0 -0.25879130375E+02  0.55100911486E+01  0.66517520823E+02  0.71586807932E+02  0.00000000000E+00 0.  1.
<mgrwt>
<rscale>  0 0.92187071E+02</rscale>
<asrwt>0</asrwt>
<pdfrwt beam="1">  1        1 0.14975942E-01 0.92187071E+02</pdfrwt>
<pdfrwt beam="2">  1       -1 0.33578336E-02 0.92187071E+02</pdfrwt>
<totfact> 0.10090221E+05</totfact>
</mgrwt>
</event>
<event>
 7    1  0.2787125E-009  0.9065773E+02  0.7818608E-02  0.1301267E+00
          1   -1    0    0  501    0  0.00000000000E+00  0.00000000000E+00  0.47833661276E+03  0.47833661278E+03  0.50400000000E-02 0. -1.
         -1   -1    0    0    0  501 -0.00000000000E+00 -0.00000000000E+00 -0.42955214488E+01  0.42955244056E+01  0.50400000000E-02 0.  1.
         23    2    1    2    0    0  0.00000000000E+00  0.35527136788E-14  0.47404109131E+03  0.48263213719E+03  0.90657727741E+02 0.  0.
    9000005    2    3    3    0    0  0.29750104064E+02 -0.16570876735E+02  0.39245737286E+03  0.39422644866E+03  0.15232881136E+02 0.  0.
         22    1    3    3    0    0 -0.29750104064E+02  0.16570876735E+02  0.81583718453E+02  0.88405688528E+02  0.00000000000E+00 0.  1.
         22    1    4    4    0    0  0.68858916263E+01 -0.38478386501E+00  0.14957203056E+03  0.14973094499E+03  0.00000000000E+00 0.  1.
         22    1    4    4    0    0  0.22864212437E+02 -0.16186092870E+02  0.24288534229E+03  0.24449550367E+03  0.00000000000E+00 0.  1.
<mgrwt>
<rscale>  0 0.90657728E+02</rscale>
<asrwt>0</asrwt>
<pdfrwt beam="1">  1        1 0.73590251E-01 0.90657728E+02</pdfrwt>
<pdfrwt beam="2">  1       -1 0.66084966E-03 0.90657728E+02</pdfrwt>
<totfact> 0.14061560E+05</totfact>
</mgrwt>
</event>
<event>
 7    1  0.2787125E-009  0.9130519E+02  0.7818608E-02  0.1299721E+00
          1   -1    0    0  501    0  0.00000000000E+00  0.00000000000E+00  0.36723075196E+03  0.36723075199E+03  0.50400000000E-02 0. -1.
         -1   -1    0    0    0  501 -0.00000000000E+00 -0.00000000000E+00 -0.56753390714E+01  0.56753413093E+01  0.50400000000E-02 0.  1.
         23    2    1    2    0    0  0.00000000000E+00  0.17763568394E-14  0.36155541288E+03  0.37290609330E+03  0.91305190619E+02 0.  0.
    9000005    2    3    3    0    0  0.42786043807E+02  0.11895008986E+02  0.14508068487E+03  0.15192318750E+03  0.77532571610E+01 0.  0.
         22    1    3    3    0    0 -0.42786043807E+02 -0.11895008986E+02  0.21647472802E+03  0.22098290580E+03  0.00000000000E+00 0. -1.
         22    1    4    4    0    0  0.50590443340E+01  0.30982971907E+01  0.13226470463E+02  0.14495961367E+02  0.00000000000E+00 0. -1.
         22    1    4    4    0    0  0.37726999473E+02  0.87967117951E+01  0.13185421440E+03  0.13742722614E+03  0.00000000000E+00 0. -1.
<mgrwt>
<rscale>  0 0.91305191E+02</rscale>
<asrwt>0</asrwt>
<pdfrwt beam="1">  1        1 0.56497059E-01 0.91305191E+02</pdfrwt>
<pdfrwt beam="2">  1       -1 0.87312895E-03 0.91305191E+02</pdfrwt>
<totfact> 0.13245598E+05</totfact>
</mgrwt>
</event>
<event>
 7    1  0.2787125E-009  0.9265431E+02  0.7818608E-02  0.1296548E+00
          1   -1    0    0  501    0  0.00000000000E+00  0.00000000000E+00  0.79178627165E+02  0.79178627326E+02  0.50400000000E-02 0. -1.
         -1   -1    0    0    0  501 -0.00000000000E+00 -0.00000000000E+00 -0.27105866396E+02  0.27105866864E+02  0.50400000000E-02 0.  1.
         23    2    1    2    0    0 -0.44408920985E-15  0.00000000000E+00  0.52072760770E+02  0.10628449419E+03  0.92654310699E+02 0.  0.
    9000005    2    3    3    0    0  0.34495454235E+01 -0.45646735443E+02  0.22213153076E+02  0.51629942762E+02  0.87580248756E+01 0.  0.
         22    1    3    3    0    0 -0.34495454235E+01  0.45646735443E+02  0.29859607693E+02  0.54654551429E+02  0.00000000000E+00 0. -1.
         22    1    4    4    0    0  0.53240756440E+01 -0.24272042672E+02  0.89868292692E+01  0.26424249038E+02  0.00000000000E+00 0. -1.
         22    1    4    4    0    0 -0.18745302206E+01 -0.21374692771E+02  0.13226323807E+02  0.25205693723E+02  0.00000000000E+00 0. -1.
<mgrwt>
<rscale>  0 0.92654311E+02</rscale>
<asrwt>0</asrwt>
<pdfrwt beam="1">  1        1 0.12181327E-01 0.92654311E+02</pdfrwt>
<pdfrwt beam="2">  1       -1 0.41701333E-02 0.92654311E+02</pdfrwt>
<totfact> 0.96228938E+04</totfact>
</mgrwt>
</event>
<event>
 7    1  0.2787125E-009  0.9281090E+02  0.7818608E-02  0.1296184E+00
          1   -1    0    0  501    0  0.00000000000E+00  0.00000000000E+00  0.31923173779E+01  0.31923213565E+01  0.50400000000E-02 0. -1.
         -1   -1    0    0    0  501 -0.00000000000E+00 -0.00000000000E+00 -0.67457713510E+03  0.67457713512E+03  0.50400000000E-02 0.  1.
         23    2    1    2    0    0 -0.35527136788E-14  0.00000000000E+00 -0.67138481772E+03  0.67776945648E+03  0.92810897330E+02 0.  0.
    9000005    2    3    3    0    0 -0.22579341001E+02  0.19257472053E+02 -0.59504172639E+03  0.59586130997E+03  0.97656388896E+01 0.  0.
         22    1    3    3    0    0  0.22579341001E+02 -0.19257472053E+02 -0.76343091329E+02  0.81908146504E+02  0.00000000000E+00 0. -1.
         22    1    4    4    0    0 -0.55342987302E+01  0.10967418457E+02 -0.23001702100E+03  0.23034483428E+03  0.00000000000E+00 0.  1.
         22    1    4    4    0    0 -0.17045042271E+02  0.82900535962E+01 -0.36502470539E+03  0.36551647569E+03  0.00000000000E+00 0.  1.
<mgrwt>
<rscale>  0 0.92810897E+02</rscale>
<asrwt>0</asrwt>
<pdfrwt beam="1">  1        1 0.49112660E-03 0.92810897E+02</pdfrwt>
<pdfrwt beam="2">  1       -1 0.10378098E+00 0.92810897E+02</pdfrwt>
<totfact> 0.36268962E+04</totfact>
</mgrwt>
</event>
<event>
 7    1  0.2787125E-009  0.9064684E+02  0.7818608E-02  0.1301293E+00
          1   -1    0    0  501    0  0.00000000000E+00  0.00000000000E+00  0.10136912636E+02  0.10136913889E+02  0.50400000000E-02 0. -1.
         -1   -1    0    0    0  501 -0.00000000000E+00 -0.00000000000E+00 -0.20264671897E+03  0.20264671904E+03  0.50400000000E-02 0.  1.
         23    2    1    2    0    0 -0.17763568394E-14  0.00000000000E+00 -0.19250980634E+03  0.21278363292E+03  0.90646836154E+02 0.  0.
    9000005    2    3    3    0    0  0.91651348396E+01  0.29963665273E+02 -0.17307420152E+03  0.17591137143E+03  0.28827821466E+01 0.  0.
         22    1    3    3    0    0 -0.91651348396E+01 -0.29963665273E+02 -0.19435604817E+02  0.36872261496E+02  0.00000000000E+00 0. -1.
         22    1    4    4    0    0  0.11429873784E+01  0.30261041724E+01 -0.23202274990E+02  0.23426679050E+02  0.00000000000E+00 0. -1.
         22    1    4    4    0    0  0.80221474613E+01  0.26937561101E+02 -0.14987192653E+03  0.15248469238E+03  0.00000000000E+00 0. -1.
<mgrwt>
<rscale>  0 0.90646836E+02</rscale>
<asrwt>0</asrwt>
<pdfrwt beam="1">  1        1 0.15595253E-02 0.90646836E+02</pdfrwt>
<pdfrwt beam="2">  1       -1 0.31176415E-01 0.90646836E+02</pdfrwt>
<totfact> 0.70220854E+04</totfact>
</mgrwt>
</event>
<event>
 7    1  0.2787125E-009  0.9101805E+02  0.7818608E-02  0.1300405E+00
         -1   -1    0    0    0  501 -0.00000000000E+00  0.00000000000E+00  0.19849810700E+01  0.19849874685E+01  0.50400000000E-02 0.  1.
          1   -1    0    0  501    0  0.00000000000E+00 -0.00000000000E+00 -0.10433691439E+04  0.10433691440E+04  0.50400000000E-02 0. -1.
         23    2    1    2    0    0  0.00000000000E+00  0.00000000000E+00 -0.10413841629E+04  0.10453541314E+04  0.91018049869E+02 0.  0.
    9000005    2    3    3    0    0 -0.31430543824E+02 -0.15903065322E+02 -0.84616593552E+03  0.84698341064E+03  0.11971670751E+02 0.  0.
         22    1    3    3    0    0  0.31430543824E+02  0.15903065322E+02 -0.19521822736E+03  0.19837072078E+03  0.00000000000E+00 0. -1.
         22    1    4    4    0    0 -0.11750788156E+02 -0.47472142320E+01 -0.18673751612E+03  0.18716708309E+03  0.00000000000E+00 0.  1.
         22    1    4    4    0    0 -0.19679755668E+02 -0.11155851090E+02 -0.65942841940E+03  0.65981632755E+03  0.00000000000E+00 0.  1.
<mgrwt>
<rscale>  0 0.91018050E+02</rscale>
<asrwt>0</asrwt>
<pdfrwt beam="2">  1        1 0.16051789E+00 0.91018050E+02</pdfrwt>
<pdfrwt beam="1">  1       -1 0.30538303E-03 0.91018050E+02</pdfrwt>
<totfact> 0.13498925E+05</totfact>
</mgrwt>
</event>
<event>
 7    1  0.2787125E-009  0.9186794E+02  0.7818608E-02  0.1298390E+00
         -1   -1    0    0    0  501 -0.00000000000E+00  0.00000000000E+00  0.12393467897E+03  0.12393467907E+03  0.50400000000E-02 0.  1.
          1   -1    0    0  501    0  0.00000000000E+00 -0.00000000000E+00 -0.17024528056E+02  0.17024528802E+02  0.50400000000E-02 0. -1.
         23    2    1    2    0    0 -0.71054273576E-14  0.35527136788E-14  0.10691015091E+03  0.14095920787E+03  0.91867937367E+02 0.  0.
    9000005    2    3    3    0    0  0.37293196618E+02 -0.26045026924E+02  0.53448560543E+02  0.70764709611E+02  0.90426523052E+01 0.  0.
         22    1    3    3    0    0 -0.37293196618E+02  0.26045026924E+02  0.53461590367E+02  0.70194498261E+02  0.00000000000E+00 0.  1.
         22    1    4    4    0    0  0.35137659422E+02 -0.26193066709E+02  0.52544362367E+02  0.68422524579E+02  0.00000000000E+00 0. -1.
         22    1    4    4    0    0  0.21555371956E+01  0.14803978461E+00  0.90419817636E+00  0.23421850314E+01  0.00000000000E+00 0. -1.
<mgrwt>
<rscale>  0 0.91867937E+02</rscale>
<asrwt>0</asrwt>
<pdfrwt beam="2">  1        1 0.26191583E-02 0.91867937E+02</pdfrwt>
<pdfrwt beam="1">  1       -1 0.19066874E-01 0.91867937E+02</pdfrwt>
<totfact> 0.76498430E+04</totfact>
</mgrwt>
</event>
<event>
 7    1  0.2787125E-009  0.9143416E+02  0.7818608E-02  0.1299415E+00
          1   -1    0    0  501    0  0.00000000000E+00  0.00000000000E+00  0.12242981392E+02  0.12242982430E+02  0.50400000000E-02 0. -1.
         -1   -1    0    0    0  501 -0.00000000000E+00 -0.00000000000E+00 -0.17071425098E+03  0.17071425106E+03  0.50400000000E-02 0.  1.
         23    2    1    2    0    0  0.00000000000E+00  0.88817841970E-15 -0.15847126959E+03  0.18295723349E+03  0.91434162103E+02 0.  0.
    9000005    2    3    3    0    0 -0.39040207985E+02  0.67826719720E+01 -0.35208961565E+02  0.53482374698E+02  0.71099191463E+01 0.  0.
         22    1    3    3    0    0  0.39040207985E+02 -0.67826719720E+01 -0.12326230803E+03  0.12947485879E+03  0.00000000000E+00 0.  1.
         22    1    4    4    0    0 -0.37402888484E+02  0.74167045163E+01 -0.31812900190E+02  0.49659281019E+02  0.00000000000E+00 0.  1.
         22    1    4    4    0    0 -0.16373195012E+01 -0.63403254436E+00 -0.33960613753E+01  0.38230936793E+01  0.00000000000E+00 0.  1.
<mgrwt>
<rscale>  0 0.91434162E+02</rscale>
<asrwt>0</asrwt>
<pdfrwt beam="1">  1        1 0.18835358E-02 0.91434162E+02</pdfrwt>
<pdfrwt beam="2">  1       -1 0.26263729E-01 0.91434162E+02</pdfrwt>
<totfact> 0.71931318E+04</totfact>
</mgrwt>
</event>
<event>
 7    1  0.2787125E-009  0.9393913E+02  0.7818608E-02  0.1293583E+00
         -1   -1    0    0    0  501 -0.00000000000E+00  0.00000000000E+00  0.10938554745E+03  0.10938554756E+03  0.50400000000E-02 0.  1.
          1   -1    0    0  501    0  0.00000000000E+00 -0.00000000000E+00 -0.20168476086E+02  0.20168476715E+02  0.50400000000E-02 0. -1.
         23    2    1    2    0    0  0.00000000000E+00  0.00000000000E+00  0.89217071360E+02  0.12955402428E+03  0.93939125951E+02 0.  0.
    9000005    2    3    3    0    0 -0.30223252666E+02  0.33850098923E+02  0.60275736593E+02  0.75731398394E+02  0.65426357243E+01 0.  0.
         22    1    3    3    0    0  0.30223252666E+02 -0.33850098923E+02  0.28941334767E+02  0.53822625883E+02  0.00000000000E+00 0. -1.
         22    1    4    4    0    0 -0.28737568337E+02  0.29233553463E+02  0.54253024744E+02  0.67998817459E+02  0.00000000000E+00 0. -1.
         22    1    4    4    0    0 -0.14856843289E+01  0.46165454599E+01  0.60227118485E+01  0.77325809352E+01  0.00000000000E+00 0. -1.
<mgrwt>
<rscale>  0 0.93939126E+02</rscale>
<asrwt>0</asrwt>
<pdfrwt beam="2">  1        1 0.31028426E-02 0.93939126E+02</pdfrwt>
<pdfrwt beam="1">  1       -1 0.16828546E-01 0.93939126E+02</pdfrwt>
<totfact> 0.74056720E+04</totfact>
</mgrwt>
</event>
<event>
 7    1  0.2787125E-009  0.9047563E+02  0.7818608E-02  0.1301704E+00
         -1   -1    0    0    0  501 -0.00000000000E+00  0.00000000000E+00  0.14701787009E+02  0.14701787873E+02  0.50400000000E-02 0.  1.
          1   -1    0    0  501    0  0.00000000000E+00 -0.00000000000E+00 -0.13919803566E+03  0.13919803575E+03  0.50400000000E-02 0. -1.
         23    2    1    2    0    0 -0.17763568394E-14  0.00000000000E+00 -0.12449624865E+03  0.15389982363E+03  0.90475630884E+02 0.  0.
    9000005    2    3    3    0    0  0.10562129338E+02 -0.43809521808E+02 -0.59928605062E+02  0.75160929959E+02  0.51860303079E+01 0.  0.
         22    1    3    3    0    0 -0.10562129338E+02  0.43809521808E+02 -0.64567643591E+02  0.78738893669E+02  0.00000000000E+00 0. -1.
         22    1    4    4    0    0  0.11089025496E+02 -0.39966351846E+02 -0.54430005781E+02  0.68431727259E+02  0.00000000000E+00 0. -1.
         22    1    4    4    0    0 -0.52689615803E+00 -0.38431699624E+01 -0.54985992814E+01  0.67292027001E+01  0.00000000000E+00 0. -1.
<mgrwt>
<rscale>  0 0.90475631E+02</rscale>
<asrwt>0</asrwt>
<pdfrwt beam="2">  1        1 0.21415082E-01 0.90475631E+02</pdfrwt>
<pdfrwt beam="1">  1       -1 0.22618135E-02 0.90475631E+02</pdfrwt>
<totfact> 0.11294470E+05</totfact>
</mgrwt>
</event>
<event>
 7    1  0.2787125E-009  0.9564141E+02  0.7818608E-02  0.1289738E+00
          1   -1    0    0  501    0  0.00000000000E+00  0.00000000000E+00  0.22472439035E+02  0.22472439600E+02  0.50400000000E-02 0. -1.
         -1   -1    0    0    0  501 -0.00000000000E+00 -0.00000000000E+00 -0.10176109376E+03  0.10176109388E+03  0.50400000000E-02 0.  1.
         23    2    1    2    0    0  0.00000000000E+00  0.00000000000E+00 -0.79288654724E+02  0.12423353348E+03  0.95641414011E+02 0.  0.
    9000005    2    3    3    0    0  0.78044646916E+01 -0.97925205835E+01 -0.99587191288E+02  0.10038329837E+03  0.15475121935E+01 0.  0.
         22    1    3    3    0    0 -0.78044646916E+01  0.97925205835E+01  0.20298536564E+02  0.23850235117E+02  0.00000000000E+00 0. -1.
         22    1    4    4    0    0  0.53335489986E+01 -0.56486867579E+01 -0.58384660551E+02  0.58899261410E+02  0.00000000000E+00 0.  1.
         22    1    4    4    0    0  0.24709156930E+01 -0.41438338256E+01 -0.41202530738E+02  0.41484036958E+02  0.00000000000E+00 0.  1.
<mgrwt>
<rscale>  0 0.95641414E+02</rscale>
<asrwt>0</asrwt>
<pdfrwt beam="1">  1        1 0.34572984E-02 0.95641414E+02</pdfrwt>
<pdfrwt beam="2">  1       -1 0.15655553E-01 0.95641414E+02</pdfrwt>
<totfact> 0.71693423E+04</totfact>
</mgrwt>
</event>
<event>
 7    1  0.2787125E-009  0.9358673E+02  0.7818608E-02  0.1294391E+00
          1   -1    0    0  501    0  0.00000000000E+00  0.00000000000E+00  0.74574532698E+02  0.74574532869E+02  0.50400000000E-02 0. -1.
         -1   -1    0    0    0  501 -0.00000000000E+00 -0.00000000000E+00 -0.29361487507E+02  0.29361487940E+02  0.50400000000E-02 0.  1.
         23    2    1    2    0    0  0.00000000000E+00  0.00000000000E+00  0.45213045191E+02  0.10393602081E+03  0.93586734990E+02 0.  0.
    9000005    2    3    3    0    0 -0.36995481096E+02  0.22210522555E+02  0.41362614982E+02  0.60613985463E+02  0.10060635266E+02 0.  0.
         22    1    3    3    0    0  0.36995481096E+02 -0.22210522555E+02  0.38504302094E+01  0.43322035345E+02  0.00000000000E+00 0.  1.
         22    1    4    4    0    0 -0.32113819998E+02  0.18215518540E+02  0.39429240972E+02  0.54016364134E+02  0.00000000000E+00 0. -1.
         22    1    4    4    0    0 -0.48816610972E+01  0.39950040149E+01  0.19333740092E+01  0.65976213294E+01  0.00000000000E+00 0. -1.
<mgrwt>
<rscale>  0 0.93586735E+02</rscale>
<asrwt>0</asrwt>
<pdfrwt beam="1">  1        1 0.11473005E-01 0.93586735E+02</pdfrwt>
<pdfrwt beam="2">  1       -1 0.45171520E-02 0.93586735E+02</pdfrwt>
<totfact> 0.92720211E+04</totfact>
</mgrwt>
</event>
<event>
 7    1  0.2787125E-009  0.9123234E+02  0.7818608E-02  0.1299895E+00
         -1   -1    0    0    0  501 -0.00000000000E+00  0.00000000000E+00  0.79760650728E+01  0.79760666651E+01  0.50400000000E-02 0.  1.
          1   -1    0    0  501    0  0.00000000000E+00 -0.00000000000E+00 -0.26088485955E+03  0.26088485960E+03  0.50400000000E-02 0. -1.
         23    2    1    2    0    0  0.00000000000E+00  0.00000000000E+00 -0.25290879448E+03  0.26886092626E+03  0.91232337181E+02 0.  0.
    9000005    2    3    3    0    0  0.55730930032E+01  0.44359850801E+02 -0.14717091053E+03  0.15405955071E+03  0.87299787058E+01 0.  0.
         22    1    3    3    0    0 -0.55730930032E+01 -0.44359850801E+02 -0.10573788394E+03  0.11480137556E+03  0.00000000000E+00 0.  1.
         22    1    4    4    0    0  0.48941445305E+01  0.42195571847E+02 -0.13061092408E+03  0.13734493956E+03  0.00000000000E+00 0. -1.
         22    1    4    4    0    0  0.67894847269E+00  0.21642789546E+01 -0.16559986451E+02  0.16714611143E+02  0.00000000000E+00 0. -1.
<mgrwt>
<rscale>  0 0.91232337E+02</rscale>
<asrwt>0</asrwt>
<pdfrwt beam="2">  1        1 0.40136126E-01 0.91232337E+02</pdfrwt>
<pdfrwt beam="1">  1       -1 0.12270873E-02 0.91232337E+02</pdfrwt>
<totfact> 0.12450010E+05</totfact>
</mgrwt>
</event>
<event>
 7    1  0.2787125E-009  0.8621356E+02  0.7818608E-02  0.1312289E+00
          1   -1    0    0  501    0  0.00000000000E+00  0.00000000000E+00  0.52065558953E+02  0.52065559197E+02  0.50400000000E-02 0. -1.
         -1   -1    0    0    0  501 -0.00000000000E+00 -0.00000000000E+00 -0.35689510978E+02  0.35689511334E+02  0.50400000000E-02 0.  1.
         23    2    1    2    0    0  0.00000000000E+00  0.00000000000E+00  0.16376047975E+02  0.87755070531E+02  0.86213557267E+02 0.  0.
    9000005    2    3    3    0    0  0.39121756801E+02 -0.17323578556E+02  0.85316853304E+01  0.44256194058E+02  0.74298606142E+01 0.  0.
         22    1    3    3    0    0 -0.39121756801E+02  0.17323578556E+02  0.78443626445E+01  0.43498876473E+02  0.00000000000E+00 0. -1.
         22    1    4    4    0    0  0.38892048002E+02 -0.16174251109E+02  0.77005230418E+01  0.42819339694E+02  0.00000000000E+00 0.  1.
         22    1    4    4    0    0  0.22970879852E+00 -0.11493274464E+01  0.83116228860E+00  0.14368543633E+01  0.00000000000E+00 0.  1.
<mgrwt>
<rscale>  0 0.86213557E+02</rscale>
<asrwt>0</asrwt>
<pdfrwt beam="1">  1        1 0.80100861E-02 0.86213557E+02</pdfrwt>
<pdfrwt beam="2">  1       -1 0.54906940E-02 0.86213557E+02</pdfrwt>
<totfact> 0.11019075E+05</totfact>
</mgrwt>
</event>
<event>
 7    1  0.2787125E-009  0.8145787E+02  0.7818608E-02  0.1324964E+00
          1   -1    0    0  501    0  0.00000000000E+00  0.00000000000E+00  0.67473971870E+03  0.67473971872E+03  0.50400000000E-02 0. -1.
         -1   -1    0    0    0  501 -0.00000000000E+00 -0.00000000000E+00 -0.24584953742E+01  0.24585005403E+01  0.50400000000E-02 0.  1.
         23    2    1    2    0    0  0.00000000000E+00  0.00000000000E+00  0.67228122332E+03  0.67719821926E+03  0.81457872126E+02 0.  0.
    9000005    2    3    3    0    0  0.61580170893E+01  0.11334277860E+02  0.65723535395E+03  0.65737991423E+03  0.48635497506E+01 0.  0.
         22    1    3    3    0    0 -0.61580170893E+01 -0.11334277860E+02  0.15045869371E+02  0.19818305029E+02  0.00000000000E+00 0.  1.
         22    1    4    4    0    0  0.15087721560E+01  0.24309961204E+01  0.26697054675E+03  0.26698587784E+03  0.00000000000E+00 0. -1.
         22    1    4    4    0    0  0.46492449333E+01  0.89032817398E+01  0.39026480720E+03  0.39039403639E+03  0.00000000000E+00 0. -1.
<mgrwt>
<rscale>  0 0.81457872E+02</rscale>
<asrwt>0</asrwt>
<pdfrwt beam="1">  1        1 0.10380633E+00 0.81457872E+02</pdfrwt>
<pdfrwt beam="2">  1       -1 0.37822964E-03 0.81457872E+02</pdfrwt>
<totfact> 0.19124396E+05</totfact>
</mgrwt>
</event>
<event>
 7    1  0.2787125E-009  0.9110158E+02  0.7818608E-02  0.1300206E+00
         -1   -1    0    0    0  501 -0.00000000000E+00  0.00000000000E+00  0.24945402730E+03  0.24945402735E+03  0.50400000000E-02 0.  1.
          1   -1    0    0  501    0  0.00000000000E+00 -0.00000000000E+00 -0.83176611770E+01  0.83176627040E+01  0.50400000000E-02 0. -1.
         23    2    1    2    0    0 -0.35527136788E-14  0.00000000000E+00  0.24113636612E+03  0.25777169005E+03  0.91101575874E+02 0.  0.
    9000005    2    3    3    0    0 -0.19797672585E+02 -0.38770692100E+02  0.84811002203E+02  0.95498051375E+02  0.56442285613E+01 0.  0.
         22    1    3    3    0    0  0.19797672585E+02  0.38770692100E+02  0.15632536392E+03  0.16227363868E+03  0.00000000000E+00 0.  1.
         22    1    4    4    0    0 -0.33993200076E+01 -0.95794745723E+01  0.24327180653E+02  0.26365383140E+02  0.00000000000E+00 0. -1.
         22    1    4    4    0    0 -0.16398352577E+02 -0.29191217528E+02  0.60483821550E+02  0.69132668235E+02  0.00000000000E+00 0. -1.
<mgrwt>
<rscale>  0 0.91101576E+02</rscale>
<asrwt>0</asrwt>
<pdfrwt beam="2">  1        1 0.12796403E-02 0.91101576E+02</pdfrwt>
<pdfrwt beam="1">  1       -1 0.38377544E-01 0.91101576E+02</pdfrwt>
<totfact> 0.64952958E+04</totfact>
</mgrwt>
</event>
<event>
 7    1  0.2787125E-009  0.9063915E+02  0.7818608E-02  0.1301311E+00
          1   -1    0    0  501    0  0.00000000000E+00  0.00000000000E+00  0.65785065971E+03  0.65785065972E+03  0.50400000000E-02 0.  1.
         -1   -1    0    0    0  501 -0.00000000000E+00 -0.00000000000E+00 -0.31220803755E+01  0.31220844435E+01  0.50400000000E-02 0. -1.
         23    2    1    2    0    0  0.00000000000E+00 -0.17763568394E-14  0.65472857933E+03  0.66097274417E+03  0.90639152368E+02 0.  0.
    9000005    2    3    3    0    0  0.32310454789E+02 -0.13367829251E+02  0.53183234032E+03  0.53319892090E+03  0.15257349069E+02 0.  0.
         22    1    3    3    0    0 -0.32310454789E+02  0.13367829251E+02  0.12289623901E+03  0.12777382326E+03  0.00000000000E+00 0. -1.
         22    1    4    4    0    0  0.11929109490E+02 -0.41389192295E+01  0.10102868350E+03  0.10181468064E+03  0.00000000000E+00 0. -1.
         22    1    4    4    0    0  0.20381345299E+02 -0.92289100218E+01  0.43080365682E+03  0.43138424026E+03  0.00000000000E+00 0. -1.
<mgrwt>
<rscale>  0 0.90639152E+02</rscale>
<asrwt>0</asrwt>
<pdfrwt beam="1">  1        1 0.10120782E+00 0.90639152E+02</pdfrwt>
<pdfrwt beam="2">  1       -1 0.48032024E-03 0.90639152E+02</pdfrwt>
<totfact> 0.14436254E+05</totfact>
</mgrwt>
</event>
<event>
 7    1  0.2787125E-009  0.9167479E+02  0.7818608E-02  0.1298846E+00
         -1   -1    0    0    0  501 -0.00000000000E+00  0.00000000000E+00  0.25364869348E+01  0.25364919421E+01  0.50400000000E-02 0.  1.
          1   -1    0    0  501    0  0.00000000000E+00 -0.00000000000E+00 -0.82833654413E+03  0.82833654414E+03  0.50400000000E-02 0. -1.
         23    2    1    2    0    0  0.71054273576E-14  0.35527136788E-14 -0.82580005719E+03  0.83087303608E+03  0.91674792792E+02 0.  0.
    9000005    2    3    3    0    0 -0.32447768849E+02 -0.25138562674E+02 -0.59336522243E+03  0.59484177237E+03  0.83451745392E+01 0.  0.
         22    1    3    3    0    0  0.32447768849E+02  0.25138562674E+02 -0.23243483476E+03  0.23603126371E+03  0.00000000000E+00 0.  1.
         22    1    4    4    0    0 -0.42117476482E+00  0.63305798912E+00 -0.13332479759E+02  0.13354144193E+02  0.00000000000E+00 0.  1.
         22    1    4    4    0    0 -0.32026594084E+02 -0.25771620663E+02 -0.58003274267E+03  0.58148762818E+03  0.00000000000E+00 0.  1.
<mgrwt>
<rscale>  0 0.91674793E+02</rscale>
<asrwt>0</asrwt>
<pdfrwt beam="2">  1        1 0.12743618E+00 0.91674793E+02</pdfrwt>
<pdfrwt beam="1">  1       -1 0.39022981E-03 0.91674793E+02</pdfrwt>
<totfact> 0.13879970E+05</totfact>
</mgrwt>
</event>
<event>
 7    1  0.2787125E-009  0.8995401E+02  0.7818608E-02  0.1302963E+00
          1   -1    0    0  501    0  0.00000000000E+00  0.00000000000E+00  0.44008971029E+01  0.44008999888E+01  0.50400000000E-02 0. -1.
         -1   -1    0    0    0  501 -0.00000000000E+00 -0.00000000000E+00 -0.45966311883E+03  0.45966311886E+03  0.50400000000E-02 0.  1.
         23    2    1    2    0    0 -0.22204460493E-15  0.00000000000E+00 -0.45526222173E+03  0.46406401885E+03  0.89954005225E+02 0.  0.
    9000005    2    3    3    0    0  0.19749664617E+01  0.19394435783E+02 -0.43611159469E+03  0.43673653913E+03  0.12862229751E+02 0.  0.
         22    1    3    3    0    0 -0.19749664617E+01 -0.19394435783E+02 -0.19150627036E+02  0.27327479717E+02  0.00000000000E+00 0. -1.
         22    1    4    4    0    0 -0.49307564232E+01  0.89137890409E+01 -0.24619532804E+03  0.24640598115E+03  0.00000000000E+00 0. -1.
         22    1    4    4    0    0  0.69057228849E+01  0.10480646742E+02 -0.18991626665E+03  0.19033055798E+03  0.00000000000E+00 0. -1.
<mgrwt>
<rscale>  0 0.89954005E+02</rscale>
<asrwt>0</asrwt>
<pdfrwt beam="1">  1        1 0.67706168E-03 0.89954005E+02</pdfrwt>
<pdfrwt beam="2">  1       -1 0.70717365E-01 0.89954005E+02</pdfrwt>
<totfact> 0.51232805E+04</totfact>
</mgrwt>
</event>
<event>
 7    1  0.2787125E-009  0.8912184E+02  0.7818608E-02  0.1304992E+00
         -1   -1    0    0    0  501 -0.00000000000E+00  0.00000000000E+00  0.48332821191E+01  0.48332847469E+01  0.50400000000E-02 0.  1.
          1   -1    0    0  501    0  0.00000000000E+00 -0.00000000000E+00 -0.41083370606E+03  0.41083370609E+03  0.50400000000E-02 0. -1.
         23    2    1    2    0    0  0.00000000000E+00  0.00000000000E+00 -0.40600042394E+03  0.41566699083E+03  0.89121843741E+02 0.  0.
    9000005    2    3    3    0    0 -0.41067934307E+02  0.12066852029E+02 -0.25386450390E+03  0.25762420450E+03  0.95320647584E+01 0.  0.
         22    1    3    3    0    0  0.41067934307E+02 -0.12066852029E+02 -0.15213592003E+03  0.15804278633E+03  0.00000000000E+00 0.  1.
         22    1    4    4    0    0 -0.17431635634E+02  0.10049428218E+02 -0.11915906040E+03  0.12084591264E+03  0.00000000000E+00 0.  1.
         22    1    4    4    0    0 -0.23636298673E+02  0.20174238118E+01 -0.13470544351E+03  0.13677829186E+03  0.00000000000E+00 0.  1.
<mgrwt>
<rscale>  0 0.89121844E+02</rscale>
<asrwt>0</asrwt>
<pdfrwt beam="2">  1        1 0.63205158E-01 0.89121844E+02</pdfrwt>
<pdfrwt beam="1">  1       -1 0.74358239E-03 0.89121844E+02</pdfrwt>
<totfact> 0.14391373E+05</totfact>
</mgrwt>
</event>
<event>
 7    1  0.2787125E-009  0.9214027E+02  0.7818608E-02  0.1297750E+00
          1   -1    0    0  501    0  0.00000000000E+00  0.00000000000E+00  0.34445683581E+03  0.34445683584E+03  0.50400000000E-02 0. -1.
         -1   -1    0    0    0  501 -0.00000000000E+00 -0.00000000000E+00 -0.61617495232E+01  0.61617515845E+01  0.50400000000E-02 0.  1.
         23    2    1    2    0    0  0.00000000000E+00  0.00000000000E+00  0.33829508628E+03  0.35061858743E+03  0.92140265066E+02 0.  0.
    9000005    2    3    3    0    0 -0.21252549700E+02 -0.23874654194E+02  0.29412695258E+03  0.29609800400E+03  0.11903518907E+02 0.  0.
         22    1    3    3    0    0  0.21252549700E+02  0.23874654194E+02  0.44168133709E+02  0.54520583424E+02  0.00000000000E+00 0.  1.
         22    1    4    4    0    0 -0.43330348471E+01 -0.93899525508E+01  0.13846966975E+03  0.13885530541E+03  0.00000000000E+00 0. -1.
         22    1    4    4    0    0 -0.16919514853E+02 -0.14484701643E+02  0.15565728283E+03  0.15724269860E+03  0.00000000000E+00 0. -1.
<mgrwt>
<rscale>  0 0.92140265E+02</rscale>
<asrwt>0</asrwt>
<pdfrwt beam="1">  1        1 0.52993366E-01 0.92140265E+02</pdfrwt>
<pdfrwt beam="2">  1       -1 0.94796151E-03 0.92140265E+02</pdfrwt>
<totfact> 0.12782755E+05</totfact>
</mgrwt>
</event>
<event>
 7    1  0.2787125E-009  0.9339014E+02  0.7818608E-02  0.1294844E+00
          1   -1    0    0  501    0  0.00000000000E+00  0.00000000000E+00  0.27592458806E+03  0.27592458811E+03  0.50400000000E-02 0. -1.
         -1   -1    0    0    0  501 -0.00000000000E+00 -0.00000000000E+00 -0.79022648424E+01  0.79022664496E+01  0.50400000000E-02 0.  1.
         23    2    1    2    0    0 -0.35527136788E-14  0.00000000000E+00  0.26802232322E+03  0.28382685456E+03  0.93390136653E+02 0.  0.
    9000005    2    3    3    0    0 -0.29228161394E+02 -0.35325499041E+02  0.15366002927E+03  0.16061601665E+03  0.91609992743E+01 0.  0.
         22    1    3    3    0    0  0.29228161394E+02  0.35325499041E+02  0.11436229395E+03  0.12321083791E+03  0.00000000000E+00 0.  1.
         22    1    4    4    0    0 -0.21885923754E+02 -0.25049835362E+02  0.12389045548E+03  0.12827834138E+03  0.00000000000E+00 0. -1.
         22    1    4    4    0    0 -0.73422376404E+01 -0.10275663679E+02  0.29769573795E+02  0.32337675265E+02  0.00000000000E+00 0. -1.
<mgrwt>
<rscale>  0 0.93390137E+02</rscale>
<asrwt>0</asrwt>
<pdfrwt beam="1">  1        1 0.42449935E-01 0.93390137E+02</pdfrwt>
<pdfrwt beam="2">  1       -1 0.12157332E-02 0.93390137E+02</pdfrwt>
<totfact> 0.11824583E+05</totfact>
</mgrwt>
</event>
<event>
 7    1  0.2787125E-009  0.9064624E+02  0.7818608E-02  0.1301294E+00
         -1   -1    0    0    0  501 -0.00000000000E+00  0.00000000000E+00  0.70113137249E+01  0.70113155364E+01  0.50400000000E-02 0.  1.
          1   -1    0    0  501    0  0.00000000000E+00 -0.00000000000E+00 -0.29298146828E+03  0.29298146832E+03  0.50400000000E-02 0. -1.
         23    2    1    2    0    0 -0.17763568394E-14  0.00000000000E+00 -0.28597015456E+03  0.29999278386E+03  0.90646241354E+02 0.  0.
    9000005    2    3    3    0    0 -0.14646799303E+02  0.21757633078E+02 -0.26524044784E+03  0.26656159980E+03  0.38298813968E+01 0.  0.
         22    1    3    3    0    0  0.14646799303E+02 -0.21757633078E+02 -0.20729706713E+02  0.33431184056E+02  0.00000000000E+00 0.  1.
         22    1    4    4    0    0 -0.10916705903E+01  0.23964714199E+01 -0.17607682220E+02  0.17803519121E+02  0.00000000000E+00 0. -1.
         22    1    4    4    0    0 -0.13555128713E+02  0.19361161658E+02 -0.24763276562E+03  0.24875808068E+03  0.00000000000E+00 0. -1.
<mgrwt>
<rscale>  0 0.90646241E+02</rscale>
<asrwt>0</asrwt>
<pdfrwt beam="2">  1        1 0.45074063E-01 0.90646241E+02</pdfrwt>
<pdfrwt beam="1">  1       -1 0.10786640E-02 0.90646241E+02</pdfrwt>
<totfact> 0.12954151E+05</totfact>
</mgrwt>
</event>
<event>
 7    1  0.2787125E-009  0.8672818E+02  0.7818608E-02  0.1310974E+00
          1   -1    0    0  501    0  0.00000000000E+00  0.00000000000E+00  0.18062031274E+03  0.18062031281E+03  0.50400000000E-02 0.  1.
         -1   -1    0    0    0  501 -0.00000000000E+00 -0.00000000000E+00 -0.10411033784E+02  0.10411035004E+02  0.50400000000E-02 0. -1.
         23    2    1    2    0    0  0.00000000000E+00  0.35527136788E-14  0.17020927895E+03  0.19103134781E+03  0.86728179992E+02 0.  0.
    9000005    2    3    3    0    0  0.34355538690E+02  0.24964329161E+02  0.95000213072E+02  0.10466049416E+03  0.11191862472E+02 0.  0.
         22    1    3    3    0    0 -0.34355538690E+02 -0.24964329161E+02  0.75209065881E+02  0.86370853648E+02  0.00000000000E+00 0. -1.
         22    1    4    4    0    0  0.15828234841E+02  0.11188215045E+02  0.30351082698E+02  0.36012461662E+02  0.00000000000E+00 0. -1.
         22    1    4    4    0    0  0.18527303849E+02  0.13776114117E+02  0.64649130375E+02  0.68648032501E+02  0.00000000000E+00 0. -1.
<mgrwt>
<rscale>  0 0.86728180E+02</rscale>
<asrwt>0</asrwt>
<pdfrwt beam="1">  1        1 0.27787738E-01 0.86728180E+02</pdfrwt>
<pdfrwt beam="2">  1       -1 0.16016978E-02 0.86728180E+02</pdfrwt>
<totfact> 0.13274337E+05</totfact>
</mgrwt>
</event>
<event>
 7    1  0.2787125E-009  0.9128800E+02  0.7818608E-02  0.1299762E+00
          1   -1    0    0  501    0  0.00000000000E+00  0.00000000000E+00  0.82285466977E+01  0.82285482412E+01  0.50400000000E-02 0. -1.
         -1   -1    0    0    0  501 -0.00000000000E+00 -0.00000000000E+00 -0.25318864479E+03  0.25318864484E+03  0.50400000000E-02 0.  1.
         23    2    1    2    0    0  0.00000000000E+00  0.00000000000E+00 -0.24496009809E+03  0.26141719308E+03  0.91288001299E+02 0.  0.
    9000005    2    3    3    0    0  0.22475829197E+01 -0.18147652111E+02 -0.24205078688E+03  0.24290090302E+03  0.88247577275E+01 0.  0.
         22    1    3    3    0    0 -0.22475829197E+01  0.18147652111E+02 -0.29093112106E+01  0.18516290067E+02  0.00000000000E+00 0. -1.
         22    1    4    4    0    0 -0.29740241023E+00 -0.53178282948E+01 -0.12652019205E+03  0.12663225001E+03  0.00000000000E+00 0. -1.
         22    1    4    4    0    0  0.25449853299E+01 -0.12829823816E+02 -0.11553059483E+03  0.11626865301E+03  0.00000000000E+00 0. -1.
<mgrwt>
<rscale>  0 0.91288001E+02</rscale>
<asrwt>0</asrwt>
<pdfrwt beam="1">  1        1 0.12659306E-02 0.91288001E+02</pdfrwt>
<pdfrwt beam="2">  1       -1 0.38952093E-01 0.91288001E+02</pdfrwt>
<totfact> 0.64281037E+04</totfact>
</mgrwt>
</event>
<event>
 6    1  0.2787125E-009  0.1294156E+03  0.7818608E-02  0.1228325E+00
          1   -1    0    0  501    0  0.00000000000E+00  0.00000000000E+00  0.17232289768E+02  0.17232290505E+02  0.50400000000E-02 0. -1.
         -1   -1    0    0    0  501 -0.00000000000E+00 -0.00000000000E+00 -0.24297975874E+03  0.24297975879E+03  0.50400000000E-02 0.  1.
    9000005    2    1    2    0    0 -0.18987266351E+02  0.34688348285E+02 -0.13746894737E+02  0.44554818335E+02  0.15243258567E+02 0.  0.
         22    1    1    2    0    0  0.18987266351E+02 -0.34688348285E+02 -0.21200057423E+03  0.21565723096E+03  0.00000000000E+00 0.  1.
         22    1    3    3    0    0 -0.53152805500E+01  0.18608997989E+02  0.24496621103E-01  0.19353232639E+02  0.00000000000E+00 0.  1.
         22    1    3    3    0    0 -0.13671985801E+02  0.16079350296E+02 -0.13771391358E+02  0.25201585696E+02  0.00000000000E+00 0.  1.
<mgrwt>
<rscale>  0 0.12941557E+03</rscale>
<asrwt>0</asrwt>
<pdfrwt beam="1">  1        1 0.26511217E-02 0.12941557E+03</pdfrwt>
<pdfrwt beam="2">  1       -1 0.37381499E-01 0.12941557E+03</pdfrwt>
<totfact> 0.25965844E+04</totfact>
</mgrwt>
</event>
<event>
 7    1  0.2787125E-009  0.8998444E+02  0.7818608E-02  0.1302889E+00
         -1   -1    0    0    0  501 -0.00000000000E+00  0.00000000000E+00  0.13210582551E+02  0.13210583512E+02  0.50400000000E-02 0.  1.
          1   -1    0    0  501    0  0.00000000000E+00 -0.00000000000E+00 -0.15323318811E+03  0.15323318819E+03  0.50400000000E-02 0. -1.
         23    2    1    2    0    0  0.00000000000E+00  0.00000000000E+00 -0.14002260556E+03  0.16644377170E+03  0.89984437941E+02 0.  0.
    9000005    2    3    3    0    0  0.27693313042E+02 -0.67297570942E+01 -0.10657769288E+02  0.33976907617E+02  0.15120614644E+02 0.  0.
         22    1    3    3    0    0 -0.27693313042E+02  0.67297570942E+01 -0.12936483627E+03  0.13246686409E+03  0.00000000000E+00 0. -1.
         22    1    4    4    0    0  0.74914127770E+01  0.23288251900E+00  0.35736599752E+01  0.83034056436E+01  0.00000000000E+00 0.  1.
         22    1    4    4    0    0  0.20201900265E+02 -0.69626396132E+01 -0.14231429264E+02  0.25673501974E+02  0.00000000000E+00 0.  1.
<mgrwt>
<rscale>  0 0.89984438E+02</rscale>
<asrwt>0</asrwt>
<pdfrwt beam="2">  1        1 0.23574335E-01 0.89984438E+02</pdfrwt>
<pdfrwt beam="1">  1       -1 0.20323975E-02 0.89984438E+02</pdfrwt>
<totfact> 0.11663617E+05</totfact>
</mgrwt>
</event>
<event>
 7    1  0.2787125E-009  0.9088920E+02  0.7818608E-02  0.1300713E+00
         -1   -1    0    0    0  501 -0.00000000000E+00  0.00000000000E+00  0.18332694033E+03  0.18332694040E+03  0.50400000000E-02 0.  1.
          1   -1    0    0  501    0  0.00000000000E+00 -0.00000000000E+00 -0.11265182637E+02  0.11265183765E+02  0.50400000000E-02 0. -1.
         23    2    1    2    0    0  0.00000000000E+00 -0.17763568394E-14  0.17206175769E+03  0.19459212416E+03  0.90889198073E+02 0.  0.
    9000005    2    3    3    0    0  0.41009281427E+02 -0.15345899586E+02  0.10657669104E+03  0.11581679965E+03  0.11733806356E+02 0.  0.
         22    1    3    3    0    0 -0.41009281427E+02  0.15345899586E+02  0.65485066656E+02  0.78775324514E+02  0.00000000000E+00 0.  1.
         22    1    4    4    0    0  0.17999848097E+02 -0.12981712657E+02  0.53280246067E+02  0.57717449840E+02  0.00000000000E+00 0. -1.
         22    1    4    4    0    0  0.23009433331E+02 -0.23641869294E+01  0.53296444970E+02  0.58099349811E+02  0.00000000000E+00 0. -1.
<mgrwt>
<rscale>  0 0.90889198E+02</rscale>
<asrwt>0</asrwt>
<pdfrwt beam="2">  1        1 0.17331053E-02 0.90889198E+02</pdfrwt>
<pdfrwt beam="1">  1       -1 0.28204142E-01 0.90889198E+02</pdfrwt>
<totfact> 0.71707895E+04</totfact>
</mgrwt>
</event>
<event>
 7    1  0.2787125E-009  0.9087821E+02  0.7818608E-02  0.1300739E+00
         -1   -1    0    0    0  501 -0.00000000000E+00  0.00000000000E+00  0.23769625561E+02  0.23769626095E+02  0.50400000000E-02 0.  1.
          1   -1    0    0  501    0  0.00000000000E+00 -0.00000000000E+00 -0.86863465433E+02  0.86863465580E+02  0.50400000000E-02 0. -1.
         23    2    1    2    0    0  0.00000000000E+00  0.00000000000E+00 -0.63093839873E+02  0.11063309167E+03  0.90878206098E+02 0.  0.
    9000005    2    3    3    0    0 -0.23542872427E+02  0.34869286563E+02 -0.12913770607E+02  0.45148945967E+02  0.10076103567E+02 0.  0.
         22    1    3    3    0    0  0.23542872427E+02 -0.34869286563E+02 -0.50180069265E+02  0.65484145707E+02  0.00000000000E+00 0. -1.
         22    1    4    4    0    0 -0.31062081026E+01  0.32146411600E+00 -0.94759753164E+00  0.32634045162E+01  0.00000000000E+00 0.  1.
         22    1    4    4    0    0 -0.20436664324E+02  0.34547822447E+02 -0.11966173076E+02  0.41885541451E+02  0.00000000000E+00 0.  1.
<mgrwt>
<rscale>  0 0.90878206E+02</rscale>
<asrwt>0</asrwt>
<pdfrwt beam="2">  1        1 0.13363610E-01 0.90878206E+02</pdfrwt>
<pdfrwt beam="1">  1       -1 0.36568656E-02 0.90878206E+02</pdfrwt>
<totfact> 0.10299453E+05</totfact>
</mgrwt>
</event>
<event>
 7    1  0.2787125E-009  0.9151419E+02  0.7818608E-02  0.1299226E+00
         -1   -1    0    0    0  501 -0.00000000000E+00  0.00000000000E+00  0.10041038337E+03  0.10041038350E+03  0.50400000000E-02 0.  1.
          1   -1    0    0  501    0  0.00000000000E+00 -0.00000000000E+00 -0.20851545736E+02  0.20851546345E+02  0.50400000000E-02 0. -1.
         23    2    1    2    0    0  0.00000000000E+00  0.00000000000E+00  0.79558837638E+02  0.12126192985E+03  0.91514190067E+02 0.  0.
    9000005    2    3    3    0    0 -0.33289128157E+02 -0.14139476530E+02  0.76562455126E+02  0.84970482394E+02  0.70768985701E+01 0.  0.
         22    1    3    3    0    0  0.33289128157E+02  0.14139476530E+02  0.29963825123E+01  0.36291447452E+02  0.00000000000E+00 0. -1.
         22    1    4    4    0    0 -0.22763082775E+02 -0.12584585724E+02  0.58205551092E+02  0.63752771808E+02  0.00000000000E+00 0.  1.
         22    1    4    4    0    0 -0.10526045382E+02 -0.15548908058E+01  0.18356904033E+02  0.21217710586E+02  0.00000000000E+00 0.  1.
<mgrwt>
<rscale>  0 0.91514190E+02</rscale>
<asrwt>0</asrwt>
<pdfrwt beam="2">  1        1 0.32079301E-02 0.91514190E+02</pdfrwt>
<pdfrwt beam="1">  1       -1 0.15447752E-01 0.91514190E+02</pdfrwt>
<totfact> 0.80538043E+04</totfact>
</mgrwt>
</event>
<event>
 7    1  0.2787125E-009  0.8952037E+02  0.7818608E-02  0.1304017E+00
         -1   -1    0    0    0  501 -0.00000000000E+00  0.00000000000E+00  0.12739851756E+03  0.12739851766E+03  0.50400000000E-02 0.  1.
          1   -1    0    0  501    0  0.00000000000E+00 -0.00000000000E+00 -0.15726038630E+02  0.15726039438E+02  0.50400000000E-02 0. -1.
         23    2    1    2    0    0  0.00000000000E+00  0.35527136788E-14  0.11167247893E+03  0.14312455709E+03  0.89520368039E+02 0.  0.
    9000005    2    3    3    0    0 -0.22728119412E+02  0.19641031938E+02  0.10816831922E+03  0.11288192687E+03  0.11815523010E+02 0.  0.
         22    1    3    3    0    0  0.22728119412E+02 -0.19641031938E+02  0.35041597085E+01  0.30242630224E+02  0.00000000000E+00 0. -1.
         22    1    4    4    0    0 -0.12393670921E+02  0.53712429308E+01  0.62267852651E+02  0.63716079629E+02  0.00000000000E+00 0.  1.
         22    1    4    4    0    0 -0.10334448491E+02  0.14269789007E+02  0.45900466567E+02  0.49165847242E+02  0.00000000000E+00 0.  1.
<mgrwt>
<rscale>  0 0.89520368E+02</rscale>
<asrwt>0</asrwt>
<pdfrwt beam="2">  1        1 0.24193907E-02 0.89520368E+02</pdfrwt>
<pdfrwt beam="1">  1       -1 0.19599771E-01 0.89520368E+02</pdfrwt>
<totfact> 0.81322829E+04</totfact>
</mgrwt>
</event>
<event>
 7    1  0.2787125E-009  0.9356784E+02  0.7818608E-02  0.1294435E+00
          1   -1    0    0  501    0  0.00000000000E+00  0.00000000000E+00  0.63605757113E+01  0.63605777081E+01  0.50400000000E-02 0. -1.
         -1   -1    0    0    0  501 -0.00000000000E+00 -0.00000000000E+00 -0.34410955402E+03  0.34410955406E+03  0.50400000000E-02 0.  1.
         23    2    1    2    0    0  0.00000000000E+00  0.00000000000E+00 -0.33774897831E+03  0.35047013177E+03  0.93567841221E+02 0.  0.
    9000005    2    3    3    0    0 -0.16194229547E+02 -0.33370388980E+02 -0.27366768503E+03  0.27642792705E+03  0.11939894901E+02 0.  0.
         22    1    3    3    0    0  0.16194229547E+02  0.33370388980E+02 -0.64081293279E+02  0.74042204719E+02  0.00000000000E+00 0. -1.
         22    1    4    4    0    0 -0.84670896217E+01 -0.56783502897E+01 -0.75781016923E+02  0.76463702464E+02  0.00000000000E+00 0.  1.
         22    1    4    4    0    0 -0.77271399253E+01 -0.27692038690E+02 -0.19788666811E+03  0.19996422459E+03  0.00000000000E+00 0.  1.
<mgrwt>
<rscale>  0 0.93567841E+02</rscale>
<asrwt>0</asrwt>
<pdfrwt beam="1">  1        1 0.97855053E-03 0.93567841E+02</pdfrwt>
<pdfrwt beam="2">  1       -1 0.52939917E-01 0.93567841E+02</pdfrwt>
<totfact> 0.53463454E+04</totfact>
</mgrwt>
</event>
<event>
 7    1  0.2787125E-009  0.9072092E+02  0.7818608E-02  0.1301115E+00
          1   -1    0    0  501    0  0.00000000000E+00  0.00000000000E+00  0.47427306491E+03  0.47427306494E+03  0.50400000000E-02 0. -1.
         -1   -1    0    0    0  501 -0.00000000000E+00 -0.00000000000E+00 -0.43383674965E+01  0.43383704240E+01  0.50400000000E-02 0.  1.
         23    2    1    2    0    0  0.00000000000E+00 -0.71054273576E-14  0.46993469742E+03  0.47861143536E+03  0.90720924957E+02 0.  0.
    9000005    2    3    3    0    0 -0.10141150002E+01  0.44269740245E+02  0.26463111276E+03  0.26858667444E+03  0.12179388845E+02 0.  0.
         22    1    3    3    0    0  0.10141150002E+01 -0.44269740245E+02  0.20530358465E+03  0.21002476093E+03  0.00000000000E+00 0. -1.
         22    1    4    4    0    0  0.29068457352E+01  0.46491326346E+01  0.20051703879E+02  0.20787857389E+02  0.00000000000E+00 0. -1.
         22    1    4    4    0    0 -0.39209607353E+01  0.39620607610E+02  0.24457940888E+03  0.24779881705E+03  0.00000000000E+00 0. -1.
<mgrwt>
<rscale>  0 0.90720925E+02</rscale>
<asrwt>0</asrwt>
<pdfrwt beam="1">  1        1 0.72965108E-01 0.90720925E+02</pdfrwt>
<pdfrwt beam="2">  1       -1 0.66744119E-03 0.90720925E+02</pdfrwt>
<totfact> 0.14020062E+05</totfact>
</mgrwt>
</event>
<event>
 7    1  0.2787125E-009  0.9066523E+02  0.7818608E-02  0.1301249E+00
         -1   -1    0    0    0  501 -0.00000000000E+00  0.00000000000E+00  0.39984376572E+02  0.39984376890E+02  0.50400000000E-02 0.  1.
          1   -1    0    0  501    0  0.00000000000E+00 -0.00000000000E+00 -0.51396226855E+02  0.51396227102E+02  0.50400000000E-02 0. -1.
         23    2    1    2    0    0  0.00000000000E+00  0.00000000000E+00 -0.11411850282E+02  0.91380603992E+02  0.90665232912E+02 0.  0.
    9000005    2    3    3    0    0  0.83224225148E+01 -0.43109964008E+02 -0.15427891398E+02  0.47291372886E+02  0.84096613015E+01 0.  0.
         22    1    3    3    0    0 -0.83224225148E+01  0.43109964008E+02  0.40160411159E+01  0.44089231106E+02  0.00000000000E+00 0.  1.
         22    1    4    4    0    0 -0.12650535999E+01 -0.77279808450E+01 -0.99204563247E+00  0.78934278415E+01  0.00000000000E+00 0. -1.
         22    1    4    4    0    0  0.95874761147E+01 -0.35381983163E+02 -0.14435845766E+02  0.39397945045E+02  0.00000000000E+00 0. -1.
<mgrwt>
<rscale>  0 0.90665233E+02</rscale>
<asrwt>0</asrwt>
<pdfrwt beam="2">  1        1 0.79071119E-02 0.90665233E+02</pdfrwt>
<pdfrwt beam="1">  1       -1 0.61514426E-02 0.90665233E+02</pdfrwt>
<totfact> 0.95641774E+04</totfact>
</mgrwt>
</event>
<event>
 7    1  0.2787125E-009  0.9182814E+02  0.7818608E-02  0.1298484E+00
          1   -1    0    0  501    0  0.00000000000E+00  0.00000000000E+00  0.73205138751E+03  0.73205138753E+03  0.50400000000E-02 0. -1.
         -1   -1    0    0    0  501 -0.00000000000E+00 -0.00000000000E+00 -0.28797160543E+01  0.28797204647E+01  0.50400000000E-02 0.  1.
         23    2    1    2    0    0  0.00000000000E+00 -0.17763568394E-14  0.72917167146E+03  0.73493110799E+03  0.91828138612E+02 0.  0.
    9000005    2    3    3    0    0 -0.13270397248E+02  0.13957191514E+02  0.69759085236E+03  0.69794118000E+03  0.10862173158E+02 0.  0.
         22    1    3    3    0    0  0.13270397248E+02 -0.13957191514E+02  0.31580819094E+02  0.36989927990E+02  0.00000000000E+00 0.  1.
         22    1    4    4    0    0 -0.54951436885E+01  0.81275682860E-01  0.11248894285E+03  0.11262311252E+03  0.00000000000E+00 0.  1.
         22    1    4    4    0    0 -0.77752535596E+01  0.13875915831E+02  0.58510190951E+03  0.58531806749E+03  0.00000000000E+00 0.  1.
<mgrwt>
<rscale>  0 0.91828139E+02</rscale>
<asrwt>0</asrwt>
<pdfrwt beam="1">  1        1 0.11262342E+00 0.91828139E+02</pdfrwt>
<pdfrwt beam="2">  1       -1 0.44303305E-03 0.91828139E+02</pdfrwt>
<totfact> 0.13939309E+05</totfact>
</mgrwt>
</event>
<event>
 7    1  0.2787125E-009  0.9032611E+02  0.7818608E-02  0.1302064E+00
          1   -1    0    0  501    0  0.00000000000E+00  0.00000000000E+00  0.15246056532E+03  0.15246056541E+03  0.50400000000E-02 0. -1.
         -1   -1    0    0    0  501 -0.00000000000E+00 -0.00000000000E+00 -0.13378551532E+02  0.13378552482E+02  0.50400000000E-02 0.  1.
         23    2    1    2    0    0 -0.35527136788E-14  0.00000000000E+00  0.13908201379E+03  0.16583911789E+03  0.90326111738E+02 0.  0.
    9000005    2    3    3    0    0  0.20830096793E+02 -0.20501744439E+02  0.81810008580E+01  0.31714960316E+02  0.92030144720E+01 0.  0.
         22    1    3    3    0    0 -0.20830096793E+02  0.20501744439E+02  0.13090101293E+03  0.13412415757E+03  0.00000000000E+00 0. -1.
         22    1    4    4    0    0  0.51897786645E+01 -0.60331103297E+01  0.66197294334E+01  0.10351475287E+02  0.00000000000E+00 0. -1.
         22    1    4    4    0    0  0.15640318129E+02 -0.14468634109E+02  0.15612714246E+01  0.21363485030E+02  0.00000000000E+00 0. -1.
<mgrwt>
<rscale>  0 0.90326112E+02</rscale>
<asrwt>0</asrwt>
<pdfrwt beam="1">  1        1 0.23455472E-01 0.90326112E+02</pdfrwt>
<pdfrwt beam="2">  1       -1 0.20582388E-02 0.90326112E+02</pdfrwt>
<totfact> 0.11534549E+05</totfact>
</mgrwt>
</event>
<event>
 7    1  0.2787125E-009  0.9048616E+02  0.7818608E-02  0.1301679E+00
         -1   -1    0    0    0  501 -0.00000000000E+00  0.00000000000E+00  0.13418605204E+02  0.13418606151E+02  0.50400000000E-02 0.  1.
          1   -1    0    0  501    0  0.00000000000E+00 -0.00000000000E+00 -0.15254464688E+03  0.15254464697E+03  0.50400000000E-02 0. -1.
         23    2    1    2    0    0  0.35527136788E-14  0.00000000000E+00 -0.13912604168E+03  0.16596325312E+03  0.90486164202E+02 0.  0.
    9000005    2    3    3    0    0 -0.22369585585E+02  0.24241616889E+02 -0.12496196223E+03  0.13006512649E+03  0.14607901181E+02 0.  0.
         22    1    3    3    0    0  0.22369585585E+02 -0.24241616889E+02 -0.14164079455E+02  0.35898126629E+02  0.00000000000E+00 0.  1.
         22    1    4    4    0    0 -0.20992346647E+02  0.14812232829E+02 -0.77234820813E+02  0.81395936048E+02  0.00000000000E+00 0.  1.
         22    1    4    4    0    0 -0.13772389379E+01  0.94293840601E+01 -0.47727141413E+02  0.48669190442E+02  0.00000000000E+00 0.  1.
<mgrwt>
<rscale>  0 0.90486164E+02</rscale>
<asrwt>0</asrwt>
<pdfrwt beam="2">  1        1 0.23468406E-01 0.90486164E+02</pdfrwt>
<pdfrwt beam="1">  1       -1 0.20644010E-02 0.90486164E+02</pdfrwt>
<totfact> 0.11480877E+05</totfact>
</mgrwt>
</event>
<event>
 7    1  0.2787125E-009  0.9193154E+02  0.7818608E-02  0.1298240E+00
         -1   -1    0    0    0  501 -0.00000000000E+00  0.00000000000E+00  0.83292618288E+02  0.83292618440E+02  0.50400000000E-02 0.  1.
          1   -1    0    0  501    0  0.00000000000E+00 -0.00000000000E+00 -0.25366615716E+02  0.25366616216E+02  0.50400000000E-02 0. -1.
         23    2    1    2    0    0  0.00000000000E+00  0.00000000000E+00  0.57926002572E+02  0.10865923466E+03  0.91931537038E+02 0.  0.
    9000005    2    3    3    0    0 -0.24311631591E+02  0.33200584527E+02  0.50860452706E+01  0.41686140573E+02  0.43049060165E+01 0.  0.
         22    1    3    3    0    0  0.24311631591E+02 -0.33200584527E+02  0.52839957302E+02  0.66973094084E+02  0.00000000000E+00 0. -1.
         22    1    4    4    0    0 -0.47274008546E+01  0.89665449836E+01  0.13679006831E+00  0.10137354650E+02  0.00000000000E+00 0. -1.
         22    1    4    4    0    0 -0.19584230736E+02  0.24234039543E+02  0.49492552023E+01  0.31548785922E+02  0.00000000000E+00 0. -1.
<mgrwt>
<rscale>  0 0.91931537E+02</rscale>
<asrwt>0</asrwt>
<pdfrwt beam="2">  1        1 0.39025563E-02 0.91931537E+02</pdfrwt>
<pdfrwt beam="1">  1       -1 0.12814249E-01 0.91931537E+02</pdfrwt>
<totfact> 0.82311540E+04</totfact>
</mgrwt>
</event>
<event>
 7    1  0.2787125E-009  0.9129428E+02  0.7818608E-02  0.1299747E+00
         -1   -1    0    0    0  501 -0.00000000000E+00  0.00000000000E+00  0.25487213967E+02  0.25487214465E+02  0.50400000000E-02 0.  1.
          1   -1    0    0  501    0  0.00000000000E+00 -0.00000000000E+00 -0.81753203377E+02  0.81753203532E+02  0.50400000000E-02 0. -1.
         23    2    1    2    0    0  0.35527136788E-14  0.00000000000E+00 -0.56265989410E+02  0.10724041800E+03  0.91294280696E+02 0.  0.
    9000005    2    3    3    0    0  0.25191850247E+02  0.13176008781E+02  0.12147567947E+02  0.33154985174E+02  0.11977191184E+02 0.  0.
         22    1    3    3    0    0 -0.25191850247E+02 -0.13176008781E+02 -0.68413557357E+02  0.74085432822E+02  0.00000000000E+00 0. -1.
         22    1    4    4    0    0  0.23819718047E+02  0.15280937452E+02  0.10700075854E+02  0.30255208486E+02  0.00000000000E+00 0.  1.
         22    1    4    4    0    0  0.13721321997E+01 -0.21049286712E+01  0.14474920925E+01  0.28997766883E+01  0.00000000000E+00 0.  1.
<mgrwt>
<rscale>  0 0.91294281E+02</rscale>
<asrwt>0</asrwt>
<pdfrwt beam="2">  1        1 0.12577416E-01 0.91294281E+02</pdfrwt>
<pdfrwt beam="1">  1       -1 0.39211099E-02 0.91294281E+02</pdfrwt>
<totfact> 0.10073357E+05</totfact>
</mgrwt>
</event>
<event>
 7    1  0.2787125E-009  0.9106655E+02  0.7818608E-02  0.1300289E+00
         -1   -1    0    0    0  501 -0.00000000000E+00  0.00000000000E+00  0.98906060559E+01  0.98906073400E+01  0.50400000000E-02 0.  1.
          1   -1    0    0  501    0  0.00000000000E+00 -0.00000000000E+00 -0.20962104151E+03  0.20962104157E+03  0.50400000000E-02 0. -1.
         23    2    1    2    0    0 -0.17763568394E-14  0.00000000000E+00 -0.19973043545E+03  0.21951164891E+03  0.91066553469E+02 0.  0.
    9000005    2    3    3    0    0  0.15454559078E+02  0.40961044512E+02 -0.71051726601E+02  0.83589389233E+02  0.47103689330E+01 0.  0.
         22    1    3    3    0    0 -0.15454559078E+02 -0.40961044512E+02 -0.12867870885E+03  0.13592225968E+03  0.00000000000E+00 0. -1.
         22    1    4    4    0    0  0.15228760626E+02  0.40501764259E+02 -0.68765276403E+02  0.81246361746E+02  0.00000000000E+00 0. -1.
         22    1    4    4    0    0  0.22579845196E+00  0.45928025318E+00 -0.22864501983E+01  0.23430274862E+01  0.00000000000E+00 0. -1.
<mgrwt>
<rscale>  0 0.91066553E+02</rscale>
<asrwt>0</asrwt>
<pdfrwt beam="2">  1        1 0.32249388E-01 0.91066553E+02</pdfrwt>
<pdfrwt beam="1">  1       -1 0.15216320E-02 0.91066553E+02</pdfrwt>
<totfact> 0.11988057E+05</totfact>
</mgrwt>
</event>
<event>
 7    1  0.2787125E-009  0.8950923E+02  0.7818608E-02  0.1304045E+00
          1   -1    0    0  501    0  0.00000000000E+00  0.00000000000E+00  0.10528229117E+02  0.10528230324E+02  0.50400000000E-02 0. -1.
         -1   -1    0    0    0  501 -0.00000000000E+00 -0.00000000000E+00 -0.19024810208E+03  0.19024810215E+03  0.50400000000E-02 0.  1.
         23    2    1    2    0    0  0.00000000000E+00  0.00000000000E+00 -0.17971987296E+03  0.20077633247E+03  0.89509233840E+02 0.  0.
    9000005    2    3    3    0    0  0.41223788163E+02  0.44090255034E+01 -0.12097946522E+03  0.12887865714E+03  0.15963616269E+02 0.  0.
         22    1    3    3    0    0 -0.41223788163E+02 -0.44090255034E+01 -0.58740407738E+02  0.71897675328E+02  0.00000000000E+00 0. -1.
         22    1    4    4    0    0  0.61911124573E+01 -0.34385434824E+01 -0.10126298756E+02  0.12356997258E+02  0.00000000000E+00 0. -1.
         22    1    4    4    0    0  0.35032675705E+02  0.78475689858E+01 -0.11085316647E+03  0.11652165988E+03  0.00000000000E+00 0. -1.
<mgrwt>
<rscale>  0 0.89509234E+02</rscale>
<asrwt>0</asrwt>
<pdfrwt beam="1">  1        1 0.16197278E-02 0.89509234E+02</pdfrwt>
<pdfrwt beam="2">  1       -1 0.29268936E-01 0.89509234E+02</pdfrwt>
<totfact> 0.73868885E+04</totfact>
</mgrwt>
</event>
<event>
 7    1  0.3016739E-009  0.8999099E+02  0.7818608E-02  0.1302874E+00
          1   -1    0    0  501    0  0.00000000000E+00  0.00000000000E+00  0.33110431544E+02  0.33110431927E+02  0.50400000000E-02 0. -1.
         -1   -1    0    0    0  501 -0.00000000000E+00 -0.00000000000E+00 -0.61146729742E+02  0.61146729950E+02  0.50400000000E-02 0.  1.
         23    2    1    2    0    0  0.00000000000E+00  0.17763568394E-14 -0.28036298198E+02  0.94257161877E+02  0.89990991485E+02 0.  0.
    9000005    2    3    3    0    0 -0.18603324706E+01 -0.10293345873E+02 -0.59034507080E+02  0.61541679915E+02  0.13888539681E+02 0.  0.
         22    1    3    3    0    0  0.18603324706E+01  0.10293345873E+02  0.30998208881E+02  0.32715481962E+02  0.00000000000E+00 0. -1.
         22    1    4    4    0    0  0.19557226425E+01  0.13304740274E+01 -0.29207213607E+02  0.29302838409E+02  0.00000000000E+00 0.  1.
         22    1    4    4    0    0 -0.38160551131E+01 -0.11623819900E+02 -0.29827293473E+02  0.32238841506E+02  0.00000000000E+00 0.  1.
<mgrwt>
<rscale>  0 0.89990991E+02</rscale>
<asrwt>0</asrwt>
<pdfrwt beam="1">  1        1 0.50939126E-02 0.89990991E+02</pdfrwt>
<pdfrwt beam="2">  1       -1 0.94071892E-02 0.89990991E+02</pdfrwt>
<totfact> 0.91402414E+04</totfact>
</mgrwt>
</event>
<event>
 7    1  0.2787125E-009  0.8901708E+02  0.7818608E-02  0.1305250E+00
         -1   -1    0    0    0  501 -0.00000000000E+00  0.00000000000E+00  0.55887949753E+02  0.55887949981E+02  0.50400000000E-02 0.  1.
          1   -1    0    0  501    0  0.00000000000E+00 -0.00000000000E+00 -0.35446101955E+02  0.35446102313E+02  0.50400000000E-02 0. -1.
         23    2    1    2    0    0  0.00000000000E+00  0.00000000000E+00  0.20441847798E+02  0.91334052294E+02  0.89017076828E+02 0.  0.
    9000005    2    3    3    0    0 -0.10969222181E+02 -0.41028730549E+02  0.28498244243E+01  0.45364933832E+02  0.15689969937E+02 0.  0.
         22    1    3    3    0    0  0.10969222181E+02  0.41028730549E+02  0.17592023374E+02  0.45969118462E+02  0.00000000000E+00 0.  1.
         22    1    4    4    0    0 -0.69416615009E+01 -0.34845662717E+02  0.79320328677E+01  0.36404999931E+02  0.00000000000E+00 0. -1.
         22    1    4    4    0    0 -0.40275606799E+01 -0.61830678325E+01 -0.50822084435E+01  0.89599339012E+01  0.00000000000E+00 0. -1.
<mgrwt>
<rscale>  0 0.89017077E+02</rscale>
<asrwt>0</asrwt>
<pdfrwt beam="2">  1        1 0.54532465E-02 0.89017077E+02</pdfrwt>
<pdfrwt beam="1">  1       -1 0.85981461E-02 0.89017077E+02</pdfrwt>
<totfact> 0.95256369E+04</totfact>
</mgrwt>
</event>
<event>
 7    1  0.2787125E-009  0.9294938E+02  0.7818608E-02  0.1295863E+00
         -1   -1    0    0    0  501 -0.00000000000E+00  0.00000000000E+00  0.14446082667E+03  0.14446082676E+03  0.50400000000E-02 0.  1.
          1   -1    0    0  501    0  0.00000000000E+00 -0.00000000000E+00 -0.14951436193E+02  0.14951437043E+02  0.50400000000E-02 0. -1.
         23    2    1    2    0    0  0.00000000000E+00  0.00000000000E+00  0.12950939048E+03  0.15941226380E+03  0.92949382077E+02 0.  0.
    9000005    2    3    3    0    0  0.17388770900E+02  0.32544018735E+01  0.13826935224E+03  0.13967150863E+03  0.87610541066E+01 0.  0.
         22    1    3    3    0    0 -0.17388770900E+02 -0.32544018735E+01 -0.87599617568E+01  0.19740755177E+02  0.00000000000E+00 0. -1.
         22    1    4    4    0    0  0.65944708763E+01 -0.13092850572E+01  0.76888745518E+02  0.77182125268E+02  0.00000000000E+00 0.  1.
         22    1    4    4    0    0  0.10794300024E+02  0.45636869307E+01  0.61380606720E+02  0.62489383360E+02  0.00000000000E+00 0.  1.
<mgrwt>
<rscale>  0 0.92949382E+02</rscale>
<asrwt>0</asrwt>
<pdfrwt beam="2">  1        1 0.23002210E-02 0.92949382E+02</pdfrwt>
<pdfrwt beam="1">  1       -1 0.22224743E-01 0.92949382E+02</pdfrwt>
<totfact> 0.71762194E+04</totfact>
</mgrwt>
</event>
<event>
 7    1  0.2787125E-009  0.9042536E+02  0.7818608E-02  0.1301825E+00
         -1   -1    0    0    0  501 -0.00000000000E+00  0.00000000000E+00  0.22868930461E+02  0.22868931017E+02  0.50400000000E-02 0.  1.
          1   -1    0    0  501    0  0.00000000000E+00 -0.00000000000E+00 -0.89387063219E+02  0.89387063361E+02  0.50400000000E-02 0. -1.
         23    2    1    2    0    0  0.00000000000E+00  0.00000000000E+00 -0.66518132758E+02  0.11225599438E+03  0.90425363080E+02 0.  0.
    9000005    2    3    3    0    0  0.15102619236E+02 -0.75637238963E+01 -0.84783192675E+02  0.87378063581E+02  0.12705794271E+02 0.  0.
         22    1    3    3    0    0 -0.15102619236E+02  0.75637238963E+01  0.18265059917E+02  0.24877930797E+02  0.00000000000E+00 0.  1.
         22    1    4    4    0    0  0.16707629826E+02 -0.82953286364E+01 -0.81905583766E+02  0.84002869139E+02  0.00000000000E+00 0.  1.
         22    1    4    4    0    0 -0.16050105893E+01  0.73160474008E+00 -0.28776089087E+01  0.33751944417E+01  0.00000000000E+00 0.  1.
<mgrwt>
<rscale>  0 0.90425363E+02</rscale>
<asrwt>0</asrwt>
<pdfrwt beam="2">  1        1 0.13751856E-01 0.90425363E+02</pdfrwt>
<pdfrwt beam="1">  1       -1 0.35182971E-02 0.90425363E+02</pdfrwt>
<totfact> 0.10489177E+05</totfact>
</mgrwt>
</event>
<event>
 7    1  0.2787125E-009  0.8907124E+02  0.7818608E-02  0.1305117E+00
         -1   -1    0    0    0  501 -0.00000000000E+00  0.00000000000E+00  0.54042666079E+02  0.54042666314E+02  0.50400000000E-02 0.  1.
          1   -1    0    0  501    0  0.00000000000E+00 -0.00000000000E+00 -0.36701027087E+02  0.36701027433E+02  0.50400000000E-02 0. -1.
         23    2    1    2    0    0  0.00000000000E+00  0.00000000000E+00  0.17341638991E+02  0.90743693747E+02  0.89071238410E+02 0.  0.
    9000005    2    3    3    0    0  0.50081705752E+01  0.27051432003E+02  0.44225398066E+02  0.52278147503E+02  0.45007917425E+01 0.  0.
         22    1    3    3    0    0 -0.50081705752E+01 -0.27051432003E+02 -0.26883759074E+02  0.38465546245E+02  0.00000000000E+00 0. -1.
         22    1    4    4    0    0  0.55794673185E+01  0.20083260927E+02  0.31848524972E+02  0.38063057784E+02  0.00000000000E+00 0. -1.
         22    1    4    4    0    0 -0.57129674336E+00  0.69681710762E+01  0.12376873094E+02  0.14215089718E+02  0.00000000000E+00 0. -1.
<mgrwt>
<rscale>  0 0.89071238E+02</rscale>
<asrwt>0</asrwt>
<pdfrwt beam="2">  1        1 0.56463119E-02 0.89071238E+02</pdfrwt>
<pdfrwt beam="1">  1       -1 0.83142564E-02 0.89071238E+02</pdfrwt>
<totfact> 0.95592963E+04</totfact>
</mgrwt>
</event>
<event>
 7    1  0.2787125E-009  0.9084048E+02  0.7818608E-02  0.1300829E+00
          1   -1    0    0  501    0  0.00000000000E+00  0.00000000000E+00  0.87502773336E+02  0.87502773481E+02  0.50400000000E-02 0.  1.
         -1   -1    0    0    0  501 -0.00000000000E+00 -0.00000000000E+00 -0.23576376775E+02  0.23576377314E+02  0.50400000000E-02 0. -1.
         23    2    1    2    0    0  0.00000000000E+00  0.00000000000E+00  0.63926396561E+02  0.11107915079E+03  0.90840484169E+02 0.  0.
    9000005    2    3    3    0    0 -0.16500087170E+02 -0.18950286562E+01  0.83148104365E+02  0.85676039546E+02  0.12285458179E+02 0.  0.
         22    1    3    3    0    0  0.16500087170E+02  0.18950286562E+01 -0.19221707804E+02  0.25403111249E+02  0.00000000000E+00 0. -1.
         22    1    4    4    0    0  0.17403239904E+01 -0.10103168618E+01  0.14560416275E+02  0.14698815934E+02  0.00000000000E+00 0.  1.
         22    1    4    4    0    0 -0.18240411160E+02 -0.88471179440E+00  0.68587688090E+02  0.70977223612E+02  0.00000000000E+00 0.  1.
<mgrwt>
<rscale>  0 0.90840484E+02</rscale>
<asrwt>0</asrwt>
<pdfrwt beam="1">  1        1 0.13461965E-01 0.90840484E+02</pdfrwt>
<pdfrwt beam="2">  1       -1 0.36271349E-02 0.90840484E+02</pdfrwt>
<totfact> 0.10323305E+05</totfact>
</mgrwt>
</event>
<event>
 7    1  0.2787125E-009  0.9728239E+02  0.7818608E-02  0.1286117E+00
          1   -1    0    0  501    0  0.00000000000E+00  0.00000000000E+00  0.59175141687E+01  0.59175163150E+01  0.50400000000E-02 0.  1.
         -1   -1    0    0    0  501 -0.00000000000E+00 -0.00000000000E+00 -0.39982420477E+03  0.39982420480E+03  0.50400000000E-02 0. -1.
         23    2    1    2    0    0 -0.35527136788E-14  0.00000000000E+00 -0.39390669060E+03  0.40574172111E+03  0.97282389744E+02 0.  0.
    9000005    2    3    3    0    0  0.29057626996E+02 -0.38252629138E+02 -0.16682740694E+03  0.17363698099E+03  0.32875731783E+01 0.  0.
         22    1    3    3    0    0 -0.29057626996E+02  0.38252629138E+02 -0.22707928366E+03  0.23210474013E+03  0.00000000000E+00 0. -1.
         22    1    4    4    0    0  0.25621323481E+02 -0.33656310980E+02 -0.14274768996E+03  0.14888284816E+03  0.00000000000E+00 0. -1.
         22    1    4    4    0    0  0.34363035149E+01 -0.45963181572E+01 -0.24079716977E+02  0.24754132830E+02  0.00000000000E+00 0. -1.
<mgrwt>
<rscale>  0 0.97282390E+02</rscale>
<asrwt>0</asrwt>
<pdfrwt beam="1">  1        1 0.91038728E-03 0.97282390E+02</pdfrwt>
<pdfrwt beam="2">  1       -1 0.61511395E-01 0.97282390E+02</pdfrwt>
<totfact> 0.44955741E+04</totfact>
</mgrwt>
</event>
<event>
 7    1  0.2787125E-009  0.9443904E+02  0.7818608E-02  0.1292445E+00
         -1   -1    0    0    0  501 -0.00000000000E+00  0.00000000000E+00  0.18132367622E+02  0.18132368322E+02  0.50400000000E-02 0.  1.
          1   -1    0    0  501    0  0.00000000000E+00 -0.00000000000E+00 -0.12296700045E+03  0.12296700056E+03  0.50400000000E-02 0. -1.
         23    2    1    2    0    0  0.00000000000E+00  0.00000000000E+00 -0.10483463283E+03  0.14109936888E+03  0.94439036722E+02 0.  0.
    9000005    2    3    3    0    0  0.26318310309E+02  0.29009996113E+02 -0.91680602613E+02  0.99780343685E+02  0.40682623362E+01 0.  0.
         22    1    3    3    0    0 -0.26318310309E+02 -0.29009996113E+02 -0.13154030219E+02  0.41319025194E+02  0.00000000000E+00 0.  1.
         22    1    4    4    0    0  0.13139368583E+02  0.17429943379E+02 -0.49787439767E+02  0.54362074017E+02  0.00000000000E+00 0.  1.
         22    1    4    4    0    0  0.13178941726E+02  0.11580052734E+02 -0.41893162847E+02  0.45418269668E+02  0.00000000000E+00 0.  1.
<mgrwt>
<rscale>  0 0.94439037E+02</rscale>
<asrwt>0</asrwt>
<pdfrwt beam="2">  1        1 0.18918000E-01 0.94439037E+02</pdfrwt>
<pdfrwt beam="1">  1       -1 0.27895952E-02 0.94439037E+02</pdfrwt>
<totfact> 0.98337497E+04</totfact>
</mgrwt>
</event>
<event>
 7    1  0.2787125E-009  0.9324983E+02  0.7818608E-02  0.1295167E+00
         -1   -1    0    0    0  501 -0.00000000000E+00  0.00000000000E+00  0.19273085022E+01  0.19273150921E+01  0.50400000000E-02 0.  1.
          1   -1    0    0  501    0  0.00000000000E+00 -0.00000000000E+00 -0.11279350324E+04  0.11279350324E+04  0.50400000000E-02 0. -1.
         23    2    1    2    0    0  0.17763568394E-14  0.00000000000E+00 -0.11260077239E+04  0.11298623475E+04  0.93249825888E+02 0.  0.
    9000005    2    3    3    0    0  0.12609060371E+02 -0.12372660912E+01 -0.11065670762E+04  0.11066576494E+04  0.63197815216E+01 0.  0.
         22    1    3    3    0    0 -0.12609060371E+02  0.12372660912E+01 -0.19440647719E+02  0.23204698114E+02  0.00000000000E+00 0.  1.
         22    1    4    4    0    0  0.67359044404E+01  0.33208570331E+00 -0.34251442917E+03  0.34258081803E+03  0.00000000000E+00 0.  1.
         22    1    4    4    0    0  0.58731559305E+01 -0.15693517945E+01 -0.76405264702E+03  0.76407683137E+03  0.00000000000E+00 0.  1.
<mgrwt>
<rscale>  0 0.93249826E+02</rscale>
<asrwt>0</asrwt>
<pdfrwt beam="2">  1        1 0.17352794E+00 0.93249826E+02</pdfrwt>
<pdfrwt beam="1">  1       -1 0.29651041E-03 0.93249826E+02</pdfrwt>
<totfact> 0.12319850E+05</totfact>
</mgrwt>
</event>
<event>
 7    1  0.2787125E-009  0.1060135E+03  0.7818608E-02  0.1268136E+00
         -1   -1    0    0    0  501 -0.00000000000E+00  0.00000000000E+00  0.12165810782E+03  0.12165810792E+03  0.50400000000E-02 0.  1.
          1   -1    0    0  501    0  0.00000000000E+00 -0.00000000000E+00 -0.23095178811E+02  0.23095179361E+02  0.50400000000E-02 0. -1.
         23    2    1    2    0    0  0.17763568394E-14 -0.71054273576E-14  0.98562929006E+02  0.14475328728E+03  0.10601350482E+03 0.  0.
    9000005    2    3    3    0    0 -0.14756130082E+02  0.47465437629E+02  0.70514424521E+02  0.87679390024E+02  0.15642257674E+02 0.  0.
         22    1    3    3    0    0  0.14756130082E+02 -0.47465437629E+02  0.28048504484E+02  0.57073897257E+02  0.00000000000E+00 0.  1.
         22    1    4    4    0    0 -0.13928077078E+02  0.26998631244E+02  0.32435437789E+02  0.44440691317E+02  0.00000000000E+00 0.  1.
         22    1    4    4    0    0 -0.82805300432E+00  0.20466806386E+02  0.38078986732E+02  0.43238698708E+02  0.00000000000E+00 0.  1.
<mgrwt>
<rscale>  0 0.10601350E+03</rscale>
<asrwt>0</asrwt>
<pdfrwt beam="2">  1        1 0.35531045E-02 0.10601350E+03</pdfrwt>
<pdfrwt beam="1">  1       -1 0.18716632E-01 0.10601350E+03</pdfrwt>
<totfact> 0.52961876E+04</totfact>
</mgrwt>
</event>
<event>
 7    1  0.3578180E-009  0.1004832E+03  0.7818608E-02  0.1279283E+00
         -1   -1    0    0    0  501 -0.00000000000E+00  0.00000000000E+00  0.53968168228E+01  0.53968191762E+01  0.50400000000E-02 0.  1.
          1   -1    0    0  501    0  0.00000000000E+00 -0.00000000000E+00 -0.46772326068E+03  0.46772326071E+03  0.50400000000E-02 0. -1.
         23    2    1    2    0    0  0.00000000000E+00  0.35527136788E-14 -0.46232644386E+03  0.47312007988E+03  0.10048317919E+03 0.  0.
    9000005    2    3    3    0    0 -0.41498028334E+02  0.23493791360E+02 -0.29205661442E+03  0.29629853311E+03  0.14889933053E+02 0.  0.
         22    1    3    3    0    0  0.41498028334E+02 -0.23493791360E+02 -0.17026982944E+03  0.17682154678E+03  0.00000000000E+00 0.  1.
         22    1    4    4    0    0 -0.96546078362E+00 -0.13393216833E+01 -0.37203980072E+01  0.40702897229E+01  0.00000000000E+00 0. -1.
         22    1    4    4    0    0 -0.40532567551E+02  0.24833113043E+02 -0.28833621641E+03  0.29222824338E+03  0.00000000000E+00 0. -1.
<mgrwt>
<rscale>  0 0.10048318E+03</rscale>
<asrwt>0</asrwt>
<pdfrwt beam="2">  1        1 0.71957393E-01 0.10048318E+03</pdfrwt>
<pdfrwt beam="1">  1       -1 0.83028006E-03 0.10048318E+03</pdfrwt>
<totfact> 0.10658487E+05</totfact>
</mgrwt>
</event>
<event>
 7    1  0.2787125E-009  0.9172788E+02  0.7818608E-02  0.1298721E+00
         -1   -1    0    0    0  501 -0.00000000000E+00  0.00000000000E+00  0.18641762523E+02  0.18641763204E+02  0.50400000000E-02 0.  1.
          1   -1    0    0  501    0  0.00000000000E+00 -0.00000000000E+00 -0.11283808345E+03  0.11283808356E+03  0.50400000000E-02 0. -1.
         23    2    1    2    0    0  0.00000000000E+00  0.00000000000E+00 -0.94196320927E+02  0.13147984677E+03  0.91727875967E+02 0.  0.
    9000005    2    3    3    0    0 -0.40688292138E+02 -0.18639146020E+02 -0.41923307592E+02  0.62665438358E+02  0.12901107073E+02 0.  0.
         22    1    3    3    0    0  0.40688292138E+02  0.18639146020E+02 -0.52273013335E+02  0.68814408408E+02  0.00000000000E+00 0.  1.
         22    1    4    4    0    0 -0.24943262688E+02 -0.18024077463E+02 -0.29028218395E+02  0.42304505494E+02  0.00000000000E+00 0. -1.
         22    1    4    4    0    0 -0.15745029449E+02 -0.61506855746E+00 -0.12895089197E+02  0.20360932864E+02  0.00000000000E+00 0. -1.
<mgrwt>
<rscale>  0 0.91727876E+02</rscale>
<asrwt>0</asrwt>
<pdfrwt beam="2">  1        1 0.17359705E-01 0.91727876E+02</pdfrwt>
<pdfrwt beam="1">  1       -1 0.28679636E-02 0.91727876E+02</pdfrwt>
<totfact> 0.10486892E+05</totfact>
</mgrwt>
</event>
<event>
 7    1  0.2787125E-009  0.8951453E+02  0.7818608E-02  0.1304032E+00
         -1   -1    0    0    0  501 -0.00000000000E+00  0.00000000000E+00  0.24940406356E+02  0.24940406865E+02  0.50400000000E-02 0.  1.
          1   -1    0    0  501    0  0.00000000000E+00 -0.00000000000E+00 -0.80319962880E+02  0.80319963038E+02  0.50400000000E-02 0. -1.
         23    2    1    2    0    0 -0.35527136788E-14  0.00000000000E+00 -0.55379556524E+02  0.10526036990E+03  0.89514525030E+02 0.  0.
    9000005    2    3    3    0    0 -0.29522399880E+02  0.25507323735E+02 -0.50532277612E+01  0.41581998179E+02  0.13465949759E+02 0.  0.
         22    1    3    3    0    0  0.29522399880E+02 -0.25507323735E+02 -0.50326328762E+02  0.63678371725E+02  0.00000000000E+00 0. -1.
         22    1    4    4    0    0 -0.16337108567E+02  0.21414672078E+02 -0.64775852775E+01  0.27702859195E+02  0.00000000000E+00 0. -1.
         22    1    4    4    0    0 -0.13185291313E+02  0.40926516569E+01  0.14243575163E+01  0.13879138983E+02  0.00000000000E+00 0. -1.
<mgrwt>
<rscale>  0 0.89514525E+02</rscale>
<asrwt>0</asrwt>
<pdfrwt beam="2">  1        1 0.12356917E-01 0.89514525E+02</pdfrwt>
<pdfrwt beam="1">  1       -1 0.38369857E-02 0.89514525E+02</pdfrwt>
<totfact> 0.10601789E+05</totfact>
</mgrwt>
</event>
<event>
 7    1  0.2787125E-009  0.9070647E+02  0.7818608E-02  0.1301150E+00
          1   -1    0    0  501    0  0.00000000000E+00  0.00000000000E+00  0.37503615637E+03  0.37503615641E+03  0.50400000000E-02 0. -1.
         -1   -1    0    0    0  501 -0.00000000000E+00 -0.00000000000E+00 -0.54845793728E+01  0.54845816885E+01  0.50400000000E-02 0.  1.
         23    2    1    2    0    0  0.00000000000E+00  0.00000000000E+00  0.36955157700E+03  0.38052073810E+03  0.90706471971E+02 0.  0.
    9000005    2    3    3    0    0  0.24237885536E+02 -0.35007061938E+02  0.14025235767E+03  0.14730173916E+03  0.14632465468E+02 0.  0.
         22    1    3    3    0    0 -0.24237885536E+02  0.35007061938E+02  0.22929921933E+03  0.23321899894E+03  0.00000000000E+00 0.  1.
         22    1    4    4    0    0  0.14698593571E+02 -0.23423192288E+02  0.66187697270E+02  0.71732181480E+02  0.00000000000E+00 0. -1.
         22    1    4    4    0    0  0.95392919650E+01 -0.11583869649E+02  0.74064660400E+02  0.75569557677E+02  0.00000000000E+00 0. -1.
<mgrwt>
<rscale>  0 0.90706472E+02</rscale>
<asrwt>0</asrwt>
<pdfrwt beam="1">  1        1 0.57697888E-01 0.90706472E+02</pdfrwt>
<pdfrwt beam="2">  1       -1 0.84378137E-03 0.90706472E+02</pdfrwt>
<totfact> 0.13528205E+05</totfact>
</mgrwt>
</event>
<event>
 7    1  0.2787125E-009  0.8981744E+02  0.7818608E-02  0.1303294E+00
          1   -1    0    0  501    0  0.00000000000E+00  0.00000000000E+00  0.13893776531E+03  0.13893776540E+03  0.50400000000E-02 0. -1.
         -1   -1    0    0    0  501 -0.00000000000E+00 -0.00000000000E+00 -0.14515800469E+02  0.14515801344E+02  0.50400000000E-02 0.  1.
         23    2    1    2    0    0  0.00000000000E+00  0.00000000000E+00  0.12442196484E+03  0.15345356675E+03  0.89817436014E+02 0.  0.
    9000005    2    3    3    0    0  0.23836780061E+02 -0.36489166710E+02  0.58100315408E+02  0.74092288062E+02  0.14641349967E+02 0.  0.
         22    1    3    3    0    0 -0.23836780061E+02  0.36489166710E+02  0.66321649433E+02  0.79361278684E+02  0.00000000000E+00 0.  1.
         22    1    4    4    0    0  0.80709638122E+01 -0.11000958816E+02  0.83030506596E+01  0.15971919171E+02  0.00000000000E+00 0.  1.
         22    1    4    4    0    0  0.15765816249E+02 -0.25488207894E+02  0.49797264748E+02  0.58120368891E+02  0.00000000000E+00 0.  1.
<mgrwt>
<rscale>  0 0.89817436E+02</rscale>
<asrwt>0</asrwt>
<pdfrwt beam="1">  1        1 0.21375040E-01 0.89817436E+02</pdfrwt>
<pdfrwt beam="2">  1       -1 0.22332003E-02 0.89817436E+02</pdfrwt>
<totfact> 0.11515154E+05</totfact>
</mgrwt>
</event>
<event>
 7    1  0.2787125E-009  0.9737455E+02  0.7818608E-02  0.1285916E+00
          1   -1    0    0  501    0  0.00000000000E+00  0.00000000000E+00  0.56529954376E+02  0.56529954601E+02  0.50400000000E-02 0. -1.
         -1   -1    0    0    0  501 -0.00000000000E+00 -0.00000000000E+00 -0.41932649455E+02  0.41932649758E+02  0.50400000000E-02 0.  1.
         23    2    1    2    0    0  0.00000000000E+00  0.00000000000E+00  0.14597304921E+02  0.98462604359E+02  0.97374550813E+02 0.  0.
    9000005    2    3    3    0    0  0.46383733909E+02 -0.12223198206E+02  0.15131241979E+02  0.50492379901E+02  0.44349293668E+01 0.  0.
         22    1    3    3    0    0 -0.46383733909E+02  0.12223198206E+02 -0.53393705743E+00  0.47970224458E+02  0.00000000000E+00 0. -1.
         22    1    4    4    0    0  0.32472406889E+02 -0.86503028839E+01  0.84461514335E+01  0.34649998892E+02  0.00000000000E+00 0. -1.
         22    1    4    4    0    0  0.13911327020E+02 -0.35728953218E+01  0.66850905450E+01  0.15842381009E+02  0.00000000000E+00 0. -1.
<mgrwt>
<rscale>  0 0.97374551E+02</rscale>
<asrwt>0</asrwt>
<pdfrwt beam="1">  1        1 0.86969161E-02 0.97374551E+02</pdfrwt>
<pdfrwt beam="2">  1       -1 0.64511769E-02 0.97374551E+02</pdfrwt>
<totfact> 0.79462297E+04</totfact>
</mgrwt>
</event>
<event>
 7    1  0.2787125E-009  0.1280185E+03  0.7818608E-02  0.1230426E+00
          1   -1    0    0  501    0  0.00000000000E+00  0.00000000000E+00  0.91172420650E+01  0.91172434580E+01  0.50400000000E-02 0. -1.
         -1   -1    0    0    0  501 -0.00000000000E+00 -0.00000000000E+00 -0.44938852746E+03  0.44938852749E+03  0.50400000000E-02 0.  1.
         23    2    1    2    0    0  0.00000000000E+00 -0.35527136788E-14 -0.44027128540E+03  0.45850577095E+03  0.12801850354E+03 0.  0.
    9000005    2    3    3    0    0 -0.12639306291E+02 -0.29832043801E+02 -0.41749280526E+03  0.41890069478E+03  0.11306933357E+02 0.  0.
         22    1    3    3    0    0  0.12639306291E+02  0.29832043801E+02 -0.22778480133E+02  0.39605076165E+02  0.00000000000E+00 0. -1.
         22    1    4    4    0    0 -0.24207331171E+01 -0.15796240739E+02 -0.25007378258E+03  0.25058387399E+03  0.00000000000E+00 0.  1.
         22    1    4    4    0    0 -0.10218573174E+02 -0.14035803062E+02 -0.16741902269E+03  0.16831682080E+03  0.00000000000E+00 0.  1.
<mgrwt>
<rscale>  0 0.12801850E+03</rscale>
<asrwt>0</asrwt>
<pdfrwt beam="1">  1        1 0.14026531E-02 0.12801850E+03</pdfrwt>
<pdfrwt beam="2">  1       -1 0.69136679E-01 0.12801850E+03</pdfrwt>
<totfact> 0.20355671E+04</totfact>
</mgrwt>
</event>
<event>
 7    1  0.2787125E-009  0.9085727E+02  0.7818608E-02  0.1300789E+00
         -1   -1    0    0    0  501 -0.00000000000E+00  0.00000000000E+00  0.29707187813E+01  0.29707230567E+01  0.50400000000E-02 0.  1.
          1   -1    0    0  501    0  0.00000000000E+00 -0.00000000000E+00 -0.69470036656E+03  0.69470036658E+03  0.50400000000E-02 0. -1.
         23    2    1    2    0    0  0.17763568394E-14 -0.33306690739E-15 -0.69172964778E+03  0.69767108964E+03  0.90857271016E+02 0.  0.
    9000005    2    3    3    0    0  0.12693519992E+02  0.90194672470E+00 -0.68040425803E+03  0.68063573197E+03  0.12373614660E+02 0.  0.
         22    1    3    3    0    0 -0.12693519992E+02 -0.90194672470E+00 -0.11325389757E+02  0.17035357667E+02  0.00000000000E+00 0.  1.
         22    1    4    4    0    0  0.96014234704E+01 -0.49359017409E+01 -0.35381642124E+03  0.35398108762E+03  0.00000000000E+00 0. -1.
         22    1    4    4    0    0  0.30920965220E+01  0.58378484656E+01 -0.32658783679E+03  0.32665464435E+03  0.00000000000E+00 0. -1.
<mgrwt>
<rscale>  0 0.90857271E+02</rscale>
<asrwt>0</asrwt>
<pdfrwt beam="2">  1        1 0.10687685E+00 0.90857271E+02</pdfrwt>
<pdfrwt beam="1">  1       -1 0.45703454E-03 0.90857271E+02</pdfrwt>
<totfact> 0.14350929E+05</totfact>
</mgrwt>
</event>
<event>
 7    1  0.3392705E-009  0.1040825E+03  0.7818608E-02  0.1271938E+00
          1   -1    0    0  501    0  0.00000000000E+00  0.00000000000E+00  0.14873571057E+04  0.14873571057E+04  0.50400000000E-02 0. -1.
         -1   -1    0    0    0  501 -0.00000000000E+00 -0.00000000000E+00 -0.18208710416E+01  0.18208780168E+01  0.50400000000E-02 0.  1.
         23    2    1    2    0    0  0.17763568394E-14  0.00000000000E+00  0.14855362347E+04  0.14891779837E+04  0.10408248041E+03 0.  0.
    9000005    2    3    3    0    0 -0.13584690274E+02  0.27178680473E+02  0.13437579831E+04  0.13441804075E+04  0.14567992768E+02 0.  0.
         22    1    3    3    0    0  0.13584690274E+02 -0.27178680473E+02  0.14177825160E+03  0.14499757621E+03  0.00000000000E+00 0.  1.
         22    1    4    4    0    0 -0.47826156768E+01  0.22165059516E+02  0.10579378459E+04  0.10581808206E+04  0.00000000000E+00 0.  1.
         22    1    4    4    0    0 -0.88020745970E+01  0.50136209575E+01  0.28582013717E+03  0.28599958693E+03  0.00000000000E+00 0.  1.
<mgrwt>
<rscale>  0 0.10408248E+03</rscale>
<asrwt>0</asrwt>
<pdfrwt beam="1">  1        1 0.22882360E+00 0.10408248E+03</pdfrwt>
<pdfrwt beam="2">  1       -1 0.28013525E-03 0.10408248E+03</pdfrwt>
<totfact> 0.78202465E+04</totfact>
</mgrwt>
</event>
<event>
 7    1  0.2787125E-009  0.9022367E+02  0.7818608E-02  0.1302311E+00
          1   -1    0    0  501    0  0.00000000000E+00  0.00000000000E+00  0.88769368372E+02  0.88769368515E+02  0.50400000000E-02 0. -1.
         -1   -1    0    0    0  501 -0.00000000000E+00 -0.00000000000E+00 -0.22925447788E+02  0.22925448342E+02  0.50400000000E-02 0.  1.
         23    2    1    2    0    0  0.00000000000E+00  0.35527136788E-14  0.65843920584E+02  0.11169481686E+03  0.90223667820E+02 0.  0.
    9000005    2    3    3    0    0 -0.40289002163E+02  0.17937506123E+02  0.43970875212E+02  0.62466898609E+02  0.48700855966E+01 0.  0.
         22    1    3    3    0    0  0.40289002163E+02 -0.17937506123E+02  0.21873045371E+02  0.49227918248E+02  0.00000000000E+00 0. -1.
         22    1    4    4    0    0 -0.28090907852E+02  0.14053136769E+02  0.28781683911E+02  0.42602524406E+02  0.00000000000E+00 0.  1.
         22    1    4    4    0    0 -0.12198094311E+02  0.38843693531E+01  0.15189191302E+02  0.19864374203E+02  0.00000000000E+00 0.  1.
<mgrwt>
<rscale>  0 0.90223668E+02</rscale>
<asrwt>0</asrwt>
<pdfrwt beam="1">  1        1 0.13656826E-01 0.90223668E+02</pdfrwt>
<pdfrwt beam="2">  1       -1 0.35269920E-02 0.90223668E+02</pdfrwt>
<totfact> 0.10541525E+05</totfact>
</mgrwt>
</event>
<event>
 7    1  0.2787125E-009  0.9160095E+02  0.7818608E-02  0.1299020E+00
         -1   -1    0    0    0  501 -0.00000000000E+00  0.00000000000E+00  0.10665489467E+03  0.10665489479E+03  0.50400000000E-02 0.  1.
          1   -1    0    0  501    0  0.00000000000E+00 -0.00000000000E+00 -0.19667951040E+02  0.19667951686E+02  0.50400000000E-02 0. -1.
         23    2    1    2    0    0  0.35527136788E-14  0.00000000000E+00  0.86986943627E+02  0.12632284647E+03  0.91600945296E+02 0.  0.
    9000005    2    3    3    0    0  0.28740361810E+02 -0.34757375017E+02  0.39097543239E+02  0.60539275691E+02  0.10114469775E+02 0.  0.
         22    1    3    3    0    0 -0.28740361810E+02  0.34757375017E+02  0.47889400388E+02  0.65783570780E+02  0.00000000000E+00 0. -1.
         22    1    4    4    0    0  0.26814962299E+02 -0.28329795138E+02  0.29873359678E+02  0.49132851679E+02  0.00000000000E+00 0. -1.
         22    1    4    4    0    0  0.19253995107E+01 -0.64275798797E+01  0.92241835602E+01  0.11406424012E+02  0.00000000000E+00 0. -1.
<mgrwt>
<rscale>  0 0.91600945E+02</rscale>
<asrwt>0</asrwt>
<pdfrwt beam="2">  1        1 0.30258387E-02 0.91600945E+02</pdfrwt>
<pdfrwt beam="1">  1       -1 0.16408445E-01 0.91600945E+02</pdfrwt>
<totfact> 0.79428822E+04</totfact>
</mgrwt>
</event>
<event>
 7    1  0.2787125E-009  0.9072942E+02  0.7818608E-02  0.1301095E+00
         -1   -1    0    0    0  501 -0.00000000000E+00  0.00000000000E+00  0.10138169276E+02  0.10138170529E+02  0.50400000000E-02 0.  1.
          1   -1    0    0  501    0  0.00000000000E+00 -0.00000000000E+00 -0.20299094412E+03  0.20299094418E+03  0.50400000000E-02 0. -1.
         23    2    1    2    0    0 -0.35527136788E-14  0.00000000000E+00 -0.19285277484E+03  0.21312911471E+03  0.90729415146E+02 0.  0.
    9000005    2    3    3    0    0 -0.31180612935E+02 -0.24483598173E+02 -0.14788941419E+03  0.15318429839E+03  0.47405950097E+01 0.  0.
         22    1    3    3    0    0  0.31180612935E+02  0.24483598173E+02 -0.44963360650E+02  0.59944816318E+02  0.00000000000E+00 0.  1.
         22    1    4    4    0    0 -0.12423237666E+02 -0.12598727442E+02 -0.68421544610E+02  0.70672289718E+02  0.00000000000E+00 0. -1.
         22    1    4    4    0    0 -0.18757375268E+02 -0.11884870731E+02 -0.79467869584E+02  0.82512008675E+02  0.00000000000E+00 0. -1.
<mgrwt>
<rscale>  0 0.90729415E+02</rscale>
<asrwt>0</asrwt>
<pdfrwt beam="2">  1        1 0.31229373E-01 0.90729415E+02</pdfrwt>
<pdfrwt beam="1">  1       -1 0.15597186E-02 0.90729415E+02</pdfrwt>
<totfact> 0.12032332E+05</totfact>
</mgrwt>
</event>
<event>
 7    1  0.2787125E-009  0.9166010E+02  0.7818608E-02  0.1298881E+00
          1   -1    0    0  501    0  0.00000000000E+00  0.00000000000E+00  0.86175194333E+03  0.86175194335E+03  0.50400000000E-02 0. -1.
         -1   -1    0    0    0  501 -0.00000000000E+00 -0.00000000000E+00 -0.24373500416E+01  0.24373552525E+01  0.50400000000E-02 0.  1.
         23    2    1    2    0    0  0.00000000000E+00  0.00000000000E+00  0.85931459329E+03  0.86418929860E+03  0.91660098035E+02 0.  0.
    9000005    2    3    3    0    0  0.32679442222E+02  0.64720394556E+01  0.72378533827E+03  0.72462564930E+03  0.10357726295E+02 0.  0.
         22    1    3    3    0    0 -0.32679442222E+02 -0.64720394556E+01  0.13552925502E+03  0.13956364930E+03  0.00000000000E+00 0.  1.
         22    1    4    4    0    0  0.27979418645E+02  0.25694699690E+01  0.53022056234E+03  0.53096449483E+03  0.00000000000E+00 0.  1.
         22    1    4    4    0    0  0.47000235767E+01  0.39025694866E+01  0.19356477593E+03  0.19366115447E+03  0.00000000000E+00 0.  1.
<mgrwt>
<rscale>  0 0.91660098E+02</rscale>
<asrwt>0</asrwt>
<pdfrwt beam="1">  1        1 0.13257700E+00 0.91660098E+02</pdfrwt>
<pdfrwt beam="2">  1       -1 0.37497796E-03 0.91660098E+02</pdfrwt>
<totfact> 0.13817573E+05</totfact>
</mgrwt>
</event>
<event>
 7    1  0.2787125E-009  0.9267136E+02  0.7818608E-02  0.1296509E+00
         -1   -1    0    0    0  501 -0.00000000000E+00  0.00000000000E+00  0.61058863539E+01  0.61058884340E+01  0.50400000000E-02 0.  1.
          1   -1    0    0  501    0  0.00000000000E+00 -0.00000000000E+00 -0.35162703297E+03  0.35162703300E+03  0.50400000000E-02 0. -1.
         23    2    1    2    0    0  0.11102230246E-15  0.00000000000E+00 -0.34552114661E+03  0.35773292144E+03  0.92671356540E+02 0.  0.
    9000005    2    3    3    0    0  0.79925088920E+00  0.44678068067E+02 -0.12813912771E+03  0.13580565698E+03  0.51741519689E+01 0.  0.
         22    1    3    3    0    0 -0.79925088920E+00 -0.44678068067E+02 -0.21738201890E+03  0.22192726446E+03  0.00000000000E+00 0. -1.
         22    1    4    4    0    0  0.10344420679E+01  0.18238680650E+02 -0.59877734112E+02  0.62602416764E+02  0.00000000000E+00 0. -1.
         22    1    4    4    0    0 -0.23519117870E+00  0.26439387417E+02 -0.68261393601E+02  0.73203240217E+02  0.00000000000E+00 0. -1.
<mgrwt>
<rscale>  0 0.92671357E+02</rscale>
<asrwt>0</asrwt>
<pdfrwt beam="2">  1        1 0.54096451E-01 0.92671357E+02</pdfrwt>
<pdfrwt beam="1">  1       -1 0.93936757E-03 0.92671357E+02</pdfrwt>
<totfact> 0.12635158E+05</totfact>
</mgrwt>
</event>
<event>
 7    1  0.2787125E-009  0.9167051E+02  0.7818608E-02  0.1298856E+00
         -1   -1    0    0    0  501 -0.00000000000E+00  0.00000000000E+00  0.11623736272E+02  0.11623737365E+02  0.50400000000E-02 0.  1.
          1   -1    0    0  501    0  0.00000000000E+00 -0.00000000000E+00 -0.18073967321E+03  0.18073967328E+03  0.50400000000E-02 0. -1.
         23    2    1    2    0    0  0.00000000000E+00  0.00000000000E+00 -0.16911593694E+03  0.19236341065E+03  0.91670505773E+02 0.  0.
    9000005    2    3    3    0    0  0.27422081638E+02 -0.33689091580E+02 -0.55357489721E+02  0.70593505636E+02  0.56626775361E+01 0.  0.
         22    1    3    3    0    0 -0.27422081638E+02  0.33689091580E+02 -0.11375844722E+03  0.12176990501E+03  0.00000000000E+00 0. -1.
         22    1    4    4    0    0  0.25457961464E+02 -0.33068028723E+02 -0.53113532345E+02  0.67547388134E+02  0.00000000000E+00 0. -1.
         22    1    4    4    0    0  0.19641201741E+01 -0.62106285702E+00 -0.22439573760E+01  0.30461175020E+01  0.00000000000E+00 0. -1.
<mgrwt>
<rscale>  0 0.91670506E+02</rscale>
<asrwt>0</asrwt>
<pdfrwt beam="2">  1        1 0.27806102E-01 0.91670506E+02</pdfrwt>
<pdfrwt beam="1">  1       -1 0.17882673E-02 0.91670506E+02</pdfrwt>
<totfact> 0.11444279E+05</totfact>
</mgrwt>
</event>
<event>
 7    1  0.2787125E-009  0.8894649E+02  0.7818608E-02  0.1305423E+00
         -1   -1    0    0    0  501 -0.00000000000E+00  0.00000000000E+00  0.23767035740E+02  0.23767036274E+02  0.50400000000E-02 0.  1.
          1   -1    0    0  501    0  0.00000000000E+00 -0.00000000000E+00 -0.83219029817E+02  0.83219029970E+02  0.50400000000E-02 0. -1.
         23    2    1    2    0    0  0.00000000000E+00  0.00000000000E+00 -0.59451994077E+02  0.10698606624E+03  0.88946493864E+02 0.  0.
    9000005    2    3    3    0    0 -0.42149762512E+02  0.85977247544E+01 -0.32309707309E+02  0.56121274081E+02  0.15973630375E+02 0.  0.
         22    1    3    3    0    0  0.42149762512E+02 -0.85977247544E+01 -0.27142286768E+02  0.50864792163E+02  0.00000000000E+00 0. -1.
         22    1    4    4    0    0 -0.11984860805E+02  0.88449216897E+01 -0.58760588658E+01  0.16012420055E+02  0.00000000000E+00 0.  1.
         22    1    4    4    0    0 -0.30164901706E+02 -0.24719693529E+00 -0.26433648444E+02  0.40108854026E+02  0.00000000000E+00 0.  1.
<mgrwt>
<rscale>  0 0.88946494E+02</rscale>
<asrwt>0</asrwt>
<pdfrwt beam="2">  1        1 0.12802928E-01 0.88946494E+02</pdfrwt>
<pdfrwt beam="1">  1       -1 0.36564671E-02 0.88946494E+02</pdfrwt>
<totfact> 0.10847901E+05</totfact>
</mgrwt>
</event>
<event>
 7    1  0.2787125E-009  0.8621081E+02  0.7818608E-02  0.1312296E+00
          1   -1    0    0  501    0  0.00000000000E+00  0.00000000000E+00  0.48382628214E+01  0.48382654465E+01  0.50400000000E-02 0. -1.
         -1   -1    0    0    0  501 -0.00000000000E+00 -0.00000000000E+00 -0.38403769030E+03  0.38403769033E+03  0.50400000000E-02 0.  1.
         23    2    1    2    0    0 -0.17763568394E-14  0.00000000000E+00 -0.37919942748E+03  0.38887595578E+03  0.86210806651E+02 0.  0.
    9000005    2    3    3    0    0 -0.13461986444E+02  0.39253783527E+02 -0.22164648861E+03  0.22594955170E+03  0.14281085391E+02 0.  0.
         22    1    3    3    0    0  0.13461986444E+02 -0.39253783527E+02 -0.15755293887E+03  0.16292640408E+03  0.00000000000E+00 0. -1.
         22    1    4    4    0    0 -0.13194983500E+02  0.39682288646E+02 -0.22151505593E+03  0.22542784128E+03  0.00000000000E+00 0.  1.
         22    1    4    4    0    0 -0.26700294489E+00 -0.42850511839E+00 -0.13143267890E+00  0.52171041598E+00  0.00000000000E+00 0.  1.
<mgrwt>
<rscale>  0 0.86210807E+02</rscale>
<asrwt>0</asrwt>
<pdfrwt beam="1">  1        1 0.74434863E-03 0.86210807E+02</pdfrwt>
<pdfrwt beam="2">  1       -1 0.59082698E-01 0.86210807E+02</pdfrwt>
<totfact> 0.62946656E+04</totfact>
</mgrwt>
</event>
<event>
 7    1  0.2787125E-009  0.9262884E+02  0.7818608E-02  0.1296608E+00
          1   -1    0    0  501    0  0.00000000000E+00  0.00000000000E+00  0.28966002322E+03  0.28966002326E+03  0.50400000000E-02 0. -1.
         -1   -1    0    0    0  501 -0.00000000000E+00 -0.00000000000E+00 -0.74053206367E+01  0.74053223517E+01  0.50400000000E-02 0.  1.
         23    2    1    2    0    0 -0.71054273576E-14  0.17763568394E-14  0.28225470258E+03  0.29706534561E+03  0.92628842350E+02 0.  0.
    9000005    2    3    3    0    0 -0.42442222428E+02  0.15306017032E+02  0.16777191254E+03  0.17401281367E+03  0.98705765792E+01 0.  0.
         22    1    3    3    0    0  0.42442222428E+02 -0.15306017032E+02  0.11448279004E+03  0.12305253194E+03  0.00000000000E+00 0. -1.
         22    1    4    4    0    0 -0.21330988899E+02  0.10989019136E+02  0.10270077573E+03  0.10546667229E+03  0.00000000000E+00 0. -1.
         22    1    4    4    0    0 -0.21111233529E+02  0.43169978962E+01  0.65071136810E+02  0.68546141378E+02  0.00000000000E+00 0. -1.
<mgrwt>
<rscale>  0 0.92628842E+02</rscale>
<asrwt>0</asrwt>
<pdfrwt beam="1">  1        1 0.44563077E-01 0.92628842E+02</pdfrwt>
<pdfrwt beam="2">  1       -1 0.11392803E-02 0.92628842E+02</pdfrwt>
<totfact> 0.12200770E+05</totfact>
</mgrwt>
</event>
<event>
 7    1  0.2787125E-009  0.7812371E+02  0.7818608E-02  0.1334462E+00
          1   -1    0    0  501    0  0.00000000000E+00  0.00000000000E+00  0.34491494909E+03  0.34491494913E+03  0.50400000000E-02 0. -1.
         -1   -1    0    0    0  501 -0.00000000000E+00 -0.00000000000E+00 -0.44237803538E+01  0.44237832248E+01  0.50400000000E-02 0.  1.
         23    2    1    2    0    0  0.00000000000E+00  0.00000000000E+00  0.34049116873E+03  0.34933873235E+03  0.78123709165E+02 0.  0.
    9000005    2    3    3    0    0  0.18438618880E+02  0.33904161550E+02  0.16894283903E+03  0.17350271709E+03  0.84873519423E+01 0.  0.
         22    1    3    3    0    0 -0.18438618880E+02 -0.33904161550E+02  0.17154832971E+03  0.17583601526E+03  0.00000000000E+00 0.  1.
         22    1    4    4    0    0  0.13915182405E+02  0.30792864034E+02  0.13801930280E+03  0.14209560416E+03  0.00000000000E+00 0. -1.
         22    1    4    4    0    0  0.45234364745E+01  0.31112975156E+01  0.30923536224E+02  0.31407112926E+02  0.00000000000E+00 0. -1.
<mgrwt>
<rscale>  0 0.78123709E+02</rscale>
<asrwt>0</asrwt>
<pdfrwt beam="1">  1        1 0.53063836E-01 0.78123709E+02</pdfrwt>
<pdfrwt beam="2">  1       -1 0.68058184E-03 0.78123709E+02</pdfrwt>
<totfact> 0.19765554E+05</totfact>
</mgrwt>
</event>
<event>
 7    1  0.2787125E-009  0.9301142E+02  0.7818608E-02  0.1295719E+00
         -1   -1    0    0    0  501 -0.00000000000E+00  0.00000000000E+00  0.14280762637E+02  0.14280763526E+02  0.50400000000E-02 0.  1.
          1   -1    0    0  501    0  0.00000000000E+00 -0.00000000000E+00 -0.15144714949E+03  0.15144714957E+03  0.50400000000E-02 0. -1.
         23    2    1    2    0    0  0.00000000000E+00  0.00000000000E+00 -0.13716638685E+03  0.16572791310E+03  0.93011415957E+02 0.  0.
    9000005    2    3    3    0    0 -0.12943807628E+02  0.23402629053E+02 -0.19764593019E+01  0.27918110424E+02  0.77646181975E+01 0.  0.
         22    1    3    3    0    0  0.12943807628E+02 -0.23402629053E+02 -0.13518992755E+03  0.13780980268E+03  0.00000000000E+00 0. -1.
         22    1    4    4    0    0 -0.13057921562E+02  0.19127337602E+02 -0.34061078389E+01  0.23408672108E+02  0.00000000000E+00 0.  1.
         22    1    4    4    0    0  0.11411393409E+00  0.42752914509E+01  0.14296485370E+01  0.45094383153E+01  0.00000000000E+00 0.  1.
<mgrwt>
<rscale>  0 0.93011416E+02</rscale>
<asrwt>0</asrwt>
<pdfrwt beam="2">  1        1 0.23299561E-01 0.93011416E+02</pdfrwt>
<pdfrwt beam="1">  1       -1 0.21970406E-02 0.93011416E+02</pdfrwt>
<totfact> 0.10644315E+05</totfact>
</mgrwt>
</event>
<event>
 7    1  0.2787125E-009  0.9219996E+02  0.7818608E-02  0.1297610E+00
          1   -1    0    0  501    0  0.00000000000E+00  0.00000000000E+00  0.23573987101E+02  0.23573987640E+02  0.50400000000E-02 0. -1.
         -1   -1    0    0    0  501 -0.00000000000E+00 -0.00000000000E+00 -0.90150558011E+02  0.90150558152E+02  0.50400000000E-02 0.  1.
         23    2    1    2    0    0  0.00000000000E+00  0.00000000000E+00 -0.66576570910E+02  0.11372454579E+03  0.92199959443E+02 0.  0.
    9000005    2    3    3    0    0 -0.26794475366E+02 -0.21687377859E+02  0.43996735503E+01  0.34820087450E+02  0.21897703396E+01 0.  0.
         22    1    3    3    0    0  0.26794475366E+02  0.21687377859E+02 -0.70976244461E+02  0.78904458342E+02  0.00000000000E+00 0.  1.
         22    1    4    4    0    0 -0.12196752087E+02 -0.88777459276E+01  0.26934167294E+01  0.15324151784E+02  0.00000000000E+00 0.  1.
         22    1    4    4    0    0 -0.14597723279E+02 -0.12809631931E+02  0.17062568210E+01  0.19495935665E+02  0.00000000000E+00 0.  1.
<mgrwt>
<rscale>  0 0.92199959E+02</rscale>
<asrwt>0</asrwt>
<pdfrwt beam="1">  1        1 0.36267673E-02 0.92199959E+02</pdfrwt>
<pdfrwt beam="2">  1       -1 0.13869316E-01 0.92199959E+02</pdfrwt>
<totfact> 0.80572055E+04</totfact>
</mgrwt>
</event>
<event>
 7    1  0.2787125E-009  0.8565494E+02  0.7818608E-02  0.1313729E+00
          1   -1    0    0  501    0  0.00000000000E+00  0.00000000000E+00  0.35183576097E+01  0.35183612195E+01  0.50400000000E-02 0. -1.
         -1   -1    0    0    0  501 -0.00000000000E+00 -0.00000000000E+00 -0.52132027913E+03  0.52132027915E+03  0.50400000000E-02 0.  1.
         23    2    1    2    0    0  0.00000000000E+00  0.00000000000E+00 -0.51780192152E+03  0.52483864037E+03  0.85654938558E+02 0.  0.
    9000005    2    3    3    0    0  0.27703182431E+02  0.16113866198E+02 -0.42945336157E+03  0.43085677486E+03  0.13425635033E+02 0.  0.
         22    1    3    3    0    0 -0.27703182431E+02 -0.16113866198E+02 -0.88348559946E+02  0.93981865512E+02  0.00000000000E+00 0. -1.
         22    1    4    4    0    0  0.82066337756E+01  0.53971227521E+00 -0.59909068386E+02  0.60470956683E+02  0.00000000000E+00 0.  1.
         22    1    4    4    0    0  0.19496548655E+02  0.15574153922E+02 -0.36954429318E+03  0.37038581818E+03  0.00000000000E+00 0.  1.
<mgrwt>
<rscale>  0 0.85654939E+02</rscale>
<asrwt>0</asrwt>
<pdfrwt beam="1">  1        1 0.54128648E-03 0.85654939E+02</pdfrwt>
<pdfrwt beam="2">  1       -1 0.80203059E-01 0.85654939E+02</pdfrwt>
<totfact> 0.53959983E+04</totfact>
</mgrwt>
</event>
<event>
 7    1  0.2787125E-009  0.9132437E+02  0.7818608E-02  0.1299676E+00
         -1   -1    0    0    0  501 -0.00000000000E+00  0.00000000000E+00  0.72846769499E+02  0.72846769673E+02  0.50400000000E-02 0.  1.
          1   -1    0    0  501    0  0.00000000000E+00 -0.00000000000E+00 -0.28622201279E+02  0.28622201723E+02  0.50400000000E-02 0. -1.
         23    2    1    2    0    0  0.35527136788E-14  0.00000000000E+00  0.44224568220E+02  0.10146897140E+03  0.91324365434E+02 0.  0.
    9000005    2    3    3    0    0  0.19909897463E+02  0.31030172965E+02  0.50108803796E+02  0.64134002807E+02  0.15588535753E+02 0.  0.
         22    1    3    3    0    0 -0.19909897463E+02 -0.31030172965E+02 -0.58842355761E+01  0.37334968589E+02  0.00000000000E+00 0. -1.
         22    1    4    4    0    0  0.17737171289E+02  0.13648335939E+02  0.30660648806E+02  0.37959975032E+02  0.00000000000E+00 0.  1.
         22    1    4    4    0    0  0.21727261736E+01  0.17381837026E+02  0.19448154990E+02  0.26174027775E+02  0.00000000000E+00 0.  1.
<mgrwt>
<rscale>  0 0.91324365E+02</rscale>
<asrwt>0</asrwt>
<pdfrwt beam="2">  1        1 0.44034157E-02 0.91324365E+02</pdfrwt>
<pdfrwt beam="1">  1       -1 0.11207195E-01 0.91324365E+02</pdfrwt>
<totfact> 0.85625282E+04</totfact>
</mgrwt>
</event>
<event>
 7    1  0.2787125E-009  0.7515278E+02  0.7818608E-02  0.1343399E+00
         -1   -1    0    0    0  501 -0.00000000000E+00  0.00000000000E+00  0.39801897441E+02  0.39801897760E+02  0.50400000000E-02 0.  1.
          1   -1    0    0  501    0  0.00000000000E+00 -0.00000000000E+00 -0.35475322770E+02  0.35475323128E+02  0.50400000000E-02 0. -1.
         23    2    1    2    0    0  0.00000000000E+00  0.00000000000E+00  0.43265746705E+01  0.75277220889E+02  0.75152782625E+02 0.  0.
    9000005    2    3    3    0    0 -0.28542101306E+01 -0.19644174120E+02  0.32754110453E+02  0.40604971423E+02  0.13486729046E+02 0.  0.
         22    1    3    3    0    0  0.28542101306E+01  0.19644174120E+02 -0.28427535783E+02  0.34672249465E+02  0.00000000000E+00 0. -1.
         22    1    4    4    0    0  0.26931550879E+01 -0.76446248456E+01  0.22374404629E+02  0.23797213195E+02  0.00000000000E+00 0.  1.
         22    1    4    4    0    0 -0.55473652185E+01 -0.11999549274E+02  0.10379705825E+02  0.16807758228E+02  0.00000000000E+00 0.  1.
<mgrwt>
<rscale>  0 0.75152783E+02</rscale>
<asrwt>0</asrwt>
<pdfrwt beam="2">  1        1 0.54577420E-02 0.75152783E+02</pdfrwt>
<pdfrwt beam="1">  1       -1 0.61233689E-02 0.75152783E+02</pdfrwt>
<totfact> 0.15275249E+05</totfact>
</mgrwt>
</event>
<event>
 7    1  0.2787125E-009  0.9231093E+02  0.7818608E-02  0.1297350E+00
         -1   -1    0    0    0  501 -0.00000000000E+00  0.00000000000E+00  0.26040912494E+02  0.26040912982E+02  0.50400000000E-02 0.  1.
          1   -1    0    0  501    0  0.00000000000E+00 -0.00000000000E+00 -0.81806930945E+02  0.81806931100E+02  0.50400000000E-02 0. -1.
         23    2    1    2    0    0  0.00000000000E+00  0.00000000000E+00 -0.55766018450E+02  0.10784784408E+03  0.92310934668E+02 0.  0.
    9000005    2    3    3    0    0  0.43948625886E+02  0.15562619618E+01 -0.16993741319E+02  0.49220264031E+02  0.14140137154E+02 0.  0.
         22    1    3    3    0    0 -0.43948625886E+02 -0.15562619618E+01 -0.38772277132E+02  0.58627580050E+02  0.00000000000E+00 0. -1.
         22    1    4    4    0    0  0.25046184299E+02  0.22053479150E+01 -0.16920741325E+02  0.30306540455E+02  0.00000000000E+00 0. -1.
         22    1    4    4    0    0  0.18902441587E+02 -0.64908595324E+00 -0.72999994201E-01  0.18913723576E+02  0.00000000000E+00 0. -1.
<mgrwt>
<rscale>  0 0.92310935E+02</rscale>
<asrwt>0</asrwt>
<pdfrwt beam="2">  1        1 0.12585682E-01 0.92310935E+02</pdfrwt>
<pdfrwt beam="1">  1       -1 0.40062943E-02 0.92310935E+02</pdfrwt>
<totfact> 0.97724407E+04</totfact>
</mgrwt>
</event>
<event>
 7    1  0.2787125E-009  0.9166338E+02  0.7818608E-02  0.1298873E+00
          1   -1    0    0  501    0  0.00000000000E+00  0.00000000000E+00  0.55487116192E+03  0.55487116194E+03  0.50400000000E-02 0. -1.
         -1   -1    0    0    0  501 -0.00000000000E+00 -0.00000000000E+00 -0.37856408564E+01  0.37856442114E+01  0.50400000000E-02 0.  1.
         23    2    1    2    0    0  0.00000000000E+00 -0.35527136788E-14  0.55108552106E+03  0.55865680615E+03  0.91663381655E+02 0.  0.
    9000005    2    3    3    0    0  0.28458378257E+01  0.28116313034E+02  0.49363251274E+03  0.49462967114E+03  0.13668507428E+02 0.  0.
         22    1    3    3    0    0 -0.28458378257E+01 -0.28116313034E+02  0.57453008325E+02  0.64027135006E+02  0.00000000000E+00 0.  1.
         22    1    4    4    0    0  0.10298578318E+01  0.29133391397E+02  0.44598946767E+03  0.44694118223E+03  0.00000000000E+00 0. -1.
         22    1    4    4    0    0  0.18159799939E+01 -0.10170783630E+01  0.47643045065E+02  0.47688488913E+02  0.00000000000E+00 0. -1.
<mgrwt>
<rscale>  0 0.91663382E+02</rscale>
<asrwt>0</asrwt>
<pdfrwt beam="1">  1        1 0.85364769E-01 0.91663382E+02</pdfrwt>
<pdfrwt beam="2">  1       -1 0.58240672E-03 0.91663382E+02</pdfrwt>
<totfact> 0.13879980E+05</totfact>
</mgrwt>
</event>
<event>
 7    1  0.2787125E-009  0.9060103E+02  0.7818608E-02  0.1301403E+00
         -1   -1    0    0    0  501 -0.00000000000E+00  0.00000000000E+00  0.92568260187E+01  0.92568273907E+01  0.50400000000E-02 0.  1.
          1   -1    0    0  501    0  0.00000000000E+00 -0.00000000000E+00 -0.22168901941E+03  0.22168901946E+03  0.50400000000E-02 0. -1.
         23    2    1    2    0    0  0.00000000000E+00  0.17763568394E-14 -0.21243219339E+03  0.23094584685E+03  0.90601034165E+02 0.  0.
    9000005    2    3    3    0    0 -0.42118234845E+02 -0.15076101776E+02 -0.10823940168E+03  0.11755549279E+03  0.10113914059E+02 0.  0.
         22    1    3    3    0    0  0.42118234845E+02  0.15076101776E+02 -0.10419279171E+03  0.11339035407E+03  0.00000000000E+00 0. -1.
         22    1    4    4    0    0 -0.14642705864E+02 -0.36009257329E+01 -0.25540999846E+02  0.29660043396E+02  0.00000000000E+00 0.  1.
         22    1    4    4    0    0 -0.27475528981E+02 -0.11475176043E+02 -0.82698401831E+02  0.87895449390E+02  0.00000000000E+00 0.  1.
<mgrwt>
<rscale>  0 0.90601034E+02</rscale>
<asrwt>0</asrwt>
<pdfrwt beam="2">  1        1 0.34105999E-01 0.90601034E+02</pdfrwt>
<pdfrwt beam="1">  1       -1 0.14241274E-02 0.90601034E+02</pdfrwt>
<totfact> 0.12286825E+05</totfact>
</mgrwt>
</event>
<event>
 7    1  0.2787125E-009  0.8890554E+02  0.7818608E-02  0.1305524E+00
         -1   -1    0    0    0  501 -0.00000000000E+00  0.00000000000E+00  0.40476450926E+01  0.40476482304E+01  0.50400000000E-02 0.  1.
          1   -1    0    0  501    0  0.00000000000E+00 -0.00000000000E+00 -0.48819691095E+03  0.48819691098E+03  0.50400000000E-02 0. -1.
         23    2    1    2    0    0  0.00000000000E+00  0.00000000000E+00 -0.48414926586E+03  0.49224455921E+03  0.88905536600E+02 0.  0.
    9000005    2    3    3    0    0 -0.36296480373E+02  0.12558240862E+02 -0.35855499794E+03  0.36090886705E+03  0.14777681313E+02 0.  0.
         22    1    3    3    0    0  0.36296480373E+02 -0.12558240862E+02 -0.12559426791E+03  0.13133569216E+03  0.00000000000E+00 0.  1.
         22    1    4    4    0    0 -0.27210279266E+02  0.52244612248E+01 -0.19791373744E+03  0.19984379340E+03  0.00000000000E+00 0. -1.
         22    1    4    4    0    0 -0.90862011067E+01  0.73337796375E+01 -0.16064126050E+03  0.16106507365E+03  0.00000000000E+00 0. -1.
<mgrwt>
<rscale>  0 0.88905537E+02</rscale>
<asrwt>0</asrwt>
<pdfrwt beam="2">  1        1 0.75107171E-01 0.88905537E+02</pdfrwt>
<pdfrwt beam="1">  1       -1 0.62271526E-03 0.88905537E+02</pdfrwt>
<totfact> 0.14844891E+05</totfact>
</mgrwt>
</event>
<event>
 7    1  0.2787125E-009  0.9149444E+02  0.7818608E-02  0.1299273E+00
          1   -1    0    0  501    0  0.00000000000E+00  0.00000000000E+00  0.13744061074E+02  0.13744061998E+02  0.50400000000E-02 0. -1.
         -1   -1    0    0    0  501 -0.00000000000E+00 -0.00000000000E+00 -0.15226997848E+03  0.15226997856E+03  0.50400000000E-02 0.  1.
         23    2    1    2    0    0  0.00000000000E+00  0.35527136788E-14 -0.13852591740E+03  0.16601404056E+03  0.91494436282E+02 0.  0.
    9000005    2    3    3    0    0  0.83770251293E+01 -0.22288863605E+02 -0.14006369907E+03  0.14215334562E+03  0.47713604745E+01 0.  0.
         22    1    3    3    0    0 -0.83770251293E+01  0.22288863605E+02  0.15377816686E+01  0.23860694945E+02  0.00000000000E+00 0. -1.
         22    1    4    4    0    0  0.56991305854E+01 -0.19831720917E+02 -0.11720061394E+03  0.11900319807E+03  0.00000000000E+00 0.  1.
         22    1    4    4    0    0  0.26778945440E+01 -0.24571426884E+01 -0.22863085134E+02  0.23150147542E+02  0.00000000000E+00 0.  1.
<mgrwt>
<rscale>  0 0.91494436E+02</rscale>
<asrwt>0</asrwt>
<pdfrwt beam="1">  1        1 0.21144711E-02 0.91494436E+02</pdfrwt>
<pdfrwt beam="2">  1       -1 0.23426149E-01 0.91494436E+02</pdfrwt>
<totfact> 0.73854265E+04</totfact>
</mgrwt>
</event>
<event>
 7    1  0.2787125E-009  0.9388571E+02  0.7818608E-02  0.1293706E+00
          1   -1    0    0  501    0  0.00000000000E+00  0.00000000000E+00  0.11674616320E+03  0.11674616331E+03  0.50400000000E-02 0. -1.
         -1   -1    0    0    0  501 -0.00000000000E+00 -0.00000000000E+00 -0.18875410867E+02  0.18875411540E+02  0.50400000000E-02 0.  1.
         23    2    1    2    0    0  0.00000000000E+00 -0.35527136788E-14  0.97870752336E+02  0.13562157485E+03  0.93885714580E+02 0.  0.
    9000005    2    3    3    0    0  0.28475748785E+02  0.30922833686E+02  0.77316010891E+02  0.88828548577E+02  0.12068785778E+02 0.  0.
         22    1    3    3    0    0 -0.28475748785E+02 -0.30922833686E+02  0.20554741445E+02  0.46793026274E+02  0.00000000000E+00 0.  1.
         22    1    4    4    0    0  0.22419648311E+02  0.17276149181E+02  0.56726199833E+02  0.63395328758E+02  0.00000000000E+00 0.  1.
         22    1    4    4    0    0  0.60561004737E+01  0.13646684505E+02  0.20589811058E+02  0.25433219818E+02  0.00000000000E+00 0.  1.
<mgrwt>
<rscale>  0 0.93885715E+02</rscale>
<asrwt>0</asrwt>
<pdfrwt beam="1">  1        1 0.17960948E-01 0.93885715E+02</pdfrwt>
<pdfrwt beam="2">  1       -1 0.29039094E-02 0.93885715E+02</pdfrwt>
<totfact> 0.99015595E+04</totfact>
</mgrwt>
</event>
<event>
 7    1  0.2787125E-009  0.9090673E+02  0.7818608E-02  0.1300671E+00
          1   -1    0    0  501    0  0.00000000000E+00  0.00000000000E+00  0.65390642810E+03  0.65390642812E+03  0.50400000000E-02 0. -1.
         -1   -1    0    0    0  501 -0.00000000000E+00 -0.00000000000E+00 -0.31594845618E+01  0.31594885817E+01  0.50400000000E-02 0.  1.
         23    2    1    2    0    0  0.17763568394E-14  0.00000000000E+00  0.65074694353E+03  0.65706591670E+03  0.90906734437E+02 0.  0.
    9000005    2    3    3    0    0 -0.15715592826E+02  0.33184456908E+02  0.51708741995E+03  0.51845474729E+03  0.82302542309E+01 0.  0.
         22    1    3    3    0    0  0.15715592826E+02 -0.33184456908E+02  0.13365952359E+03  0.13861116940E+03  0.00000000000E+00 0.  1.
         22    1    4    4    0    0 -0.14304867251E+02  0.33198029895E+02  0.50282484046E+03  0.50412256308E+03  0.00000000000E+00 0. -1.
         22    1    4    4    0    0 -0.14107255747E+01 -0.13572987549E-01  0.14262579484E+02  0.14332184217E+02  0.00000000000E+00 0. -1.
<mgrwt>
<rscale>  0 0.90906734E+02</rscale>
<asrwt>0</asrwt>
<pdfrwt beam="1">  1        1 0.10060101E+00 0.90906734E+02</pdfrwt>
<pdfrwt beam="2">  1       -1 0.48607474E-03 0.90906734E+02</pdfrwt>
<totfact> 0.14322294E+05</totfact>
</mgrwt>
</event>
<event>
 7    1  0.2787125E-009  0.9262884E+02  0.7818608E-02  0.1296608E+00
          1   -1    0    0  501    0  0.00000000000E+00  0.00000000000E+00  0.93263208155E+01  0.93263221773E+01  0.50400000000E-02 0. -1.
         -1   -1    0    0    0  501 -0.00000000000E+00 -0.00000000000E+00 -0.22999696039E+03  0.22999696045E+03  0.50400000000E-02 0.  1.
         23    2    1    2    0    0  0.00000000000E+00  0.00000000000E+00 -0.22067063958E+03  0.23932328263E+03  0.92628842350E+02 0.  0.
    9000005    2    3    3    0    0 -0.18055566588E+02 -0.41190779333E+02 -0.13883886535E+03  0.14594703800E+03  0.12741989456E+01 0.  0.
         22    1    3    3    0    0  0.18055566588E+02  0.41190779333E+02 -0.81831774230E+02  0.93376244626E+02  0.00000000000E+00 0. -1.
         22    1    4    4    0    0 -0.14538612528E+02 -0.32424549562E+02 -0.10828453370E+03  0.11396606033E+03  0.00000000000E+00 0.  1.
         22    1    4    4    0    0 -0.35169540596E+01 -0.87662297706E+01 -0.30554331654E+02  0.31980977675E+02  0.00000000000E+00 0.  1.
<mgrwt>
<rscale>  0 0.92628842E+02</rscale>
<asrwt>0</asrwt>
<pdfrwt beam="1">  1        1 0.14348189E-02 0.92628842E+02</pdfrwt>
<pdfrwt beam="2">  1       -1 0.35384144E-01 0.92628842E+02</pdfrwt>
<totfact> 0.63869693E+04</totfact>
</mgrwt>
</event>
<event>
 7    1  0.2787125E-009  0.9202093E+02  0.7818608E-02  0.1298030E+00
          1   -1    0    0  501    0  0.00000000000E+00  0.00000000000E+00  0.35304701344E+02  0.35304701704E+02  0.50400000000E-02 0. -1.
         -1   -1    0    0    0  501 -0.00000000000E+00 -0.00000000000E+00 -0.59962627936E+02  0.59962628148E+02  0.50400000000E-02 0.  1.
         23    2    1    2    0    0  0.00000000000E+00  0.71054273576E-14 -0.24657926592E+02  0.95267329852E+02  0.92020925844E+02 0.  0.
    9000005    2    3    3    0    0 -0.13590258415E+02  0.43424695480E+02 -0.16023620584E+02  0.48953719092E+02  0.83253165071E+01 0.  0.
         22    1    3    3    0    0  0.13590258415E+02 -0.43424695480E+02 -0.86343060082E+01  0.46313610760E+02  0.00000000000E+00 0. -1.
         22    1    4    4    0    0 -0.11851462247E+02  0.35894958929E+02 -0.98513705471E+01  0.39063470603E+02  0.00000000000E+00 0. -1.
         22    1    4    4    0    0 -0.17387961682E+01  0.75297365515E+01 -0.61722500372E+01  0.98902484888E+01  0.00000000000E+00 0. -1.
<mgrwt>
<rscale>  0 0.92020926E+02</rscale>
<asrwt>0</asrwt>
<pdfrwt beam="1">  1        1 0.54314926E-02 0.92020926E+02</pdfrwt>
<pdfrwt beam="2">  1       -1 0.92250197E-02 0.92020926E+02</pdfrwt>
<totfact> 0.86638895E+04</totfact>
</mgrwt>
</event>
<event>
 7    1  0.2787125E-009  0.9040605E+02  0.7818608E-02  0.1301871E+00
          1   -1    0    0  501    0  0.00000000000E+00  0.00000000000E+00  0.66015357830E+01  0.66015377069E+01  0.50400000000E-02 0. -1.
         -1   -1    0    0    0  501 -0.00000000000E+00 -0.00000000000E+00 -0.30952090496E+03  0.30952090500E+03  0.50400000000E-02 0.  1.
         23    2    1    2    0    0 -0.35527136788E-14  0.00000000000E+00 -0.30291936918E+03  0.31612244271E+03  0.90406053786E+02 0.  0.
    9000005    2    3    3    0    0  0.29288544017E+02  0.26808186752E+02 -0.90820830736E+02  0.10033947837E+03  0.15591341744E+02 0.  0.
         22    1    3    3    0    0 -0.29288544017E+02 -0.26808186752E+02 -0.21209853845E+03  0.21578296434E+03  0.00000000000E+00 0.  1.
         22    1    4    4    0    0  0.24033124401E+02  0.22549667469E+02 -0.56934424951E+02  0.65784552259E+02  0.00000000000E+00 0. -1.
         22    1    4    4    0    0  0.52554196158E+01  0.42585192833E+01 -0.33886405785E+02  0.34554926115E+02  0.00000000000E+00 0. -1.
<mgrwt>
<rscale>  0 0.90406054E+02</rscale>
<asrwt>0</asrwt>
<pdfrwt beam="1">  1        1 0.10156213E-02 0.90406054E+02</pdfrwt>
<pdfrwt beam="2">  1       -1 0.47618590E-01 0.90406054E+02</pdfrwt>
<totfact> 0.61178841E+04</totfact>
</mgrwt>
</event>
<event>
 7    1  0.2787125E-009  0.9120631E+02  0.7818608E-02  0.1299956E+00
         -1   -1    0    0    0  501 -0.00000000000E+00  0.00000000000E+00  0.84604138977E+01  0.84604153989E+01  0.50400000000E-02 0.  1.
          1   -1    0    0  501    0  0.00000000000E+00 -0.00000000000E+00 -0.24580917460E+03  0.24580917465E+03  0.50400000000E-02 0. -1.
         23    2    1    2    0    0  0.00000000000E+00  0.00000000000E+00 -0.23734876070E+03  0.25426959005E+03  0.91206305799E+02 0.  0.
    9000005    2    3    3    0    0  0.20305072402E+02 -0.32814683945E+02 -0.58585118980E+02  0.71388374368E+02  0.13228166212E+02 0.  0.
         22    1    3    3    0    0 -0.20305072402E+02  0.32814683945E+02 -0.17876364172E+03  0.18288121568E+03  0.00000000000E+00 0. -1.
         22    1    4    4    0    0  0.19571456500E+02 -0.20163006805E+02 -0.41415301461E+02  0.50048136310E+02  0.00000000000E+00 0. -1.
         22    1    4    4    0    0  0.73361590198E+00 -0.12651677140E+02 -0.17169817518E+02  0.21340238058E+02  0.00000000000E+00 0. -1.
<mgrwt>
<rscale>  0 0.91206306E+02</rscale>
<asrwt>0</asrwt>
<pdfrwt beam="2">  1        1 0.37816791E-01 0.91206306E+02</pdfrwt>
<pdfrwt beam="1">  1       -1 0.13016024E-02 0.91206306E+02</pdfrwt>
<totfact> 0.12315689E+05</totfact>
</mgrwt>
</event>
<event>
 7    1  0.3074173E-009  0.8776835E+02  0.7818608E-02  0.1308348E+00
         -1   -1    0    0    0  501 -0.00000000000E+00  0.00000000000E+00  0.80098633979E+01  0.80098649836E+01  0.50400000000E-02 0.  1.
          1   -1    0    0  501    0  0.00000000000E+00 -0.00000000000E+00 -0.24043113044E+03  0.24043113049E+03  0.50400000000E-02 0. -1.
         23    2    1    2    0    0  0.35527136788E-14  0.00000000000E+00 -0.23242126704E+03  0.24844099547E+03  0.87768347710E+02 0.  0.
    9000005    2    3    3    0    0 -0.30305256310E+02  0.34817501394E+01 -0.20355606324E+03  0.20644419637E+03  0.15924955002E+02 0.  0.
         22    1    3    3    0    0  0.30305256310E+02 -0.34817501394E+01 -0.28865203801E+02  0.41996799099E+02  0.00000000000E+00 0.  1.
         22    1    4    4    0    0 -0.11055160388E+02  0.85627049255E+01 -0.10209931719E+03  0.10305244810E+03  0.00000000000E+00 0.  1.
         22    1    4    4    0    0 -0.19250095922E+02 -0.50809547861E+01 -0.10145674604E+03  0.10339174828E+03  0.00000000000E+00 0.  1.
<mgrwt>
<rscale>  0 0.87768348E+02</rscale>
<asrwt>0</asrwt>
<pdfrwt beam="2">  1        1 0.36989399E-01 0.87768348E+02</pdfrwt>
<pdfrwt beam="1">  1       -1 0.12322870E-02 0.87768348E+02</pdfrwt>
<totfact> 0.13585505E+05</totfact>
</mgrwt>
</event>
<event>
 7    1  0.2787125E-009  0.9223049E+02  0.7818608E-02  0.1297538E+00
          1   -1    0    0  501    0  0.00000000000E+00  0.00000000000E+00  0.77865032430E+03  0.77865032432E+03  0.50400000000E-02 0. -1.
         -1   -1    0    0    0  501 -0.00000000000E+00 -0.00000000000E+00 -0.27311537928E+01  0.27311584432E+01  0.50400000000E-02 0.  1.
         23    2    1    2    0    0 -0.71054273576E-14  0.00000000000E+00  0.77591917051E+03  0.78138148276E+03  0.92230485409E+02 0.  0.
    9000005    2    3    3    0    0 -0.38344406446E+02 -0.10657262974E+02  0.58100947904E+03  0.58245019163E+03  0.96093831183E+01 0.  0.
         22    1    3    3    0    0  0.38344406446E+02  0.10657262974E+02  0.19490969147E+03  0.19893129113E+03  0.00000000000E+00 0.  1.
         22    1    4    4    0    0 -0.10575946833E+02 -0.47674868390E+00  0.20842074338E+03  0.20868944442E+03  0.00000000000E+00 0.  1.
         22    1    4    4    0    0 -0.27768459613E+02 -0.10180514290E+02  0.37258873565E+03  0.37376074721E+03  0.00000000000E+00 0.  1.
<mgrwt>
<rscale>  0 0.92230485E+02</rscale>
<asrwt>0</asrwt>
<pdfrwt beam="1">  1        1 0.11979238E+00 0.92230485E+02</pdfrwt>
<pdfrwt beam="2">  1       -1 0.42017778E-03 0.92230485E+02</pdfrwt>
<totfact> 0.13735982E+05</totfact>
</mgrwt>
</event>
<event>
 7    1  0.2787125E-009  0.9556998E+02  0.7818608E-02  0.1289897E+00
         -1   -1    0    0    0  501 -0.00000000000E+00  0.00000000000E+00  0.28586107469E+03  0.28586107473E+03  0.50400000000E-02 0.  1.
          1   -1    0    0  501    0  0.00000000000E+00 -0.00000000000E+00 -0.79878141580E+01  0.79878157480E+01  0.50400000000E-02 0. -1.
         23    2    1    2    0    0  0.17763568394E-14  0.00000000000E+00  0.27787326053E+03  0.29384889048E+03  0.95569982312E+02 0.  0.
    9000005    2    3    3    0    0 -0.14307421110E+02 -0.43687041846E+02  0.99079742994E+02  0.10924016415E+03  0.18325031945E+01 0.  0.
         22    1    3    3    0    0  0.14307421110E+02  0.43687041846E+02  0.17879351754E+03  0.18460872633E+03  0.00000000000E+00 0.  1.
         22    1    4    4    0    0 -0.86514895795E+01 -0.23488421523E+02  0.53794098400E+02  0.59332615316E+02  0.00000000000E+00 0.  1.
         22    1    4    4    0    0 -0.56559315302E+01 -0.20198620323E+02  0.45285644594E+02  0.49907548835E+02  0.00000000000E+00 0.  1.
<mgrwt>
<rscale>  0 0.95569982E+02</rscale>
<asrwt>0</asrwt>
<pdfrwt beam="2">  1        1 0.12288945E-02 0.95569982E+02</pdfrwt>
<pdfrwt beam="1">  1       -1 0.43978629E-01 0.95569982E+02</pdfrwt>
<totfact> 0.54566526E+04</totfact>
</mgrwt>
</event>
<event>
 7    1  0.2787125E-009  0.9565262E+02  0.7818608E-02  0.1289713E+00
          1   -1    0    0  501    0  0.00000000000E+00  0.00000000000E+00  0.82566296668E+02  0.82566296822E+02  0.50400000000E-02 0. -1.
         -1   -1    0    0    0  501 -0.00000000000E+00 -0.00000000000E+00 -0.27703264441E+02  0.27703264899E+02  0.50400000000E-02 0.  1.
         23    2    1    2    0    0  0.00000000000E+00 -0.88817841970E-15  0.54863032228E+02  0.11026956172E+03  0.95652621172E+02 0.  0.
    9000005    2    3    3    0    0  0.32225565572E+02  0.76311165165E+01  0.66522340297E+02  0.75160296842E+02  0.11275080798E+02 0.  0.
         22    1    3    3    0    0 -0.32225565572E+02 -0.76311165165E+01 -0.11659308070E+02  0.35109264880E+02  0.00000000000E+00 0.  1.
         22    1    4    4    0    0  0.66885587675E+01 -0.42034649340E+00  0.23928380658E+02  0.24849163174E+02  0.00000000000E+00 0. -1.
         22    1    4    4    0    0  0.25537006805E+02  0.80514630099E+01  0.42593959639E+02  0.50311133667E+02  0.00000000000E+00 0. -1.
<mgrwt>
<rscale>  0 0.95652621E+02</rscale>
<asrwt>0</asrwt>
<pdfrwt beam="1">  1        1 0.12702507E-01 0.95652621E+02</pdfrwt>
<pdfrwt beam="2">  1       -1 0.42620407E-02 0.95652621E+02</pdfrwt>
<totfact> 0.88733683E+04</totfact>
</mgrwt>
</event>
<event>
 7    1  0.2787125E-009  0.9171008E+02  0.7818608E-02  0.1298763E+00
          1   -1    0    0  501    0  0.00000000000E+00  0.00000000000E+00  0.14387475889E+03  0.14387475898E+03  0.50400000000E-02 0. -1.
         -1   -1    0    0    0  501 -0.00000000000E+00 -0.00000000000E+00 -0.14614688102E+02  0.14614688971E+02  0.50400000000E-02 0.  1.
         23    2    1    2    0    0 -0.71054273576E-14  0.35527136788E-14  0.12926007079E+03  0.15848944795E+03  0.91710082387E+02 0.  0.
    9000005    2    3    3    0    0 -0.39253037712E+02  0.22047475264E+02  0.67040848928E+02  0.81690205089E+02  0.12325666209E+02 0.  0.
         22    1    3    3    0    0  0.39253037712E+02 -0.22047475264E+02  0.62219221863E+02  0.76799242863E+02  0.00000000000E+00 0. -1.
         22    1    4    4    0    0 -0.10743018858E+02  0.49305298474E+01  0.28086479776E+02  0.30472494564E+02  0.00000000000E+00 0. -1.
         22    1    4    4    0    0 -0.28510018854E+02  0.17116945417E+02  0.38954369152E+02  0.51217710525E+02  0.00000000000E+00 0. -1.
<mgrwt>
<rscale>  0 0.91710082E+02</rscale>
<asrwt>0</asrwt>
<pdfrwt beam="1">  1        1 0.22134579E-01 0.91710082E+02</pdfrwt>
<pdfrwt beam="2">  1       -1 0.22484136E-02 0.91710082E+02</pdfrwt>
<totfact> 0.10953970E+05</totfact>
</mgrwt>
</event>
<event>
 7    1  0.2787125E-009  0.9476639E+02  0.7818608E-02  0.1291703E+00
         -1   -1    0    0    0  501 -0.00000000000E+00  0.00000000000E+00  0.52572170727E+02  0.52572170968E+02  0.50400000000E-02 0.  1.
          1   -1    0    0  501    0  0.00000000000E+00 -0.00000000000E+00 -0.42706384820E+02  0.42706385117E+02  0.50400000000E-02 0. -1.
         23    2    1    2    0    0  0.00000000000E+00  0.00000000000E+00  0.98657859066E+01  0.95278556086E+02  0.94766394456E+02 0.  0.
    9000005    2    3    3    0    0 -0.22480177700E+02 -0.37321827612E+02  0.22462071509E+02  0.49925015797E+02  0.94702344331E+01 0.  0.
         22    1    3    3    0    0  0.22480177700E+02  0.37321827612E+02 -0.12596285602E+02  0.45353540288E+02  0.00000000000E+00 0. -1.
         22    1    4    4    0    0 -0.18602868378E+02 -0.31669603909E+02  0.14678411440E+02  0.39553587524E+02  0.00000000000E+00 0.  1.
         22    1    4    4    0    0 -0.38773093218E+01 -0.56522237033E+01  0.77836600686E+01  0.10371428273E+02  0.00000000000E+00 0.  1.
<mgrwt>
<rscale>  0 0.94766394E+02</rscale>
<asrwt>0</asrwt>
<pdfrwt beam="2">  1        1 0.65702131E-02 0.94766394E+02</pdfrwt>
<pdfrwt beam="1">  1       -1 0.80880263E-02 0.94766394E+02</pdfrwt>
<totfact> 0.82096673E+04</totfact>
</mgrwt>
</event>
<event>
 7    1  0.2787125E-009  0.9048396E+02  0.7818608E-02  0.1301684E+00
          1   -1    0    0  501    0  0.00000000000E+00  0.00000000000E+00  0.42208714524E+02  0.42208714825E+02  0.50400000000E-02 0. -1.
         -1   -1    0    0    0  501 -0.00000000000E+00 -0.00000000000E+00 -0.48493220927E+02  0.48493221189E+02  0.50400000000E-02 0.  1.
         23    2    1    2    0    0 -0.17763568394E-14  0.00000000000E+00 -0.62845064029E+01  0.90701936014E+02  0.90483955351E+02 0.  0.
    9000005    2    3    3    0    0 -0.11867009371E+02  0.12739550980E+02  0.37124321739E+02  0.43931769975E+02  0.15769054441E+02 0.  0.
         22    1    3    3    0    0  0.11867009371E+02 -0.12739550980E+02 -0.43408828142E+02  0.46770166038E+02  0.00000000000E+00 0.  1.
         22    1    4    4    0    0 -0.33129303513E+01  0.11361942199E+02  0.31376297987E+02  0.33534181270E+02  0.00000000000E+00 0. -1.
         22    1    4    4    0    0 -0.85540790201E+01  0.13776087816E+01  0.57480237519E+01  0.10397588706E+02  0.00000000000E+00 0. -1.
<mgrwt>
<rscale>  0 0.90483955E+02</rscale>
<asrwt>0</asrwt>
<pdfrwt beam="1">  1        1 0.64936484E-02 0.90483955E+02</pdfrwt>
<pdfrwt beam="2">  1       -1 0.74604956E-02 0.90483955E+02</pdfrwt>
<totfact> 0.93388231E+04</totfact>
</mgrwt>
</event>
<event>
 7    1  0.2787125E-009  0.6210450E+02  0.7818608E-02  0.1389206E+00
          1   -1    0    0  501    0  0.00000000000E+00  0.00000000000E+00  0.19637932764E+02  0.19637933410E+02  0.50400000000E-02 0. -1.
         -1   -1    0    0    0  501 -0.00000000000E+00 -0.00000000000E+00 -0.49101001588E+02  0.49101001847E+02  0.50400000000E-02 0.  1.
         23    2    1    2    0    0  0.00000000000E+00  0.00000000000E+00 -0.29463068824E+02  0.68738935257E+02  0.62104498997E+02 0.  0.
    9000005    2    3    3    0    0 -0.13796369285E+02 -0.16433215940E+02  0.70807985188E+01  0.26361528164E+02  0.13579472298E+02 0.  0.
         22    1    3    3    0    0  0.13796369285E+02  0.16433215940E+02 -0.36543867343E+02  0.42377407094E+02  0.00000000000E+00 0.  1.
         22    1    4    4    0    0 -0.18225121540E+01 -0.71368989957E+01 -0.32147364320E+01  0.80368780103E+01  0.00000000000E+00 0. -1.
         22    1    4    4    0    0 -0.11973857131E+02 -0.92963169440E+01  0.10295534951E+02  0.18324650153E+02  0.00000000000E+00 0. -1.
<mgrwt>
<rscale>  0 0.62104499E+02</rscale>
<asrwt>0</asrwt>
<pdfrwt beam="1">  1        1 0.30212205E-02 0.62104499E+02</pdfrwt>
<pdfrwt beam="2">  1       -1 0.75540003E-02 0.62104499E+02</pdfrwt>
<totfact> 0.23948205E+05</totfact>
</mgrwt>
</event>
<event>
 7    1  0.2787125E-009  0.9063329E+02  0.7818608E-02  0.1301325E+00
         -1   -1    0    0    0  501 -0.00000000000E+00  0.00000000000E+00  0.10826022708E+02  0.10826023881E+02  0.50400000000E-02 0.  1.
          1   -1    0    0  501    0  0.00000000000E+00 -0.00000000000E+00 -0.18969090717E+03  0.18969090724E+03  0.50400000000E-02 0. -1.
         23    2    1    2    0    0  0.35527136788E-14 -0.35527136788E-14 -0.17886488446E+03  0.20051693112E+03  0.90633287327E+02 0.  0.
    9000005    2    3    3    0    0 -0.23351278384E+02  0.19993225949E+02 -0.16240744529E+03  0.16564776723E+03  0.10862468280E+02 0.  0.
         22    1    3    3    0    0  0.23351278384E+02 -0.19993225949E+02 -0.16457439171E+02  0.34869163886E+02  0.00000000000E+00 0.  1.
         22    1    4    4    0    0 -0.10601872000E+02  0.15371815535E+02 -0.81515225009E+02  0.83626696162E+02  0.00000000000E+00 0.  1.
         22    1    4    4    0    0 -0.12749406384E+02  0.46214104145E+01 -0.80892220283E+02  0.82021071072E+02  0.00000000000E+00 0.  1.
<mgrwt>
<rscale>  0 0.90633287E+02</rscale>
<asrwt>0</asrwt>
<pdfrwt beam="2">  1        1 0.29183214E-01 0.90633287E+02</pdfrwt>
<pdfrwt beam="1">  1       -1 0.16655422E-02 0.90633287E+02</pdfrwt>
<totfact> 0.11909553E+05</totfact>
</mgrwt>
</event>
<event>
 7    1  0.2787125E-009  0.8916801E+02  0.7818608E-02  0.1304879E+00
         -1   -1    0    0    0  501 -0.00000000000E+00  0.00000000000E+00  0.36759584681E+02  0.36759585027E+02  0.50400000000E-02 0.  1.
          1   -1    0    0  501    0  0.00000000000E+00 -0.00000000000E+00 -0.54073881321E+02  0.54073881556E+02  0.50400000000E-02 0. -1.
         23    2    1    2    0    0  0.71054273576E-14  0.17763568394E-14 -0.17314296640E+02  0.90833466582E+02  0.89168008743E+02 0.  0.
    9000005    2    3    3    0    0  0.32917707892E+02 -0.13429329926E+02 -0.34213090570E+02  0.51469884030E+02  0.14652337717E+02 0.  0.
         22    1    3    3    0    0 -0.32917707892E+02  0.13429329926E+02  0.16898793930E+02  0.39363582553E+02  0.00000000000E+00 0.  1.
         22    1    4    4    0    0  0.18044979466E+02 -0.14976862365E+02 -0.19613001716E+02  0.30571187850E+02  0.00000000000E+00 0. -1.
         22    1    4    4    0    0  0.14872728426E+02  0.15475324392E+01 -0.14600088854E+02  0.20898696180E+02  0.00000000000E+00 0. -1.
<mgrwt>
<rscale>  0 0.89168009E+02</rscale>
<asrwt>0</asrwt>
<pdfrwt beam="2">  1        1 0.83190587E-02 0.89168009E+02</pdfrwt>
<pdfrwt beam="1">  1       -1 0.56553208E-02 0.89168009E+02</pdfrwt>
<totfact> 0.10093072E+05</totfact>
</mgrwt>
</event>
<event>
 7    1  0.2787125E-009  0.9116083E+02  0.7818608E-02  0.1300065E+00
          1   -1    0    0  501    0  0.00000000000E+00  0.00000000000E+00  0.52666095875E+03  0.52666095877E+03  0.50400000000E-02 0. -1.
         -1   -1    0    0    0  501 -0.00000000000E+00 -0.00000000000E+00 -0.39448025187E+01  0.39448057383E+01  0.50400000000E-02 0.  1.
         23    2    1    2    0    0  0.35527136788E-14  0.88817841970E-15  0.52271615623E+03  0.53060576451E+03  0.91160832316E+02 0.  0.
    9000005    2    3    3    0    0  0.29224755356E+02  0.65257776960E+01  0.46002953715E+03  0.46113430050E+03  0.10999815791E+02 0.  0.
         22    1    3    3    0    0 -0.29224755356E+02 -0.65257776960E+01  0.62686619082E+02  0.69471464013E+02  0.00000000000E+00 0.  1.
         22    1    4    4    0    0  0.12622291755E+02  0.56329440144E+01  0.14220571188E+03  0.14287587900E+03  0.00000000000E+00 0.  1.
         22    1    4    4    0    0  0.16602463600E+02  0.89283368161E+00  0.31782382526E+03  0.31825842150E+03  0.00000000000E+00 0.  1.
<mgrwt>
<rscale>  0 0.91160832E+02</rscale>
<asrwt>0</asrwt>
<pdfrwt beam="1">  1        1 0.81024776E-01 0.91160832E+02</pdfrwt>
<pdfrwt beam="2">  1       -1 0.60689285E-03 0.91160832E+02</pdfrwt>
<totfact> 0.14013514E+05</totfact>
</mgrwt>
</event>
<event>
 7    1  0.2787125E-009  0.8956209E+02  0.7818608E-02  0.1303916E+00
          1   -1    0    0  501    0  0.00000000000E+00  0.00000000000E+00  0.66345600985E+01  0.66345620128E+01  0.50400000000E-02 0. -1.
         -1   -1    0    0    0  501 -0.00000000000E+00 -0.00000000000E+00 -0.30225689308E+03  0.30225689312E+03  0.50400000000E-02 0.  1.
         23    2    1    2    0    0  0.00000000000E+00  0.00000000000E+00 -0.29562233298E+03  0.30889145513E+03  0.89562086274E+02 0.  0.
    9000005    2    3    3    0    0 -0.10124562656E+02  0.43277600520E+02 -0.14327749581E+03  0.15019549775E+03  0.74019770794E+01 0.  0.
         22    1    3    3    0    0  0.10124562656E+02 -0.43277600520E+02 -0.15234483717E+03  0.15869595738E+03  0.00000000000E+00 0. -1.
         22    1    4    4    0    0 -0.76032451589E+01  0.36800872770E+02 -0.11133858490E+03  0.11750912331E+03  0.00000000000E+00 0.  1.
         22    1    4    4    0    0 -0.25213174969E+01  0.64767277497E+01 -0.31938910906E+02  0.32686374441E+02  0.00000000000E+00 0.  1.
<mgrwt>
<rscale>  0 0.89562086E+02</rscale>
<asrwt>0</asrwt>
<pdfrwt beam="1">  1        1 0.10207019E-02 0.89562086E+02</pdfrwt>
<pdfrwt beam="2">  1       -1 0.46501050E-01 0.89562086E+02</pdfrwt>
<totfact> 0.63293935E+04</totfact>
</mgrwt>
</event>
<event>
 7    1  0.2787125E-009  0.8866972E+02  0.7818608E-02  0.1306106E+00
         -1   -1    0    0    0  501 -0.00000000000E+00  0.00000000000E+00  0.12316051241E+03  0.12316051251E+03  0.50400000000E-02 0.  1.
          1   -1    0    0  501    0  0.00000000000E+00 -0.00000000000E+00 -0.15959495044E+02  0.15959495840E+02  0.50400000000E-02 0. -1.
         23    2    1    2    0    0  0.00000000000E+00  0.00000000000E+00  0.10720101736E+03  0.13912000835E+03  0.88669716362E+02 0.  0.
    9000005    2    3    3    0    0 -0.57930404076E+01 -0.36442840920E+02  0.90903698528E+02  0.98780913507E+02  0.11512883902E+02 0.  0.
         22    1    3    3    0    0  0.57930404076E+01  0.36442840920E+02  0.16297318833E+02  0.40339094842E+02  0.00000000000E+00 0. -1.
         22    1    4    4    0    0 -0.49239694881E+01 -0.81819485579E+01  0.14995797392E+02  0.17778180366E+02  0.00000000000E+00 0.  1.
         22    1    4    4    0    0 -0.86907091953E+00 -0.28260892362E+02  0.75907901136E+02  0.81002733140E+02  0.00000000000E+00 0.  1.
<mgrwt>
<rscale>  0 0.88669716E+02</rscale>
<asrwt>0</asrwt>
<pdfrwt beam="2">  1        1 0.24553069E-02 0.88669716E+02</pdfrwt>
<pdfrwt beam="1">  1       -1 0.18947772E-01 0.88669716E+02</pdfrwt>
<totfact> 0.83943666E+04</totfact>
</mgrwt>
</event>
<event>
 7    1  0.2787125E-009  0.9365103E+02  0.7818608E-02  0.1294244E+00
         -1   -1    0    0    0  501 -0.00000000000E+00  0.00000000000E+00  0.77530840644E+01  0.77530857026E+01  0.50400000000E-02 0.  1.
          1   -1    0    0  501    0  0.00000000000E+00 -0.00000000000E+00 -0.28280726394E+03  0.28280726398E+03  0.50400000000E-02 0. -1.
         23    2    1    2    0    0 -0.88817841970E-15  0.00000000000E+00 -0.27505417987E+03  0.29056034968E+03  0.93651027455E+02 0.  0.
    9000005    2    3    3    0    0  0.49775420107E+01  0.41197386939E+02 -0.20045905372E+03  0.20519974132E+03  0.14181008544E+02 0.  0.
         22    1    3    3    0    0 -0.49775420107E+01 -0.41197386939E+02 -0.74595126150E+02  0.85360608365E+02  0.00000000000E+00 0.  1.
         22    1    4    4    0    0  0.34894705258E+01  0.33324898275E+02 -0.18227110035E+03  0.18532533359E+03  0.00000000000E+00 0. -1.
         22    1    4    4    0    0  0.14880714849E+01  0.78724886637E+01 -0.18187953375E+02  0.19874407727E+02  0.00000000000E+00 0. -1.
<mgrwt>
<rscale>  0 0.93651027E+02</rscale>
<asrwt>0</asrwt>
<pdfrwt beam="2">  1        1 0.43508802E-01 0.93651027E+02</pdfrwt>
<pdfrwt beam="1">  1       -1 0.11927825E-02 0.93651027E+02</pdfrwt>
<totfact> 0.11793135E+05</totfact>
</mgrwt>
</event>
<event>
 7    1  0.2787125E-009  0.8844594E+02  0.7818608E-02  0.1306659E+00
         -1   -1    0    0    0  501 -0.00000000000E+00  0.00000000000E+00  0.15892430108E+02  0.15892430908E+02  0.50400000000E-02 0.  1.
          1   -1    0    0  501    0  0.00000000000E+00 -0.00000000000E+00 -0.12305677339E+03  0.12305677349E+03  0.50400000000E-02 0. -1.
         23    2    1    2    0    0 -0.71054273576E-14  0.00000000000E+00 -0.10716434328E+03  0.13894920440E+03  0.88445943561E+02 0.  0.
    9000005    2    3    3    0    0 -0.42862525317E+02 -0.10509535461E+01 -0.43813550947E+02  0.62453299481E+02  0.11936783050E+02 0.  0.
         22    1    3    3    0    0  0.42862525317E+02  0.10509535461E+01 -0.63350792331E+02  0.76495904916E+02  0.00000000000E+00 0. -1.
         22    1    4    4    0    0 -0.84697595124E-02 -0.89195884467E+00 -0.35189988753E+01  0.36302913660E+01  0.00000000000E+00 0.  1.
         22    1    4    4    0    0 -0.42854055558E+02 -0.15899470140E+00 -0.40294552071E+02  0.58823008115E+02  0.00000000000E+00 0.  1.
<mgrwt>
<rscale>  0 0.88445944E+02</rscale>
<asrwt>0</asrwt>
<pdfrwt beam="2">  1        1 0.18931811E-01 0.88445944E+02</pdfrwt>
<pdfrwt beam="1">  1       -1 0.24449894E-02 0.88445944E+02</pdfrwt>
<totfact> 0.11748429E+05</totfact>
</mgrwt>
</event>
<event>
 7    1  0.2787125E-009  0.9094174E+02  0.7818608E-02  0.1300587E+00
         -1   -1    0    0    0  501 -0.00000000000E+00  0.00000000000E+00  0.12030905731E+03  0.12030905741E+03  0.50400000000E-02 0.  1.
          1   -1    0    0  501    0  0.00000000000E+00 -0.00000000000E+00 -0.17185740018E+02  0.17185740757E+02  0.50400000000E-02 0. -1.
         23    2    1    2    0    0  0.00000000000E+00  0.00000000000E+00  0.10312331729E+03  0.13749479817E+03  0.90941744842E+02 0.  0.
    9000005    2    3    3    0    0  0.27549562313E+02 -0.20736983305E+02  0.80073848953E+01  0.36321474337E+02  0.81320615425E+01 0.  0.
         22    1    3    3    0    0 -0.27549562313E+02  0.20736983305E+02  0.95115932392E+02  0.10117332383E+03  0.00000000000E+00 0.  1.
         22    1    4    4    0    0  0.15693389885E+02 -0.16224771133E+02  0.68189357009E+01  0.23580152003E+02  0.00000000000E+00 0. -1.
         22    1    4    4    0    0  0.11856172428E+02 -0.45122121719E+01  0.11884491944E+01  0.12741322334E+02  0.00000000000E+00 0. -1.
<mgrwt>
<rscale>  0 0.90941745E+02</rscale>
<asrwt>0</asrwt>
<pdfrwt beam="2">  1        1 0.26439601E-02 0.90941745E+02</pdfrwt>
<pdfrwt beam="1">  1       -1 0.18509085E-01 0.90941745E+02</pdfrwt>
<totfact> 0.79015118E+04</totfact>
</mgrwt>
</event>
<event>
 7    1  0.2787125E-009  0.9186608E+02  0.7818608E-02  0.1298395E+00
         -1   -1    0    0    0  501 -0.00000000000E+00  0.00000000000E+00  0.90403098071E+02  0.90403098212E+02  0.50400000000E-02 0.  1.
          1   -1    0    0  501    0  0.00000000000E+00 -0.00000000000E+00 -0.23338181664E+02  0.23338182208E+02  0.50400000000E-02 0. -1.
         23    2    1    2    0    0 -0.35527136788E-14  0.00000000000E+00  0.67064916408E+02  0.11374128042E+03  0.91866075668E+02 0.  0.
    9000005    2    3    3    0    0 -0.27701590640E+02 -0.25070077900E+02  0.56002235012E+00  0.37460300723E+02  0.26596193983E+01 0.  0.
         22    1    3    3    0    0  0.27701590640E+02  0.25070077900E+02  0.66504894058E+02  0.76280979697E+02  0.00000000000E+00 0.  1.
         22    1    4    4    0    0 -0.17023817044E+02 -0.16183294225E+02 -0.79769406424E+00  0.23502035540E+02  0.00000000000E+00 0. -1.
         22    1    4    4    0    0 -0.10677773596E+02 -0.88867836751E+01  0.13577164144E+01  0.13958265183E+02  0.00000000000E+00 0. -1.
<mgrwt>
<rscale>  0 0.91866076E+02</rscale>
<asrwt>0</asrwt>
<pdfrwt beam="2">  1        1 0.35904894E-02 0.91866076E+02</pdfrwt>
<pdfrwt beam="1">  1       -1 0.13908169E-01 0.91866076E+02</pdfrwt>
<totfact> 0.81286758E+04</totfact>
</mgrwt>
</event>
<event>
 7    1  0.2787125E-009  0.9366935E+02  0.7818608E-02  0.1294201E+00
         -1   -1    0    0    0  501 -0.00000000000E+00  0.00000000000E+00  0.28472222373E+01  0.28472266981E+01  0.50400000000E-02 0.  1.
          1   -1    0    0  501    0  0.00000000000E+00 -0.00000000000E+00 -0.77039470132E+03  0.77039470133E+03  0.50400000000E-02 0. -1.
         23    2    1    2    0    0  0.17763568394E-14  0.00000000000E+00 -0.76754747908E+03  0.77324192803E+03  0.93669347304E+02 0.  0.
    9000005    2    3    3    0    0  0.13898827656E+02  0.38442849335E+02 -0.56537148848E+03  0.56697471966E+03  0.12015934010E+02 0.  0.
         22    1    3    3    0    0 -0.13898827656E+02 -0.38442849335E+02 -0.20217599060E+03  0.20626720837E+03  0.00000000000E+00 0. -1.
         22    1    4    4    0    0  0.13198215291E+02  0.18916321371E+02 -0.30272461138E+03  0.30360205935E+03  0.00000000000E+00 0. -1.
         22    1    4    4    0    0  0.70061236496E+00  0.19526527964E+02 -0.26264687710E+03  0.26337266031E+03  0.00000000000E+00 0. -1.
<mgrwt>
<rscale>  0 0.93669347E+02</rscale>
<asrwt>0</asrwt>
<pdfrwt beam="2">  1        1 0.11852210E+00 0.93669347E+02</pdfrwt>
<pdfrwt beam="1">  1       -1 0.43803515E-03 0.93669347E+02</pdfrwt>
<totfact> 0.13193440E+05</totfact>
</mgrwt>
</event>
<event>
 7    1  0.2787125E-009  0.9571352E+02  0.7818608E-02  0.1289577E+00
         -1   -1    0    0    0  501 -0.00000000000E+00  0.00000000000E+00  0.98611967682E+01  0.98611980562E+01  0.50400000000E-02 0.  1.
          1   -1    0    0  501    0  0.00000000000E+00 -0.00000000000E+00 -0.23225065397E+03  0.23225065402E+03  0.50400000000E-02 0. -1.
         23    2    1    2    0    0  0.00000000000E+00  0.71054273576E-14 -0.22238945720E+03  0.24211185208E+03  0.95713521738E+02 0.  0.
    9000005    2    3    3    0    0 -0.98431139762E+00 -0.42187730705E+02 -0.59301497400E+02  0.73652788439E+02  0.11282382722E+02 0.  0.
         22    1    3    3    0    0  0.98431139762E+00  0.42187730705E+02 -0.16308795980E+03  0.16845906364E+03  0.00000000000E+00 0. -1.
         22    1    4    4    0    0 -0.28112293273E+01 -0.10558107728E+02 -0.87692772429E+01  0.14009884813E+02  0.00000000000E+00 0.  1.
         22    1    4    4    0    0  0.18269179297E+01 -0.31629622978E+02 -0.50532220157E+02  0.59642903625E+02  0.00000000000E+00 0.  1.
<mgrwt>
<rscale>  0 0.95713522E+02</rscale>
<asrwt>0</asrwt>
<pdfrwt beam="2">  1        1 0.35730866E-01 0.95713522E+02</pdfrwt>
<pdfrwt beam="1">  1       -1 0.15171075E-02 0.95713522E+02</pdfrwt>
<totfact> 0.10701222E+05</totfact>
</mgrwt>
</event>
<event>
 7    1  0.2787125E-009  0.9182763E+02  0.7818608E-02  0.1298485E+00
          1   -1    0    0  501    0  0.00000000000E+00  0.00000000000E+00  0.51680798014E+03  0.51680798017E+03  0.50400000000E-02 0. -1.
         -1   -1    0    0    0  501 -0.00000000000E+00 -0.00000000000E+00 -0.40790348614E+01  0.40790379751E+01  0.50400000000E-02 0.  1.
         23    2    1    2    0    0  0.00000000000E+00  0.00000000000E+00  0.51272894528E+03  0.52088701814E+03  0.91827633858E+02 0.  0.
    9000005    2    3    3    0    0 -0.49755645708E+01  0.23667274543E+02  0.47691407222E+03  0.47767126570E+03  0.11743494511E+02 0.  0.
         22    1    3    3    0    0  0.49755645708E+01 -0.23667274543E+02  0.35814873061E+02  0.43215752446E+02  0.00000000000E+00 0.  1.
         22    1    4    4    0    0 -0.65312046346E+01  0.24314983842E+02  0.45145005147E+03  0.45215154986E+03  0.00000000000E+00 0. -1.
         22    1    4    4    0    0  0.15556400638E+01 -0.64770929904E+00  0.25464020752E+02  0.25519715833E+02  0.00000000000E+00 0. -1.
<mgrwt>
<rscale>  0 0.91827634E+02</rscale>
<asrwt>0</asrwt>
<pdfrwt beam="1">  1        1 0.79508930E-01 0.91827634E+02</pdfrwt>
<pdfrwt beam="2">  1       -1 0.62754399E-03 0.91827634E+02</pdfrwt>
<totfact> 0.13717788E+05</totfact>
</mgrwt>
</event>
<event>
 6    1  0.2787125E-009  0.1293591E+03  0.7818608E-02  0.1228410E+00
         -1   -1    0    0    0  501 -0.00000000000E+00  0.00000000000E+00  0.23815649712E+01  0.23815703041E+01  0.50400000000E-02 0.  1.
          1   -1    0    0  501    0  0.00000000000E+00 -0.00000000000E+00 -0.17565923902E+04  0.17565923902E+04  0.50400000000E-02 0. -1.
    9000005    2    1    2    0    0  0.68787042180E+01 -0.41324439398E+02 -0.15461021772E+04  0.15466905763E+04  0.80480028281E+01 0.  0.
         22    1    1    2    0    0 -0.68787042180E+01  0.41324439398E+02 -0.20810864800E+03  0.21228338426E+03  0.00000000000E+00 0.  1.
         22    1    3    3    0    0  0.13968047208E-01 -0.15965132621E+02 -0.69340336339E+03  0.69358713225E+03  0.00000000000E+00 0.  1.
         22    1    3    3    0    0  0.68647361708E+01 -0.25359306777E+02 -0.85269881385E+03  0.85310344401E+03  0.00000000000E+00 0.  1.
<mgrwt>
<rscale>  0 0.12935909E+03</rscale>
<asrwt>0</asrwt>
<pdfrwt beam="2">  1        1 0.27024395E+00 0.12935909E+03</pdfrwt>
<pdfrwt beam="1">  1       -1 0.36639643E-03 0.12935909E+03</pdfrwt>
<totfact> 0.36890739E+04</totfact>
</mgrwt>
</event>
<event>
 7    1  0.2787125E-009  0.8939578E+02  0.7818608E-02  0.1304322E+00
          1   -1    0    0  501    0  0.00000000000E+00  0.00000000000E+00  0.59568602945E+03  0.59568602948E+03  0.50400000000E-02 0. -1.
         -1   -1    0    0    0  501 -0.00000000000E+00 -0.00000000000E+00 -0.33539481983E+01  0.33539519851E+01  0.50400000000E-02 0.  1.
         23    2    1    2    0    0  0.00000000000E+00 -0.17763568394E-14  0.59233208126E+03  0.59903998146E+03  0.89395776765E+02 0.  0.
    9000005    2    3    3    0    0  0.34063833630E+02  0.94574239167E+01  0.47646152596E+03  0.47789637572E+03  0.10934924400E+02 0.  0.
         22    1    3    3    0    0 -0.34063833630E+02 -0.94574239167E+01  0.11587055529E+03  0.12114360574E+03  0.00000000000E+00 0.  1.
         22    1    4    4    0    0  0.19043123250E+02  0.35865194058E+01  0.19123487388E+03  0.19221415310E+03  0.00000000000E+00 0. -1.
         22    1    4    4    0    0  0.15020710380E+02  0.58709045109E+01  0.28522665209E+03  0.28568222262E+03  0.00000000000E+00 0. -1.
<mgrwt>
<rscale>  0 0.89395777E+02</rscale>
<asrwt>0</asrwt>
<pdfrwt beam="1">  1        1 0.91644074E-01 0.89395777E+02</pdfrwt>
<pdfrwt beam="2">  1       -1 0.51599193E-03 0.89395777E+02</pdfrwt>
<totfact> 0.14910177E+05</totfact>
</mgrwt>
</event>
<event>
 7    1  0.2787125E-009  0.9167754E+02  0.7818608E-02  0.1298839E+00
          1   -1    0    0  501    0  0.00000000000E+00  0.00000000000E+00  0.32687401740E+02  0.32687402129E+02  0.50400000000E-02 0. -1.
         -1   -1    0    0    0  501 -0.00000000000E+00 -0.00000000000E+00 -0.64281432722E+02  0.64281432919E+02  0.50400000000E-02 0.  1.
         23    2    1    2    0    0  0.00000000000E+00 -0.22204460493E-15 -0.31594030982E+02  0.96968835048E+02  0.91677544562E+02 0.  0.
    9000005    2    3    3    0    0  0.17728760343E+02  0.16638274997E+01 -0.60056942344E+02  0.63394818480E+02  0.97462516462E+01 0.  0.
         22    1    3    3    0    0 -0.17728760343E+02 -0.16638274997E+01  0.28462911363E+02  0.33574016568E+02  0.00000000000E+00 0. -1.
         22    1    4    4    0    0  0.33815667383E+01 -0.27534845349E+01 -0.23052370473E+02  0.23461211714E+02  0.00000000000E+00 0.  1.
         22    1    4    4    0    0  0.14347193605E+02  0.44173120346E+01 -0.37004571871E+02  0.39933606766E+02  0.00000000000E+00 0.  1.
<mgrwt>
<rscale>  0 0.91677545E+02</rscale>
<asrwt>0</asrwt>
<pdfrwt beam="1">  1        1 0.50288311E-02 0.91677545E+02</pdfrwt>
<pdfrwt beam="2">  1       -1 0.98894512E-02 0.91677545E+02</pdfrwt>
<totfact> 0.86512517E+04</totfact>
</mgrwt>
</event>
<event>
 7    1  0.2787125E-009  0.9291726E+02  0.7818608E-02  0.1295937E+00
          1   -1    0    0  501    0  0.00000000000E+00  0.00000000000E+00  0.15478934868E+02  0.15478935688E+02  0.50400000000E-02 0. -1.
         -1   -1    0    0    0  501 -0.00000000000E+00 -0.00000000000E+00 -0.13944138902E+03  0.13944138911E+03  0.50400000000E-02 0.  1.
         23    2    1    2    0    0  0.00000000000E+00  0.35527136788E-14 -0.12396245416E+03  0.15492032480E+03  0.92917258875E+02 0.  0.
    9000005    2    3    3    0    0 -0.32205642865E+02  0.21273656575E+02 -0.23557920756E+02  0.47352475407E+02  0.14053803772E+02 0.  0.
         22    1    3    3    0    0  0.32205642865E+02 -0.21273656575E+02 -0.10040453340E+03  0.10756784940E+03  0.00000000000E+00 0.  1.
         22    1    4    4    0    0 -0.20487597318E+02  0.18813178081E+02 -0.21606349090E+02  0.35220897694E+02  0.00000000000E+00 0. -1.
         22    1    4    4    0    0 -0.11718045546E+02  0.24604784942E+01 -0.19515716659E+01  0.12131577713E+02  0.00000000000E+00 0. -1.
<mgrwt>
<rscale>  0 0.92917259E+02</rscale>
<asrwt>0</asrwt>
<pdfrwt beam="1">  1        1 0.23813748E-02 0.92917259E+02</pdfrwt>
<pdfrwt beam="2">  1       -1 0.21452521E-01 0.92917259E+02</pdfrwt>
<totfact> 0.72405514E+04</totfact>
</mgrwt>
</event>
<event>
 7    1  0.3179893E-009  0.9508931E+02  0.7818608E-02  0.1290975E+00
         -1   -1    0    0    0  501 -0.00000000000E+00  0.00000000000E+00  0.25201997799E+02  0.25201998303E+02  0.50400000000E-02 0.  1.
          1   -1    0    0  501    0  0.00000000000E+00 -0.00000000000E+00 -0.89695042283E+02  0.89695042425E+02  0.50400000000E-02 0. -1.
         23    2    1    2    0    0  0.00000000000E+00  0.00000000000E+00 -0.64493044485E+02  0.11489704073E+03  0.95089311603E+02 0.  0.
    9000005    2    3    3    0    0  0.22423617137E+02 -0.19040136250E+02  0.10835325874E+02  0.34028574842E+02  0.13236095536E+02 0.  0.
         22    1    3    3    0    0 -0.22423617137E+02  0.19040136250E+02 -0.75328370359E+02  0.80868465886E+02  0.00000000000E+00 0. -1.
         22    1    4    4    0    0  0.22616695899E+02 -0.19590448563E+02  0.77778076912E+01  0.30915932798E+02  0.00000000000E+00 0. -1.
         22    1    4    4    0    0 -0.19307876255E+00  0.55031231340E+00  0.30575181828E+01  0.31126420432E+01  0.00000000000E+00 0. -1.
<mgrwt>
<rscale>  0 0.95089312E+02</rscale>
<asrwt>0</asrwt>
<pdfrwt beam="2">  1        1 0.13799237E-01 0.95089312E+02</pdfrwt>
<pdfrwt beam="1">  1       -1 0.38772305E-02 0.95089312E+02</pdfrwt>
<totfact> 0.91427759E+04</totfact>
</mgrwt>
</event>
<event>
 7    1  0.2787125E-009  0.1041785E+03  0.7818608E-02  0.1271747E+00
         -1   -1    0    0    0  501 -0.00000000000E+00  0.00000000000E+00  0.72611568260E+02  0.72611568435E+02  0.50400000000E-02 0.  1.
          1   -1    0    0  501    0  0.00000000000E+00 -0.00000000000E+00 -0.37367185044E+02  0.37367185384E+02  0.50400000000E-02 0. -1.
         23    2    1    2    0    0  0.00000000000E+00  0.00000000000E+00  0.35244383216E+02  0.10997875382E+03  0.10417849943E+03 0.  0.
    9000005    2    3    3    0    0  0.44198192422E+02  0.21167827576E+02  0.49645059106E+00  0.49904000725E+02  0.94130594140E+01 0.  0.
         22    1    3    3    0    0 -0.44198192422E+02 -0.21167827576E+02  0.34747932625E+02  0.60074753094E+02  0.00000000000E+00 0. -1.
         22    1    4    4    0    0  0.24590289377E+02  0.85660111642E+01 -0.34395054814E+01  0.26265739602E+02  0.00000000000E+00 0. -1.
         22    1    4    4    0    0  0.19607903045E+02  0.12601816412E+02  0.39359560724E+01  0.23638261123E+02  0.00000000000E+00 0. -1.
<mgrwt>
<rscale>  0 0.10417850E+03</rscale>
<asrwt>0</asrwt>
<pdfrwt beam="2">  1        1 0.57487977E-02 0.10417850E+03</pdfrwt>
<pdfrwt beam="1">  1       -1 0.11171011E-01 0.10417850E+03</pdfrwt>
<totfact> 0.61190868E+04</totfact>
</mgrwt>
</event>
<event>
 7    1  0.2787125E-009  0.9147805E+02  0.7818608E-02  0.1299311E+00
          1   -1    0    0  501    0  0.00000000000E+00  0.00000000000E+00  0.69391318793E+03  0.69391318795E+03  0.50400000000E-02 0. -1.
         -1   -1    0    0    0  501 -0.00000000000E+00 -0.00000000000E+00 -0.30148681374E+01  0.30148723501E+01  0.50400000000E-02 0.  1.
         23    2    1    2    0    0  0.00000000000E+00  0.00000000000E+00  0.69089831979E+03  0.69692806030E+03  0.91478046214E+02 0.  0.
    9000005    2    3    3    0    0 -0.71404918278E+01  0.11812834711E+02  0.67727457578E+03  0.67753383207E+03  0.12677260026E+02 0.  0.
         22    1    3    3    0    0  0.71404918278E+01 -0.11812834711E+02  0.13623744015E+02  0.19394228225E+02  0.00000000000E+00 0.  1.
         22    1    4    4    0    0 -0.95854167814E+01  0.61668816893E+01  0.31329846919E+03  0.31350572793E+03  0.00000000000E+00 0. -1.
         22    1    4    4    0    0  0.24449249537E+01  0.56459530222E+01  0.36397610658E+03  0.36402810414E+03  0.00000000000E+00 0. -1.
<mgrwt>
<rscale>  0 0.91478046E+02</rscale>
<asrwt>0</asrwt>
<pdfrwt beam="1">  1        1 0.10675592E+00 0.91478046E+02</pdfrwt>
<pdfrwt beam="2">  1       -1 0.46382602E-03 0.91478046E+02</pdfrwt>
<totfact> 0.14094843E+05</totfact>
</mgrwt>
</event>
<event>
 7    1  0.2787125E-009  0.9991915E+02  0.7818608E-02  0.1280466E+00
          1   -1    0    0  501    0  0.00000000000E+00  0.00000000000E+00  0.14195601794E+03  0.14195601802E+03  0.50400000000E-02 0. -1.
         -1   -1    0    0    0  501 -0.00000000000E+00 -0.00000000000E+00 -0.17582621968E+02  0.17582622690E+02  0.50400000000E-02 0.  1.
         23    2    1    2    0    0 -0.17763568394E-14  0.71054273576E-14  0.12437339597E+03  0.15953864071E+03  0.99919148599E+02 0.  0.
    9000005    2    3    3    0    0  0.14466047698E+02  0.34940716163E+02  0.11345646426E+03  0.12017749769E+03  0.11838137014E+02 0.  0.
         22    1    3    3    0    0 -0.14466047698E+02 -0.34940716163E+02  0.10916931710E+02  0.39361143022E+02  0.00000000000E+00 0.  1.
         22    1    4    4    0    0  0.13933959502E+00  0.15132736082E+02  0.40566250537E+02  0.43297110752E+02  0.00000000000E+00 0. -1.
         22    1    4    4    0    0  0.14326708103E+02  0.19807980081E+02  0.72890213721E+02  0.76880386941E+02  0.00000000000E+00 0. -1.
<mgrwt>
<rscale>  0 0.99919149E+02</rscale>
<asrwt>0</asrwt>
<pdfrwt beam="1">  1        1 0.21839387E-01 0.99919149E+02</pdfrwt>
<pdfrwt beam="2">  1       -1 0.27050189E-02 0.99919149E+02</pdfrwt>
<totfact> 0.86555351E+04</totfact>
</mgrwt>
</event>
<event>
 7    1  0.2787125E-009  0.7538273E+02  0.7818608E-02  0.1342690E+00
         -1   -1    0    0    0  501 -0.00000000000E+00  0.00000000000E+00  0.86197980440E+01  0.86197995174E+01  0.50400000000E-02 0.  1.
          1   -1    0    0  501    0  0.00000000000E+00 -0.00000000000E+00 -0.16481115307E+03  0.16481115315E+03  0.50400000000E-02 0. -1.
         23    2    1    2    0    0  0.00000000000E+00 -0.35527136788E-14 -0.15619135503E+03  0.17343095267E+03  0.75382729835E+02 0.  0.
    9000005    2    3    3    0    0 -0.47716260151E+01 -0.21723943443E+02 -0.14760110745E+03  0.14958791412E+03  0.97856526977E+01 0.  0.
         22    1    3    3    0    0  0.47716260151E+01  0.21723943443E+02 -0.85902475838E+01  0.23843038546E+02  0.00000000000E+00 0.  1.
         22    1    4    4    0    0 -0.52146268050E+01 -0.22000746062E+02 -0.14720766750E+03  0.14893395359E+03  0.00000000000E+00 0.  1.
         22    1    4    4    0    0  0.44300078985E+00  0.27680261901E+00 -0.39343994112E+00  0.65396053166E+00  0.00000000000E+00 0.  1.
<mgrwt>
<rscale>  0 0.75382730E+02</rscale>
<asrwt>0</asrwt>
<pdfrwt beam="2">  1        1 0.25355560E-01 0.75382730E+02</pdfrwt>
<pdfrwt beam="1">  1       -1 0.13261230E-02 0.75382730E+02</pdfrwt>
<totfact> 0.18934593E+05</totfact>
</mgrwt>
</event>
<event>
 7    1  0.2787125E-009  0.8996962E+02  0.7818608E-02  0.1302925E+00
          1   -1    0    0  501    0  0.00000000000E+00  0.00000000000E+00  0.17579967650E+03  0.17579967657E+03  0.50400000000E-02 0. -1.
         -1   -1    0    0    0  501 -0.00000000000E+00 -0.00000000000E+00 -0.11511017301E+02  0.11511018405E+02  0.50400000000E-02 0.  1.
         23    2    1    2    0    0  0.00000000000E+00  0.00000000000E+00  0.16428865920E+03  0.18731069497E+03  0.89969622158E+02 0.  0.
    9000005    2    3    3    0    0 -0.43303264960E+02 -0.76657689351E+01  0.70696760376E+02  0.83901893152E+02  0.10371064423E+02 0.  0.
         22    1    3    3    0    0  0.43303264960E+02  0.76657689351E+01  0.93591898819E+02  0.10340880182E+03  0.00000000000E+00 0.  1.
         22    1    4    4    0    0 -0.12422611723E+02 -0.59847062483E+01  0.16510601457E+02  0.21511344713E+02  0.00000000000E+00 0.  1.
         22    1    4    4    0    0 -0.30880653237E+02 -0.16810626868E+01  0.54186158919E+02  0.62390548439E+02  0.00000000000E+00 0.  1.
<mgrwt>
<rscale>  0 0.89969622E+02</rscale>
<asrwt>0</asrwt>
<pdfrwt beam="1">  1        1 0.27046102E-01 0.89969622E+02</pdfrwt>
<pdfrwt beam="2">  1       -1 0.17709260E-02 0.89969622E+02</pdfrwt>
<totfact> 0.11971307E+05</totfact>
</mgrwt>
</event>
<event>
 7    1  0.2787125E-009  0.9015556E+02  0.7818608E-02  0.1302475E+00
         -1   -1    0    0    0  501 -0.00000000000E+00  0.00000000000E+00  0.19175443121E+01  0.19175509355E+01  0.50400000000E-02 0.  1.
          1   -1    0    0  501    0  0.00000000000E+00 -0.00000000000E+00 -0.10596900088E+04  0.10596900088E+04  0.50400000000E-02 0. -1.
         23    2    1    2    0    0  0.00000000000E+00 -0.17763568394E-14 -0.10577724645E+04  0.10616075597E+04  0.90155556037E+02 0.  0.
    9000005    2    3    3    0    0 -0.10569693924E+02 -0.13834486007E+02 -0.10179840109E+04  0.10181767818E+04  0.94552180744E+01 0.  0.
         22    1    3    3    0    0  0.10569693924E+02  0.13834486007E+02 -0.39788453577E+02  0.43430777921E+02  0.00000000000E+00 0.  1.
         22    1    4    4    0    0  0.79907928612E+00 -0.66428182351E+00 -0.12767882322E+02  0.12810098245E+02  0.00000000000E+00 0.  1.
         22    1    4    4    0    0 -0.11368773210E+02 -0.13170204184E+02 -0.10052161286E+04  0.10053666836E+04  0.00000000000E+00 0.  1.
<mgrwt>
<rscale>  0 0.90155556E+02</rscale>
<asrwt>0</asrwt>
<pdfrwt beam="2">  1        1 0.16302876E+00 0.90155556E+02</pdfrwt>
<pdfrwt beam="1">  1       -1 0.29500817E-03 0.90155556E+02</pdfrwt>
<totfact> 0.13775051E+05</totfact>
</mgrwt>
</event>
<event>
 7    1  0.2787125E-009  0.9473588E+02  0.7818608E-02  0.1291772E+00
         -1   -1    0    0    0  501 -0.00000000000E+00  0.00000000000E+00  0.25480826681E+01  0.25480876526E+01  0.50400000000E-02 0.  1.
          1   -1    0    0  501    0  0.00000000000E+00 -0.00000000000E+00 -0.88055216731E+03  0.88055216733E+03  0.50400000000E-02 0. -1.
         23    2    1    2    0    0  0.35527136788E-14  0.71054273576E-14 -0.87800408465E+03  0.88310025498E+03  0.94735883870E+02 0.  0.
    9000005    2    3    3    0    0  0.24304758322E+02  0.34394743850E+02 -0.62600503890E+03  0.62760614793E+03  0.15279021835E+02 0.  0.
         22    1    3    3    0    0 -0.24304758322E+02 -0.34394743850E+02 -0.25199904574E+03  0.25549410705E+03  0.00000000000E+00 0.  1.
         22    1    4    4    0    0  0.25644549485E+02  0.32829188468E+02 -0.61503908488E+03  0.61644827396E+03  0.00000000000E+00 0. -1.
         22    1    4    4    0    0 -0.13397911635E+01  0.15655553817E+01 -0.10965954020E+02  0.11157873973E+02  0.00000000000E+00 0. -1.
<mgrwt>
<rscale>  0 0.94735884E+02</rscale>
<asrwt>0</asrwt>
<pdfrwt beam="2">  1        1 0.13546932E+00 0.94735884E+02</pdfrwt>
<pdfrwt beam="1">  1       -1 0.39201380E-03 0.94735884E+02</pdfrwt>
<totfact> 0.12620640E+05</totfact>
</mgrwt>
</event>
<event>
 7    1  0.2787125E-009  0.9265726E+02  0.7818608E-02  0.1296541E+00
         -1   -1    0    0    0  501 -0.00000000000E+00  0.00000000000E+00  0.44679483118E+01  0.44679511544E+01  0.50400000000E-02 0.  1.
          1   -1    0    0  501    0  0.00000000000E+00 -0.00000000000E+00 -0.48038631318E+03  0.48038631321E+03  0.50400000000E-02 0. -1.
         23    2    1    2    0    0  0.00000000000E+00  0.88817841970E-15 -0.47591836487E+03  0.48485426436E+03  0.92657259025E+02 0.  0.
    9000005    2    3    3    0    0 -0.89056668386E+01  0.61394289802E+01 -0.47365871335E+03  0.47380394694E+03  0.45387134666E+01 0.  0.
         22    1    3    3    0    0  0.89056668386E+01 -0.61394289802E+01 -0.22596515225E+01  0.11050317418E+02  0.00000000000E+00 0.  1.
         22    1    4    4    0    0 -0.30556057849E+01  0.45281828503E+01 -0.18133421153E+03  0.18141647510E+03  0.00000000000E+00 0.  1.
         22    1    4    4    0    0 -0.58500610537E+01  0.16112461299E+01 -0.29232450182E+03  0.29238747185E+03  0.00000000000E+00 0.  1.
<mgrwt>
<rscale>  0 0.92657259E+02</rscale>
<asrwt>0</asrwt>
<pdfrwt beam="2">  1        1 0.73905546E-01 0.92657259E+02</pdfrwt>
<pdfrwt beam="1">  1       -1 0.68737726E-03 0.92657259E+02</pdfrwt>
<totfact> 0.13278136E+05</totfact>
</mgrwt>
</event>
<event>
 7    1  0.2787125E-009  0.8855017E+02  0.7818608E-02  0.1306401E+00
         -1   -1    0    0    0  501 -0.00000000000E+00  0.00000000000E+00  0.22948504766E+02  0.22948505319E+02  0.50400000000E-02 0.  1.
          1   -1    0    0  501    0  0.00000000000E+00 -0.00000000000E+00 -0.85420941985E+02  0.85420942133E+02  0.50400000000E-02 0. -1.
         23    2    1    2    0    0  0.00000000000E+00  0.00000000000E+00 -0.62472437219E+02  0.10836944745E+03  0.88550165043E+02 0.  0.
    9000005    2    3    3    0    0  0.37024428440E+02 -0.36973920796E+01 -0.28964979401E+01  0.38128636306E+02  0.78053953601E+01 0.  0.
         22    1    3    3    0    0 -0.37024428440E+02  0.36973920796E+01 -0.59575939279E+02  0.70240811146E+02  0.00000000000E+00 0. -1.
         22    1    4    4    0    0  0.36762240048E+01  0.18379599922E+01  0.55937803618E+00  0.41479662069E+01  0.00000000000E+00 0.  1.
         22    1    4    4    0    0  0.33348204436E+02 -0.55353520718E+01 -0.34558759763E+01  0.33980670099E+02  0.00000000000E+00 0.  1.
<mgrwt>
<rscale>  0 0.88550165E+02</rscale>
<asrwt>0</asrwt>
<pdfrwt beam="2">  1        1 0.13141683E-01 0.88550165E+02</pdfrwt>
<pdfrwt beam="1">  1       -1 0.35305393E-02 0.88550165E+02</pdfrwt>
<totfact> 0.11026100E+05</totfact>
</mgrwt>
</event>
<event>
 7    1  0.2787125E-009  0.9122824E+02  0.7818608E-02  0.1299904E+00
         -1   -1    0    0    0  501 -0.00000000000E+00  0.00000000000E+00  0.21412202896E+02  0.21412203489E+02  0.50400000000E-02 0.  1.
          1   -1    0    0  501    0  0.00000000000E+00 -0.00000000000E+00 -0.97171129472E+02  0.97171129602E+02  0.50400000000E-02 0. -1.
         23    2    1    2    0    0  0.00000000000E+00  0.00000000000E+00 -0.75758926576E+02  0.11858333309E+03  0.91228240863E+02 0.  0.
    9000005    2    3    3    0    0  0.24473877501E+02  0.23128212138E+02 -0.77392153052E+02  0.84870541671E+02  0.89206845555E+01 0.  0.
         22    1    3    3    0    0 -0.24473877501E+02 -0.23128212138E+02  0.16332264758E+01  0.33712791420E+02  0.00000000000E+00 0.  1.
         22    1    4    4    0    0  0.10431785236E+02  0.95731563232E+01 -0.43667459862E+02  0.45905495488E+02  0.00000000000E+00 0. -1.
         22    1    4    4    0    0  0.14042092264E+02  0.13555055814E+02 -0.33724693190E+02  0.38965046183E+02  0.00000000000E+00 0. -1.
<mgrwt>
<rscale>  0 0.91228241E+02</rscale>
<asrwt>0</asrwt>
<pdfrwt beam="2">  1        1 0.14949404E-01 0.91228241E+02</pdfrwt>
<pdfrwt beam="1">  1       -1 0.32941852E-02 0.91228241E+02</pdfrwt>
<totfact> 0.10379640E+05</totfact>
</mgrwt>
</event>
<event>
 7    1  0.2787125E-009  0.9161620E+02  0.7818608E-02  0.1298984E+00
         -1   -1    0    0    0  501 -0.00000000000E+00  0.00000000000E+00  0.48198199139E+01  0.48198225490E+01  0.50400000000E-02 0.  1.
          1   -1    0    0  501    0  0.00000000000E+00 -0.00000000000E+00 -0.43536514906E+03  0.43536514908E+03  0.50400000000E-02 0. -1.
         23    2    1    2    0    0  0.00000000000E+00  0.00000000000E+00 -0.43054532914E+03  0.44018497163E+03  0.91616203843E+02 0.  0.
    9000005    2    3    3    0    0 -0.40740705518E+02  0.72093023983E+01 -0.30904910630E+03  0.31183735268E+03  0.44051438526E+01 0.  0.
         22    1    3    3    0    0  0.40740705518E+02 -0.72093023983E+01 -0.12149622284E+03  0.12834761896E+03  0.00000000000E+00 0.  1.
         22    1    4    4    0    0 -0.41905615217E+01  0.18153504809E+01 -0.27946317133E+02  0.28317008044E+02  0.00000000000E+00 0. -1.
         22    1    4    4    0    0 -0.36550143996E+02  0.53939519175E+01 -0.28110278917E+03  0.28352034463E+03  0.00000000000E+00 0. -1.
<mgrwt>
<rscale>  0 0.91616204E+02</rscale>
<asrwt>0</asrwt>
<pdfrwt beam="2">  1        1 0.66979223E-01 0.91616204E+02</pdfrwt>
<pdfrwt beam="1">  1       -1 0.74151130E-03 0.91616204E+02</pdfrwt>
<totfact> 0.13496195E+05</totfact>
</mgrwt>
</event>
<event>
 7    1  0.2787125E-009  0.9189618E+02  0.7818608E-02  0.1298324E+00
         -1   -1    0    0    0  501 -0.00000000000E+00  0.00000000000E+00  0.32964741297E+01  0.32964779825E+01  0.50400000000E-02 0.  1.
          1   -1    0    0  501    0  0.00000000000E+00 -0.00000000000E+00 -0.64044967760E+03  0.64044967762E+03  0.50400000000E-02 0. -1.
         23    2    1    2    0    0  0.00000000000E+00  0.00000000000E+00 -0.63715320347E+03  0.64374615560E+03  0.91896181424E+02 0.  0.
    9000005    2    3    3    0    0 -0.37580357087E+02 -0.50114231574E+01 -0.50013531774E+03  0.50157970875E+03  0.30774302703E+01 0.  0.
         22    1    3    3    0    0  0.37580357087E+02  0.50114231574E+01 -0.13701788573E+03  0.14216644685E+03  0.00000000000E+00 0.  1.
         22    1    4    4    0    0 -0.12763950948E+02 -0.60868449499E+00 -0.18127950901E+03  0.18172932985E+03  0.00000000000E+00 0.  1.
         22    1    4    4    0    0 -0.24816406139E+02 -0.44027386624E+01 -0.31885580874E+03  0.31985037891E+03  0.00000000000E+00 0.  1.
<mgrwt>
<rscale>  0 0.91896181E+02</rscale>
<asrwt>0</asrwt>
<pdfrwt beam="2">  1        1 0.98530621E-01 0.91896181E+02</pdfrwt>
<pdfrwt beam="1">  1       -1 0.50715068E-03 0.91896181E+02</pdfrwt>
<totfact> 0.13909520E+05</totfact>
</mgrwt>
</event>
<event>
 7    1  0.2787125E-009  0.9160957E+02  0.7818608E-02  0.1299000E+00
          1   -1    0    0  501    0  0.00000000000E+00  0.00000000000E+00  0.58454888615E+03  0.58454888617E+03  0.50400000000E-02 0. -1.
         -1   -1    0    0    0  501 -0.00000000000E+00 -0.00000000000E+00 -0.35892249506E+01  0.35892284892E+01  0.50400000000E-02 0.  1.
         23    2    1    2    0    0  0.00000000000E+00 -0.35527136788E-14  0.58095966120E+03  0.58813811466E+03  0.91609573604E+02 0.  0.
    9000005    2    3    3    0    0  0.18101499234E+02  0.28051962153E+02  0.49048022463E+03  0.49169587652E+03  0.89110819433E+01 0.  0.
         22    1    3    3    0    0 -0.18101499234E+02 -0.28051962153E+02  0.90479436570E+02  0.96442238139E+02  0.00000000000E+00 0.  1.
         22    1    4    4    0    0  0.16514615001E+02  0.20971327475E+02  0.34291984365E+03  0.34395718957E+03  0.00000000000E+00 0. -1.
         22    1    4    4    0    0  0.15868842327E+01  0.70806346785E+01  0.14756038098E+03  0.14773868695E+03  0.00000000000E+00 0. -1.
<mgrwt>
<rscale>  0 0.91609574E+02</rscale>
<asrwt>0</asrwt>
<pdfrwt beam="1">  1        1 0.89930572E-01 0.91609574E+02</pdfrwt>
<pdfrwt beam="2">  1       -1 0.55218889E-03 0.91609574E+02</pdfrwt>
<totfact> 0.13958718E+05</totfact>
</mgrwt>
</event>
<event>
 7    1  0.2787125E-009  0.9045153E+02  0.7818608E-02  0.1301762E+00
          1   -1    0    0  501    0  0.00000000000E+00  0.00000000000E+00  0.15123836630E+02  0.15123837470E+02  0.50400000000E-02 0. -1.
         -1   -1    0    0    0  501 -0.00000000000E+00 -0.00000000000E+00 -0.13524147095E+03  0.13524147104E+03  0.50400000000E-02 0.  1.
         23    2    1    2    0    0 -0.71054273576E-14  0.00000000000E+00 -0.12011763432E+03  0.15036530851E+03  0.90451533596E+02 0.  0.
    9000005    2    3    3    0    0 -0.38071882670E+02 -0.23460332876E+02 -0.59494116715E+02  0.75032272232E+02  0.95098098767E+01 0.  0.
         22    1    3    3    0    0  0.38071882670E+02  0.23460332876E+02 -0.60623517603E+02  0.75333036280E+02  0.00000000000E+00 0.  1.
         22    1    4    4    0    0 -0.21379593582E+02 -0.18077952542E+02 -0.39788792856E+02  0.48652311628E+02  0.00000000000E+00 0. -1.
         22    1    4    4    0    0 -0.16692289088E+02 -0.53823803344E+01 -0.19705323859E+02  0.26379960604E+02  0.00000000000E+00 0. -1.
<mgrwt>
<rscale>  0 0.90451534E+02</rscale>
<asrwt>0</asrwt>
<pdfrwt beam="1">  1        1 0.23267443E-02 0.90451534E+02</pdfrwt>
<pdfrwt beam="2">  1       -1 0.20806379E-01 0.90451534E+02</pdfrwt>
<totfact> 0.78164965E+04</totfact>
</mgrwt>
</event>
<event>
 7    1  0.2787125E-009  0.9204969E+02  0.7818608E-02  0.1297963E+00
          1   -1    0    0  501    0  0.00000000000E+00  0.00000000000E+00  0.22651311653E+01  0.22651367724E+01  0.50400000000E-02 0. -1.
         -1   -1    0    0    0  501 -0.00000000000E+00 -0.00000000000E+00 -0.93517045903E+03  0.93517045904E+03  0.50400000000E-02 0.  1.
         23    2    1    2    0    0 -0.35527136788E-14  0.00000000000E+00 -0.93290532786E+03  0.93743559582E+03  0.92049690628E+02 0.  0.
    9000005    2    3    3    0    0  0.24765487960E+02 -0.27328352464E+02 -0.74424520104E+03  0.74520445449E+03  0.82819971687E+01 0.  0.
         22    1    3    3    0    0 -0.24765487960E+02  0.27328352464E+02 -0.18866012682E+03  0.19223114132E+03  0.00000000000E+00 0.  1.
         22    1    4    4    0    0 -0.13908351854E+00  0.73503108428E-01 -0.30379956698E+00  0.34211271384E+00  0.00000000000E+00 0.  1.
         22    1    4    4    0    0  0.24904571479E+02 -0.27401855572E+02 -0.74394140148E+03  0.74486234178E+03  0.00000000000E+00 0.  1.
<mgrwt>
<rscale>  0 0.92049691E+02</rscale>
<asrwt>0</asrwt>
<pdfrwt beam="1">  1        1 0.34848290E-03 0.92049691E+02</pdfrwt>
<pdfrwt beam="2">  1       -1 0.14387207E+00 0.92049691E+02</pdfrwt>
<totfact> 0.27049425E+04</totfact>
</mgrwt>
</event>
<event>
 7    1  0.2787125E-009  0.9162205E+02  0.7818608E-02  0.1298971E+00
         -1   -1    0    0    0  501 -0.00000000000E+00  0.00000000000E+00  0.83777025290E+01  0.83777040450E+01  0.50400000000E-02 0.  1.
          1   -1    0    0  501    0  0.00000000000E+00 -0.00000000000E+00 -0.25050421699E+03  0.25050421704E+03  0.50400000000E-02 0. -1.
         23    2    1    2    0    0  0.00000000000E+00  0.00000000000E+00 -0.24212651446E+03  0.25888192108E+03  0.91622050075E+02 0.  0.
    9000005    2    3    3    0    0 -0.11471653151E+02  0.23946825509E+02 -0.22644416094E+03  0.22804386845E+03  0.46902707292E+01 0.  0.
         22    1    3    3    0    0  0.11471653151E+02 -0.23946825509E+02 -0.15682353523E+02  0.30838052629E+02  0.00000000000E+00 0.  1.
         22    1    4    4    0    0 -0.43826781691E+01  0.10015812361E+02 -0.74515384371E+02  0.75313125504E+02  0.00000000000E+00 0. -1.
         22    1    4    4    0    0 -0.70889749821E+01  0.13931013148E+02 -0.15192877656E+03  0.15273074295E+03  0.00000000000E+00 0. -1.
<mgrwt>
<rscale>  0 0.91622050E+02</rscale>
<asrwt>0</asrwt>
<pdfrwt beam="2">  1        1 0.38539105E-01 0.91622050E+02</pdfrwt>
<pdfrwt beam="1">  1       -1 0.12888776E-02 0.91622050E+02</pdfrwt>
<totfact> 0.12211751E+05</totfact>
</mgrwt>
</event>
<event>
 7    1  0.2787125E-009  0.9024848E+02  0.7818608E-02  0.1302251E+00
          1   -1    0    0  501    0  0.00000000000E+00  0.00000000000E+00  0.91438438862E+01  0.91438452752E+01  0.50400000000E-02 0. -1.
         -1   -1    0    0    0  501 -0.00000000000E+00 -0.00000000000E+00 -0.22268501890E+03  0.22268501896E+03  0.50400000000E-02 0.  1.
         23    2    1    2    0    0 -0.35527136788E-14  0.00000000000E+00 -0.21354117502E+03  0.23182886424E+03  0.90248484004E+02 0.  0.
    9000005    2    3    3    0    0  0.19823115690E+02 -0.11193843656E+02 -0.20607634629E+03  0.20787094865E+03  0.14987085784E+02 0.  0.
         22    1    3    3    0    0 -0.19823115690E+02  0.11193843656E+02 -0.74648287299E+01  0.23957915590E+02  0.00000000000E+00 0. -1.
         22    1    4    4    0    0  0.22180971107E+02 -0.10258467893E+02 -0.19383938300E+03  0.19537384176E+03  0.00000000000E+00 0. -1.
         22    1    4    4    0    0 -0.23578554169E+01 -0.93537576285E+00 -0.12236963288E+02  0.12497106885E+02  0.00000000000E+00 0. -1.
<mgrwt>
<rscale>  0 0.90248484E+02</rscale>
<asrwt>0</asrwt>
<pdfrwt beam="1">  1        1 0.14067455E-02 0.90248484E+02</pdfrwt>
<pdfrwt beam="2">  1       -1 0.34259230E-01 0.90248484E+02</pdfrwt>
<totfact> 0.69056784E+04</totfact>
</mgrwt>
</event>
<event>
 7    1  0.2787125E-009  0.9961180E+02  0.7818608E-02  0.1281114E+00
          1   -1    0    0  501    0  0.00000000000E+00  0.00000000000E+00  0.40658224425E+02  0.40658224737E+02  0.50400000000E-02 0. -1.
         -1   -1    0    0    0  501 -0.00000000000E+00 -0.00000000000E+00 -0.61011711957E+02  0.61011712165E+02  0.50400000000E-02 0.  1.
         23    2    1    2    0    0  0.00000000000E+00  0.00000000000E+00 -0.20353487532E+02  0.10166993690E+03  0.99611804597E+02 0.  0.
    9000005    2    3    3    0    0 -0.40208674748E+02  0.13517449021E+02 -0.36357360976E+02  0.56331400113E+02  0.72048586697E+01 0.  0.
         22    1    3    3    0    0  0.40208674748E+02 -0.13517449021E+02  0.16003873444E+02  0.45338536790E+02  0.00000000000E+00 0. -1.
         22    1    4    4    0    0 -0.12533898473E+02  0.71516549397E+01 -0.97435814088E+01  0.17412126750E+02  0.00000000000E+00 0. -1.
         22    1    4    4    0    0 -0.27674776276E+02  0.63657940815E+01 -0.26613779567E+02  0.38919273362E+02  0.00000000000E+00 0. -1.
<mgrwt>
<rscale>  0 0.99611805E+02</rscale>
<asrwt>0</asrwt>
<pdfrwt beam="1">  1        1 0.62551115E-02 0.99611805E+02</pdfrwt>
<pdfrwt beam="2">  1       -1 0.93864172E-02 0.99611805E+02</pdfrwt>
<totfact> 0.70653328E+04</totfact>
</mgrwt>
</event>
<event>
 7    1  0.2787125E-009  0.9051589E+02  0.7818608E-02  0.1301607E+00
          1   -1    0    0  501    0  0.00000000000E+00  0.00000000000E+00  0.19686907468E+02  0.19686908113E+02  0.50400000000E-02 0. -1.
         -1   -1    0    0    0  501 -0.00000000000E+00 -0.00000000000E+00 -0.10404283344E+03  0.10404283356E+03  0.50400000000E-02 0.  1.
         23    2    1    2    0    0  0.00000000000E+00 -0.17763568394E-14 -0.84355925969E+02  0.12372974167E+03  0.90515892131E+02 0.  0.
    9000005    2    3    3    0    0  0.43044578920E+02 -0.11526288212E+02 -0.40194994527E+02  0.60993157767E+02  0.10901220803E+02 0.  0.
         22    1    3    3    0    0 -0.43044578920E+02  0.11526288212E+02 -0.44160931442E+02  0.62736583906E+02  0.00000000000E+00 0. -1.
         22    1    4    4    0    0  0.35143144460E+02 -0.10440928288E+02 -0.26833342933E+02  0.45432167888E+02  0.00000000000E+00 0. -1.
         22    1    4    4    0    0  0.79014344602E+01 -0.10853599240E+01 -0.13361651594E+02  0.15560989879E+02  0.00000000000E+00 0. -1.
<mgrwt>
<rscale>  0 0.90515892E+02</rscale>
<asrwt>0</asrwt>
<pdfrwt beam="1">  1        1 0.30287551E-02 0.90515892E+02</pdfrwt>
<pdfrwt beam="2">  1       -1 0.16006590E-01 0.90515892E+02</pdfrwt>
<totfact> 0.82295146E+04</totfact>
</mgrwt>
</event>
<event>
 7    1  0.2787125E-009  0.8882352E+02  0.7818608E-02  0.1305726E+00
          1   -1    0    0  501    0  0.00000000000E+00  0.00000000000E+00  0.10600783422E+03  0.10600783434E+03  0.50400000000E-02 0. -1.
         -1   -1    0    0    0  501 -0.00000000000E+00 -0.00000000000E+00 -0.18606213891E+02  0.18606214574E+02  0.50400000000E-02 0.  1.
         23    2    1    2    0    0 -0.17763568394E-14  0.00000000000E+00  0.87401620327E+02  0.12461404891E+03  0.88823521380E+02 0.  0.
    9000005    2    3    3    0    0 -0.10656092087E+02  0.26822208803E+02  0.90998882813E+02  0.95529285186E+02  0.34733947705E+01 0.  0.
         22    1    3    3    0    0  0.10656092087E+02 -0.26822208803E+02 -0.35972624861E+01  0.29084763726E+02  0.00000000000E+00 0.  1.
         22    1    4    4    0    0 -0.84620320269E+01  0.19468536712E+02  0.62060107495E+02  0.65590295395E+02  0.00000000000E+00 0.  1.
         22    1    4    4    0    0 -0.21940600597E+01  0.73536720907E+01  0.28938775319E+02  0.29938989791E+02  0.00000000000E+00 0.  1.
<mgrwt>
<rscale>  0 0.88823521E+02</rscale>
<asrwt>0</asrwt>
<pdfrwt beam="1">  1        1 0.16308897E-01 0.88823521E+02</pdfrwt>
<pdfrwt beam="2">  1       -1 0.28624945E-02 0.88823521E+02</pdfrwt>
<totfact> 0.11323697E+05</totfact>
</mgrwt>
</event>
<event>
 7    1  0.2787125E-009  0.9180389E+02  0.7818608E-02  0.1298541E+00
         -1   -1    0    0    0  501 -0.00000000000E+00  0.00000000000E+00  0.53864287833E+01  0.53864311413E+01  0.50400000000E-02 0.  1.
          1   -1    0    0  501    0  0.00000000000E+00 -0.00000000000E+00 -0.39116603833E+03  0.39116603836E+03  0.50400000000E-02 0. -1.
         23    2    1    2    0    0  0.00000000000E+00  0.00000000000E+00 -0.38577960954E+03  0.39655246950E+03  0.91803888412E+02 0.  0.
    9000005    2    3    3    0    0  0.24639189776E+02  0.37197683888E+02 -0.15505483253E+03  0.16155315016E+03  0.81646725848E+01 0.  0.
         22    1    3    3    0    0 -0.24639189776E+02 -0.37197683888E+02 -0.23072477702E+03  0.23499931934E+03  0.00000000000E+00 0.  1.
         22    1    4    4    0    0  0.27046951921E+01  0.96678561820E+01 -0.29749155956E+02  0.31397374084E+02  0.00000000000E+00 0.  1.
         22    1    4    4    0    0  0.21934494584E+02  0.27529827706E+02 -0.12530567657E+03  0.13015577608E+03  0.00000000000E+00 0.  1.
<mgrwt>
<rscale>  0 0.91803888E+02</rscale>
<asrwt>0</asrwt>
<pdfrwt beam="2">  1        1 0.60179368E-01 0.91803888E+02</pdfrwt>
<pdfrwt beam="1">  1       -1 0.82868184E-03 0.91803888E+02</pdfrwt>
<totfact> 0.13196791E+05</totfact>
</mgrwt>
</event>
<event>
 7    1  0.2787125E-009  0.9144508E+02  0.7818608E-02  0.1299389E+00
          1   -1    0    0  501    0  0.00000000000E+00  0.00000000000E+00  0.66598701666E+02  0.66598701856E+02  0.50400000000E-02 0. -1.
         -1   -1    0    0    0  501 -0.00000000000E+00 -0.00000000000E+00 -0.31390261968E+02  0.31390262373E+02  0.50400000000E-02 0.  1.
         23    2    1    2    0    0  0.00000000000E+00  0.00000000000E+00  0.35208439697E+02  0.97988964229E+02  0.91445081250E+02 0.  0.
    9000005    2    3    3    0    0 -0.43362432547E+02 -0.10784041741E+02  0.22978963940E+02  0.51662339164E+02  0.12015339839E+02 0.  0.
         22    1    3    3    0    0  0.43362432547E+02  0.10784041741E+02  0.12229475757E+02  0.46326625065E+02  0.00000000000E+00 0.  1.
         22    1    4    4    0    0 -0.96100134264E+01 -0.44816712466E+01  0.48547709630E+00  0.10614773819E+02  0.00000000000E+00 0.  1.
         22    1    4    4    0    0 -0.33752419121E+02 -0.63023704946E+01  0.22493486844E+02  0.41047565345E+02  0.00000000000E+00 0.  1.
<mgrwt>
<rscale>  0 0.91445081E+02</rscale>
<asrwt>0</asrwt>
<pdfrwt beam="1">  1        1 0.10245954E-01 0.91445081E+02</pdfrwt>
<pdfrwt beam="2">  1       -1 0.48292712E-02 0.91445081E+02</pdfrwt>
<totfact> 0.97121689E+04</totfact>
</mgrwt>
</event>
<event>
 7    1  0.2787125E-009  0.9010723E+02  0.7818608E-02  0.1302592E+00
         -1   -1    0    0    0  501 -0.00000000000E+00  0.00000000000E+00  0.52000790031E+02  0.52000790275E+02  0.50400000000E-02 0.  1.
          1   -1    0    0  501    0  0.00000000000E+00 -0.00000000000E+00 -0.39034566461E+02  0.39034566786E+02  0.50400000000E-02 0. -1.
         23    2    1    2    0    0  0.00000000000E+00  0.00000000000E+00  0.12966223570E+02  0.91035357061E+02  0.90107232127E+02 0.  0.
    9000005    2    3    3    0    0  0.10320084121E+02  0.21399880688E+01 -0.36841714597E+02  0.40124509596E+02  0.11898766769E+02 0.  0.
         22    1    3    3    0    0 -0.10320084121E+02 -0.21399880688E+01  0.49807938167E+02  0.50910847466E+02  0.00000000000E+00 0.  1.
         22    1    4    4    0    0 -0.12934504722E+01  0.25093628029E+01 -0.21792512768E+01  0.35663779845E+01  0.00000000000E+00 0.  1.
         22    1    4    4    0    0  0.11613534593E+02 -0.36937473413E+00 -0.34662463320E+02  0.36558131611E+02  0.00000000000E+00 0.  1.
<mgrwt>
<rscale>  0 0.90107232E+02</rscale>
<asrwt>0</asrwt>
<pdfrwt beam="2">  1        1 0.60053180E-02 0.90107232E+02</pdfrwt>
<pdfrwt beam="1">  1       -1 0.80001215E-02 0.90107232E+02</pdfrwt>
<totfact> 0.93387194E+04</totfact>
</mgrwt>
</event>
<event>
 7    1  0.2787125E-009  0.1081337E+03  0.7818608E-02  0.1264065E+00
         -1   -1    0    0    0  501 -0.00000000000E+00  0.00000000000E+00  0.97811618499E+02  0.97811618628E+02  0.50400000000E-02 0.  1.
          1   -1    0    0  501    0  0.00000000000E+00 -0.00000000000E+00 -0.29886294300E+02  0.29886294725E+02  0.50400000000E-02 0. -1.
         23    2    1    2    0    0 -0.17763568394E-14  0.00000000000E+00  0.67925324199E+02  0.12769791335E+03  0.10813374777E+03 0.  0.
    9000005    2    3    3    0    0  0.15510155927E+02 -0.40075104680E+02  0.71245402867E+02  0.84598007618E+02  0.15308053804E+02 0.  0.
         22    1    3    3    0    0 -0.15510155927E+02  0.40075104680E+02 -0.33200786684E+01  0.43099905735E+02  0.00000000000E+00 0. -1.
         22    1    4    4    0    0  0.19605518607E-01  0.11517826546E+01  0.48160493493E+00  0.12485715731E+01  0.00000000000E+00 0. -1.
         22    1    4    4    0    0  0.15490550409E+02 -0.41226887335E+02  0.70763797932E+02  0.83349436045E+02  0.00000000000E+00 0. -1.
<mgrwt>
<rscale>  0 0.10813375E+03</rscale>
<asrwt>0</asrwt>
<pdfrwt beam="2">  1        1 0.45978914E-02 0.10813375E+03</pdfrwt>
<pdfrwt beam="1">  1       -1 0.15047942E-01 0.10813375E+03</pdfrwt>
<totfact> 0.52616505E+04</totfact>
</mgrwt>
</event>
<event>
 7    1  0.4113197E-009  0.9188235E+02  0.7818608E-02  0.1298356E+00
         -1   -1    0    0    0  501 -0.00000000000E+00  0.00000000000E+00  0.27557632799E+02  0.27557633260E+02  0.50400000000E-02 0.  1.
          1   -1    0    0  501    0  0.00000000000E+00 -0.00000000000E+00 -0.76588266627E+02  0.76588266793E+02  0.50400000000E-02 0. -1.
         23    2    1    2    0    0 -0.44408920985E-15  0.00000000000E+00 -0.49030633828E+02  0.10414590005E+03  0.91882345662E+02 0.  0.
    9000005    2    3    3    0    0  0.21467840140E+01  0.39307090692E+02 -0.49015203367E+02  0.64780225940E+02  0.15631105254E+02 0.  0.
         22    1    3    3    0    0 -0.21467840140E+01 -0.39307090692E+02 -0.15430461170E-01  0.39365674113E+02  0.00000000000E+00 0.  1.
         22    1    4    4    0    0  0.31261326033E+01  0.53695079463E+00 -0.65054159759E+01  0.72375035909E+01  0.00000000000E+00 0.  1.
         22    1    4    4    0    0 -0.97934858931E+00  0.38770139898E+02 -0.42509787391E+02  0.57542722349E+02  0.00000000000E+00 0.  1.
<mgrwt>
<rscale>  0 0.91882346E+02</rscale>
<asrwt>0</asrwt>
<pdfrwt beam="2">  1        1 0.11782810E-01 0.91882346E+02</pdfrwt>
<pdfrwt beam="1">  1       -1 0.42396359E-02 0.91882346E+02</pdfrwt>
<totfact> 0.97955614E+04</totfact>
</mgrwt>
</event>
<event>
 7    1  0.2787125E-009  0.8973155E+02  0.7818608E-02  0.1303503E+00
         -1   -1    0    0    0  501 -0.00000000000E+00  0.00000000000E+00  0.14743008512E+02  0.14743009373E+02  0.50400000000E-02 0.  1.
          1   -1    0    0  501    0  0.00000000000E+00 -0.00000000000E+00 -0.13653507916E+03  0.13653507925E+03  0.50400000000E-02 0. -1.
         23    2    1    2    0    0  0.00000000000E+00  0.00000000000E+00 -0.12179207065E+03  0.15127808862E+03  0.89731553121E+02 0.  0.
    9000005    2    3    3    0    0  0.12324844442E+02 -0.67469980164E+01 -0.13271617558E+03  0.13348034041E+03  0.24483144863E+01 0.  0.
         22    1    3    3    0    0 -0.12324844442E+02  0.67469980164E+01  0.10924104933E+02  0.17797748210E+02  0.00000000000E+00 0.  1.
         22    1    4    4    0    0  0.87253934757E+01 -0.38642997333E+01 -0.81430334647E+02  0.81987588722E+02  0.00000000000E+00 0. -1.
         22    1    4    4    0    0  0.35994509665E+01 -0.28826982831E+01 -0.51285840933E+02  0.51492751693E+02  0.00000000000E+00 0. -1.
<mgrwt>
<rscale>  0 0.89731553E+02</rscale>
<asrwt>0</asrwt>
<pdfrwt beam="2">  1        1 0.21005396E-01 0.89731553E+02</pdfrwt>
<pdfrwt beam="1">  1       -1 0.22681553E-02 0.89731553E+02</pdfrwt>
<totfact> 0.11508818E+05</totfact>
</mgrwt>
</event>
<event>
 7    1  0.2787125E-009  0.1021142E+03  0.7818608E-02  0.1275912E+00
         -1   -1    0    0    0  501 -0.00000000000E+00  0.00000000000E+00  0.19047599940E+03  0.19047599946E+03  0.50400000000E-02 0.  1.
          1   -1    0    0  501    0  0.00000000000E+00 -0.00000000000E+00 -0.13685860709E+02  0.13685861637E+02  0.50400000000E-02 0. -1.
         23    2    1    2    0    0  0.00000000000E+00 -0.35527136788E-14  0.17679013869E+03  0.20416186110E+03  0.10211421248E+03 0.  0.
    9000005    2    3    3    0    0 -0.47901979196E+02 -0.17350030569E+02  0.84196267873E+02  0.98477197672E+02  0.36226738508E+01 0.  0.
         22    1    3    3    0    0  0.47901979196E+02  0.17350030569E+02  0.92593870814E+02  0.10568466343E+03  0.00000000000E+00 0.  1.
         22    1    4    4    0    0 -0.20849415519E+02 -0.94502031929E+01  0.37268766839E+02  0.43737460484E+02  0.00000000000E+00 0. -1.
         22    1    4    4    0    0 -0.27052563677E+02 -0.78998273758E+01  0.46927501034E+02  0.54739737188E+02  0.00000000000E+00 0. -1.
<mgrwt>
<rscale>  0 0.10211421E+03</rscale>
<asrwt>0</asrwt>
<pdfrwt beam="2">  1        1 0.21055173E-02 0.10211421E+03</pdfrwt>
<pdfrwt beam="1">  1       -1 0.29303997E-01 0.10211421E+03</pdfrwt>
<totfact> 0.52347497E+04</totfact>
</mgrwt>
</event>
<event>
 6    1  0.2787125E-009  0.1339058E+03  0.7818608E-02  0.1221773E+00
          1   -1    0    0  501    0  0.00000000000E+00  0.00000000000E+00  0.41703805376E+02  0.41703805681E+02  0.50400000000E-02 0. -1.
         -1   -1    0    0    0  501 -0.00000000000E+00 -0.00000000000E+00 -0.10748874548E+03  0.10748874560E+03  0.50400000000E-02 0.  1.
    9000005    2    1    2    0    0  0.39605255286E+01 -0.50998188503E+02 -0.80083068615E+02  0.96080053011E+02  0.14197806687E+02 0.  0.
         22    1    1    2    0    0 -0.39605255286E+01  0.50998188503E+02  0.14298128513E+02  0.53112498266E+02  0.00000000000E+00 0. -1.
         22    1    3    3    0    0  0.80044429417E+01 -0.19904368353E+02 -0.37420873075E+02  0.43134403068E+02  0.00000000000E+00 0. -1.
         22    1    3    3    0    0 -0.40439174132E+01 -0.31093820151E+02 -0.42662195540E+02  0.52945649943E+02  0.00000000000E+00 0. -1.
<mgrwt>
<rscale>  0 0.13390578E+03</rscale>
<asrwt>0</asrwt>
<pdfrwt beam="1">  1        1 0.64159701E-02 0.13390578E+03</pdfrwt>
<pdfrwt beam="2">  1       -1 0.16536730E-01 0.13390578E+03</pdfrwt>
<totfact> 0.29652701E+04</totfact>
</mgrwt>
</event>
<event>
 7    1  0.2787125E-009  0.7469249E+02  0.7818608E-02  0.1344826E+00
         -1   -1    0    0    0  501 -0.00000000000E+00  0.00000000000E+00  0.21670028527E+01  0.21670087137E+01  0.50400000000E-02 0.  1.
          1   -1    0    0  501    0  0.00000000000E+00 -0.00000000000E+00 -0.64362636135E+03  0.64362636137E+03  0.50400000000E-02 0. -1.
         23    2    1    2    0    0  0.00000000000E+00  0.35527136788E-14 -0.64145935849E+03  0.64579337008E+03  0.74692491189E+02 0.  0.
    9000005    2    3    3    0    0  0.88247740095E+01  0.26597944233E+02 -0.53038373164E+03  0.53123717359E+03  0.10986561778E+02 0.  0.
         22    1    3    3    0    0 -0.88247740095E+01 -0.26597944233E+02 -0.11107562685E+03  0.11455619649E+03  0.00000000000E+00 0.  1.
         22    1    4    4    0    0  0.69287587268E+01  0.16488881548E+02 -0.23731997444E+03  0.23799298557E+03  0.00000000000E+00 0. -1.
         22    1    4    4    0    0  0.18960152826E+01  0.10109062685E+02 -0.29306375720E+03  0.29324418802E+03  0.00000000000E+00 0. -1.
<mgrwt>
<rscale>  0 0.74692491E+02</rscale>
<asrwt>0</asrwt>
<pdfrwt beam="2">  1        1 0.99019288E-01 0.74692491E+02</pdfrwt>
<pdfrwt beam="1">  1       -1 0.33338602E-03 0.74692491E+02</pdfrwt>
<totfact> 0.23949966E+05</totfact>
</mgrwt>
</event>
<event>
 7    1  0.4761458E-009  0.9182964E+02  0.7818608E-02  0.1298480E+00
         -1   -1    0    0    0  501 -0.00000000000E+00  0.00000000000E+00  0.30530167606E+02  0.30530168022E+02  0.50400000000E-02 0.  1.
          1   -1    0    0  501    0  0.00000000000E+00 -0.00000000000E+00 -0.69052054603E+02  0.69052054787E+02  0.50400000000E-02 0. -1.
         23    2    1    2    0    0  0.00000000000E+00  0.00000000000E+00 -0.38521886997E+02  0.99582222809E+02  0.91829642936E+02 0.  0.
    9000005    2    3    3    0    0  0.33555228926E+01  0.22487983250E+02  0.22318721361E+02  0.34631868307E+02  0.13574684332E+02 0.  0.
         22    1    3    3    0    0 -0.33555228926E+01 -0.22487983250E+02 -0.60840608358E+02  0.64950354502E+02  0.00000000000E+00 0. -1.
         22    1    4    4    0    0  0.62843206876E+00  0.47887410497E+01  0.14144543939E+02  0.14946407293E+02  0.00000000000E+00 0.  1.
         22    1    4    4    0    0  0.27270908238E+01  0.17699242200E+02  0.81741774220E+01  0.19685461014E+02  0.00000000000E+00 0.  1.
<mgrwt>
<rscale>  0 0.91829643E+02</rscale>
<asrwt>0</asrwt>
<pdfrwt beam="2">  1        1 0.10623393E-01 0.91829643E+02</pdfrwt>
<pdfrwt beam="1">  1       -1 0.46969489E-02 0.91829643E+02</pdfrwt>
<totfact> 0.96537685E+04</totfact>
</mgrwt>
</event>
<event>
 7    1  0.2787125E-009  0.9082690E+02  0.7818608E-02  0.1300862E+00
         -1   -1    0    0    0  501 -0.00000000000E+00  0.00000000000E+00  0.10457634903E+03  0.10457634915E+03  0.50400000000E-02 0.  1.
          1   -1    0    0  501    0  0.00000000000E+00 -0.00000000000E+00 -0.19721297146E+02  0.19721297790E+02  0.50400000000E-02 0. -1.
         23    2    1    2    0    0  0.71054273576E-14 -0.17763568394E-14  0.84855051882E+02  0.12429764694E+03  0.90826896924E+02 0.  0.
    9000005    2    3    3    0    0  0.40811236933E+02 -0.15376905521E+02  0.55710405386E+02  0.71843698540E+02  0.12484449054E+02 0.  0.
         22    1    3    3    0    0 -0.40811236933E+02  0.15376905521E+02  0.29144646496E+02  0.52453948400E+02  0.00000000000E+00 0. -1.
         22    1    4    4    0    0  0.19823004460E+02 -0.39165594247E+01  0.33968854726E+02  0.39524347370E+02  0.00000000000E+00 0.  1.
         22    1    4    4    0    0  0.20988232473E+02 -0.11460346096E+02  0.21741550659E+02  0.32319351170E+02  0.00000000000E+00 0.  1.
<mgrwt>
<rscale>  0 0.90826897E+02</rscale>
<asrwt>0</asrwt>
<pdfrwt beam="2">  1        1 0.30340458E-02 0.90826897E+02</pdfrwt>
<pdfrwt beam="1">  1       -1 0.16088669E-01 0.90826897E+02</pdfrwt>
<totfact> 0.81492613E+04</totfact>
</mgrwt>
</event>
<event>
 7    1  0.2787125E-009  0.9232181E+02  0.7818608E-02  0.1297325E+00
         -1   -1    0    0    0  501 -0.00000000000E+00  0.00000000000E+00  0.11276235067E+03  0.11276235078E+03  0.50400000000E-02 0.  1.
          1   -1    0    0  501    0  0.00000000000E+00 -0.00000000000E+00 -0.18896635255E+02  0.18896635927E+02  0.50400000000E-02 0. -1.
         23    2    1    2    0    0  0.17763568394E-14  0.35527136788E-14  0.93865715411E+02  0.13165898671E+03  0.92321808101E+02 0.  0.
    9000005    2    3    3    0    0 -0.10986909090E+02 -0.21856662300E+02  0.10251942108E+03  0.10571072125E+03  0.81301311076E+01 0.  0.
         22    1    3    3    0    0  0.10986909090E+02  0.21856662300E+02 -0.86537056661E+01  0.25948265452E+02  0.00000000000E+00 0. -1.
         22    1    4    4    0    0 -0.10550184755E+02 -0.21439391914E+02  0.88224461683E+02  0.91403006314E+02  0.00000000000E+00 0. -1.
         22    1    4    4    0    0 -0.43672433456E+00 -0.41727038548E+00  0.14294959394E+02  0.14307714940E+02  0.00000000000E+00 0. -1.
<mgrwt>
<rscale>  0 0.92321808E+02</rscale>
<asrwt>0</asrwt>
<pdfrwt beam="2">  1        1 0.29071747E-02 0.92321808E+02</pdfrwt>
<pdfrwt beam="1">  1       -1 0.17348054E-01 0.92321808E+02</pdfrwt>
<totfact> 0.76994763E+04</totfact>
</mgrwt>
</event>
<event>
 7    1  0.2787125E-009  0.9033334E+02  0.7818608E-02  0.1302046E+00
          1   -1    0    0  501    0  0.00000000000E+00  0.00000000000E+00  0.61449504277E+03  0.61449504279E+03  0.50400000000E-02 0. -1.
         -1   -1    0    0    0  501 -0.00000000000E+00 -0.00000000000E+00 -0.33198427744E+01  0.33198466001E+01  0.50400000000E-02 0.  1.
         23    2    1    2    0    0  0.00000000000E+00 -0.17763568394E-14  0.61117519999E+03  0.61781488939E+03  0.90333340817E+02 0.  0.
    9000005    2    3    3    0    0  0.22039291045E+02 -0.99161342745E+01  0.56625293939E+03  0.56680440452E+03  0.63860432253E+01 0.  0.
         22    1    3    3    0    0 -0.22039291045E+02  0.99161342745E+01  0.44922260607E+02  0.51010484871E+02  0.00000000000E+00 0.  1.
         22    1    4    4    0    0  0.11066430487E+01 -0.24028323634E+01  0.78755948315E+02  0.78800365845E+02  0.00000000000E+00 0.  1.
         22    1    4    4    0    0  0.20932647996E+02 -0.75133019111E+01  0.48749699107E+03  0.48800403867E+03  0.00000000000E+00 0.  1.
<mgrwt>
<rscale>  0 0.90333341E+02</rscale>
<asrwt>0</asrwt>
<pdfrwt beam="1">  1        1 0.94537627E-01 0.90333341E+02</pdfrwt>
<pdfrwt beam="2">  1       -1 0.51074573E-03 0.90333341E+02</pdfrwt>
<totfact> 0.14530179E+05</totfact>
</mgrwt>
</event>
<event>
 7    1  0.2787125E-009  0.9322512E+02  0.7818608E-02  0.1295224E+00
         -1   -1    0    0    0  501 -0.00000000000E+00  0.00000000000E+00  0.42764056496E+02  0.42764056793E+02  0.50400000000E-02 0.  1.
          1   -1    0    0  501    0  0.00000000000E+00 -0.00000000000E+00 -0.50807404234E+02  0.50807404484E+02  0.50400000000E-02 0. -1.
         23    2    1    2    0    0  0.00000000000E+00  0.19428902931E-15 -0.80433477381E+01  0.93571461277E+02  0.93225119590E+02 0.  0.
    9000005    2    3    3    0    0 -0.44912815023E+02 -0.14563749323E+00 -0.99015157244E+01  0.48619987977E+02  0.15769624399E+02 0.  0.
         22    1    3    3    0    0  0.44912815023E+02  0.14563749323E+00  0.18581679863E+01  0.44951473300E+02  0.00000000000E+00 0. -1.
         22    1    4    4    0    0 -0.61216580914E+01  0.23964664083E+01  0.35659714759E+01  0.74788970846E+01  0.00000000000E+00 0. -1.
         22    1    4    4    0    0 -0.38791156931E+02 -0.25421039016E+01 -0.13467487200E+02  0.41141090892E+02  0.00000000000E+00 0. -1.
<mgrwt>
<rscale>  0 0.93225120E+02</rscale>
<asrwt>0</asrwt>
<pdfrwt beam="2">  1        1 0.78165237E-02 0.93225120E+02</pdfrwt>
<pdfrwt beam="1">  1       -1 0.65790857E-02 0.93225120E+02</pdfrwt>
<totfact> 0.88319420E+04</totfact>
</mgrwt>
</event>
<event>
 7    1  0.2787125E-009  0.9370696E+02  0.7818608E-02  0.1294115E+00
         -1   -1    0    0    0  501 -0.00000000000E+00  0.00000000000E+00  0.70863312165E+01  0.70863330088E+01  0.50400000000E-02 0.  1.
          1   -1    0    0  501    0  0.00000000000E+00 -0.00000000000E+00 -0.30978627566E+03  0.30978627571E+03  0.50400000000E-02 0. -1.
         23    2    1    2    0    0  0.00000000000E+00  0.00000000000E+00 -0.30269994445E+03  0.31687260871E+03  0.93706956970E+02 0.  0.
    9000005    2    3    3    0    0  0.18028011233E+02  0.20783646611E+02 -0.27911225138E+03  0.28063245943E+03  0.96932587045E+01 0.  0.
         22    1    3    3    0    0 -0.18028011233E+02 -0.20783646611E+02 -0.23587693073E+02  0.36240149282E+02  0.00000000000E+00 0.  1.
         22    1    4    4    0    0  0.37362713547E+01  0.54231694083E+00 -0.21280132599E+02  0.21612447218E+02  0.00000000000E+00 0. -1.
         22    1    4    4    0    0  0.14291739878E+02  0.20241329670E+02 -0.25783211878E+03  0.25902001222E+03  0.00000000000E+00 0. -1.
<mgrwt>
<rscale>  0 0.93706957E+02</rscale>
<asrwt>0</asrwt>
<pdfrwt beam="2">  1        1 0.47659417E-01 0.93706957E+02</pdfrwt>
<pdfrwt beam="1">  1       -1 0.10902052E-02 0.93706957E+02</pdfrwt>
<totfact> 0.11982413E+05</totfact>
</mgrwt>
</event>
<event>
 7    1  0.2787125E-009  0.9463139E+02  0.7818608E-02  0.1292008E+00
         -1   -1    0    0    0  501 -0.00000000000E+00  0.00000000000E+00  0.14526008862E+02  0.14526009737E+02  0.50400000000E-02 0.  1.
          1   -1    0    0  501    0  0.00000000000E+00 -0.00000000000E+00 -0.15412181774E+03  0.15412181783E+03  0.50400000000E-02 0. -1.
         23    2    1    2    0    0  0.00000000000E+00  0.88817841970E-15 -0.13959580888E+03  0.16864782756E+03  0.94631389530E+02 0.  0.
    9000005    2    3    3    0    0 -0.69398864479E+01 -0.73936749297E+01 -0.15186739590E+03  0.15272864729E+03  0.12629541279E+02 0.  0.
         22    1    3    3    0    0  0.69398864479E+01  0.73936749297E+01  0.12271587013E+02  0.15919180277E+02  0.00000000000E+00 0.  1.
         22    1    4    4    0    0  0.98389924685E+00 -0.43490176691E+01 -0.16393809695E+02  0.16989379292E+02  0.00000000000E+00 0.  1.
         22    1    4    4    0    0 -0.79237856948E+01 -0.30446572606E+01 -0.13547358620E+03  0.13573926799E+03  0.00000000000E+00 0.  1.
<mgrwt>
<rscale>  0 0.94631390E+02</rscale>
<asrwt>0</asrwt>
<pdfrwt beam="2">  1        1 0.23711048E-01 0.94631390E+02</pdfrwt>
<pdfrwt beam="1">  1       -1 0.22347708E-02 0.94631390E+02</pdfrwt>
<totfact> 0.10191304E+05</totfact>
</mgrwt>
</event>
<event>
 7    1  0.2787125E-009  0.8989290E+02  0.7818608E-02  0.1303111E+00
         -1   -1    0    0    0  501 -0.00000000000E+00  0.00000000000E+00  0.58625091475E+01  0.58625113139E+01  0.50400000000E-02 0. -1.
          1   -1    0    0  501    0  0.00000000000E+00 -0.00000000000E+00 -0.34459356967E+03  0.34459356971E+03  0.50400000000E-02 0.  1.
         23    2    1    2    0    0  0.35527136788E-14  0.35527136788E-14 -0.33873106052E+03  0.35045608102E+03  0.89892899396E+02 0.  0.
    9000005    2    3    3    0    0 -0.31969505576E+02 -0.23335512834E+02 -0.24658754175E+03  0.25017136883E+03  0.14618570164E+02 0.  0.
         22    1    3    3    0    0  0.31969505576E+02  0.23335512834E+02 -0.92143518778E+02  0.10028471219E+03  0.00000000000E+00 0. -1.
         22    1    4    4    0    0 -0.26898355709E+02 -0.12359857577E+02 -0.15637391014E+03  0.15915114637E+03  0.00000000000E+00 0. -1.
         22    1    4    4    0    0 -0.50711498667E+01 -0.10975655257E+02 -0.90213631608E+02  0.91020222463E+02  0.00000000000E+00 0. -1.
<mgrwt>
<rscale>  0 0.89892899E+02</rscale>
<asrwt>0</asrwt>
<pdfrwt beam="2">  1        1 0.53014380E-01 0.89892899E+02</pdfrwt>
<pdfrwt beam="1">  1       -1 0.90192492E-03 0.89892899E+02</pdfrwt>
<totfact> 0.13651238E+05</totfact>
</mgrwt>
</event>
<event>
 7    1  0.2787125E-009  0.9195851E+02  0.7818608E-02  0.1298177E+00
         -1   -1    0    0    0  501 -0.00000000000E+00  0.00000000000E+00  0.20266396149E+03  0.20266396155E+03  0.50400000000E-02 0.  1.
          1   -1    0    0  501    0  0.00000000000E+00 -0.00000000000E+00 -0.10431513236E+02  0.10431514453E+02  0.50400000000E-02 0. -1.
         23    2    1    2    0    0 -0.17763568394E-14  0.71054273576E-14  0.19223244825E+03  0.21309547601E+03  0.91958510929E+02 0.  0.
    9000005    2    3    3    0    0  0.95844563973E+01 -0.40024197514E+02  0.14044538639E+03  0.14694641730E+03  0.13211540721E+02 0.  0.
         22    1    3    3    0    0 -0.95844563973E+01  0.40024197514E+02  0.51787061867E+02  0.66149058708E+02  0.00000000000E+00 0. -1.
         22    1    4    4    0    0  0.10258577111E+02 -0.40808335600E+02  0.13507046173E+03  0.14147292424E+03  0.00000000000E+00 0.  1.
         22    1    4    4    0    0 -0.67412071381E+00  0.78413808617E+00  0.53749246535E+01  0.54734930625E+01  0.00000000000E+00 0.  1.
<mgrwt>
<rscale>  0 0.91958511E+02</rscale>
<asrwt>0</asrwt>
<pdfrwt beam="2">  1        1 0.16048485E-02 0.91958511E+02</pdfrwt>
<pdfrwt beam="1">  1       -1 0.31179067E-01 0.91958511E+02</pdfrwt>
<totfact> 0.67637888E+04</totfact>
</mgrwt>
</event>
<event>
 7    1  0.2787125E-009  0.9200916E+02  0.7818608E-02  0.1298058E+00
         -1   -1    0    0    0  501 -0.00000000000E+00  0.00000000000E+00  0.17715913331E+03  0.17715913338E+03  0.50400000000E-02 0.  1.
          1   -1    0    0  501    0  0.00000000000E+00 -0.00000000000E+00 -0.11946441345E+02  0.11946442408E+02  0.50400000000E-02 0. -1.
         23    2    1    2    0    0  0.35527136788E-14  0.00000000000E+00  0.16521269196E+03  0.18910557579E+03  0.92009158286E+02 0.  0.
    9000005    2    3    3    0    0  0.29130932909E+02  0.34847587429E+02  0.97427193423E+02  0.10750999126E+03  0.18370087660E+01 0.  0.
         22    1    3    3    0    0 -0.29130932909E+02 -0.34847587429E+02  0.67785498538E+02  0.81595584524E+02  0.00000000000E+00 0. -1.
         22    1    4    4    0    0  0.68284422138E+01  0.79988951954E+01  0.24416243374E+02  0.26585012468E+02  0.00000000000E+00 0. -1.
         22    1    4    4    0    0  0.22302490695E+02  0.26848692233E+02  0.73010950049E+02  0.80924978795E+02  0.00000000000E+00 0. -1.
<mgrwt>
<rscale>  0 0.92009158E+02</rscale>
<asrwt>0</asrwt>
<pdfrwt beam="2">  1        1 0.18379143E-02 0.92009158E+02</pdfrwt>
<pdfrwt beam="1">  1       -1 0.27255250E-01 0.92009158E+02</pdfrwt>
<totfact> 0.70091353E+04</totfact>
</mgrwt>
</event>
<event>
 7    1  0.2787125E-009  0.9926294E+02  0.7818608E-02  0.1281854E+00
          1   -1    0    0  501    0  0.00000000000E+00  0.00000000000E+00  0.19516395663E+02  0.19516396314E+02  0.50400000000E-02 0. -1.
         -1   -1    0    0    0  501 -0.00000000000E+00 -0.00000000000E+00 -0.12621606878E+03  0.12621606888E+03  0.50400000000E-02 0.  1.
         23    2    1    2    0    0  0.00000000000E+00  0.71054273576E-14 -0.10669967312E+03  0.14573246519E+03  0.99262939551E+02 0.  0.
    9000005    2    3    3    0    0 -0.64711814009E+01  0.41671301445E+02 -0.15527723731E+02  0.45279999283E+02  0.55492862607E+01 0.  0.
         22    1    3    3    0    0  0.64711814009E+01 -0.41671301445E+02 -0.91171949385E+02  0.10045246591E+03  0.00000000000E+00 0.  1.
         22    1    4    4    0    0 -0.45967795618E+01  0.32856916773E+02 -0.97676068253E+01  0.34584873938E+02  0.00000000000E+00 0. -1.
         22    1    4    4    0    0 -0.18744018391E+01  0.88143846712E+01 -0.57601169058E+01  0.10695125345E+02  0.00000000000E+00 0. -1.
<mgrwt>
<rscale>  0 0.99262940E+02</rscale>
<asrwt>0</asrwt>
<pdfrwt beam="1">  1        1 0.30025226E-02 0.99262940E+02</pdfrwt>
<pdfrwt beam="2">  1       -1 0.19417856E-01 0.99262940E+02</pdfrwt>
<totfact> 0.62339607E+04</totfact>
</mgrwt>
</event>
<event>
 7    1  0.2787125E-009  0.9174213E+02  0.7818608E-02  0.1298687E+00
          1   -1    0    0  501    0  0.00000000000E+00  0.00000000000E+00  0.22309327209E+02  0.22309327779E+02  0.50400000000E-02 0. -1.
         -1   -1    0    0    0  501 -0.00000000000E+00 -0.00000000000E+00 -0.94317266486E+02  0.94317266620E+02  0.50400000000E-02 0.  1.
         23    2    1    2    0    0  0.00000000000E+00 -0.17763568394E-14 -0.72007939276E+02  0.11662659440E+03  0.91742134281E+02 0.  0.
    9000005    2    3    3    0    0  0.40461914241E+02 -0.11160144503E+02 -0.13312011950E+02  0.44467553288E+02  0.61998632171E+01 0.  0.
         22    1    3    3    0    0 -0.40461914241E+02  0.11160144503E+02 -0.58695927326E+02  0.72159041111E+02  0.00000000000E+00 0.  1.
         22    1    4    4    0    0  0.21727022011E+02 -0.91602872259E+01 -0.69759662604E+01  0.24589397162E+02  0.00000000000E+00 0. -1.
         22    1    4    4    0    0  0.18734892230E+02 -0.19998572775E+01 -0.63360456898E+01  0.19878156126E+02  0.00000000000E+00 0. -1.
<mgrwt>
<rscale>  0 0.91742134E+02</rscale>
<asrwt>0</asrwt>
<pdfrwt beam="1">  1        1 0.34322043E-02 0.91742134E+02</pdfrwt>
<pdfrwt beam="2">  1       -1 0.14510348E-01 0.91742134E+02</pdfrwt>
<totfact> 0.80950332E+04</totfact>
</mgrwt>
</event>
<event>
 7    1  0.2787125E-009  0.8973312E+02  0.7818608E-02  0.1303499E+00
         -1   -1    0    0    0  501 -0.00000000000E+00  0.00000000000E+00  0.10379799796E+02  0.10379801020E+02  0.50400000000E-02 0.  1.
          1   -1    0    0  501    0  0.00000000000E+00 -0.00000000000E+00 -0.19393517441E+03  0.19393517447E+03  0.50400000000E-02 0. -1.
         23    2    1    2    0    0  0.00000000000E+00  0.00000000000E+00 -0.18355537461E+03  0.20431497549E+03  0.89733124665E+02 0.  0.
    9000005    2    3    3    0    0  0.37285797152E+02 -0.13673690472E+02 -0.51737758701E+02  0.66644774125E+02  0.13694150665E+02 0.  0.
         22    1    3    3    0    0 -0.37285797152E+02  0.13673690472E+02 -0.13181761591E+03  0.13767020137E+03  0.00000000000E+00 0.  1.
         22    1    4    4    0    0  0.20305077033E+02 -0.24105621981E+00 -0.26679874046E+02  0.33528643583E+02  0.00000000000E+00 0.  1.
         22    1    4    4    0    0  0.16980720119E+02 -0.13432634252E+02 -0.25057884655E+02  0.33116130542E+02  0.00000000000E+00 0.  1.
<mgrwt>
<rscale>  0 0.89733125E+02</rscale>
<asrwt>0</asrwt>
<pdfrwt beam="2">  1        1 0.29836178E-01 0.89733125E+02</pdfrwt>
<pdfrwt beam="1">  1       -1 0.15968925E-02 0.89733125E+02</pdfrwt>
<totfact> 0.12284477E+05</totfact>
</mgrwt>
</event>
<event>
 7    1  0.2787125E-009  0.9447961E+02  0.7818608E-02  0.1292352E+00
          1   -1    0    0  501    0  0.00000000000E+00  0.00000000000E+00  0.23627523554E+03  0.23627523559E+03  0.50400000000E-02 0. -1.
         -1   -1    0    0    0  501 -0.00000000000E+00 -0.00000000000E+00 -0.94449129328E+01  0.94449142775E+01  0.50400000000E-02 0.  1.
         23    2    1    2    0    0  0.00000000000E+00 -0.17763568394E-14  0.22683032261E+03  0.24572014987E+03  0.94479610492E+02 0.  0.
    9000005    2    3    3    0    0  0.21731560131E+02  0.15245789578E+02  0.21496714051E+03  0.21664387268E+03  0.43590443492E+01 0.  0.
         22    1    3    3    0    0 -0.21731560131E+02 -0.15245789578E+02  0.11863182098E+02  0.29076277187E+02  0.00000000000E+00 0.  1.
         22    1    4    4    0    0  0.10232147392E+02  0.84603241687E+01  0.91802421026E+02  0.92757524932E+02  0.00000000000E+00 0. -1.
         22    1    4    4    0    0  0.11499412739E+02  0.67854654088E+01  0.12316471948E+03  0.12388634775E+03  0.00000000000E+00 0. -1.
<mgrwt>
<rscale>  0 0.94479610E+02</rscale>
<asrwt>0</asrwt>
<pdfrwt beam="1">  1        1 0.36350032E-01 0.94479610E+02</pdfrwt>
<pdfrwt beam="2">  1       -1 0.14530638E-02 0.94479610E+02</pdfrwt>
<totfact> 0.11118676E+05</totfact>
</mgrwt>
</event>
<event>
 7    1  0.2787125E-009  0.9042006E+02  0.7818608E-02  0.1301838E+00
         -1   -1    0    0    0  501 -0.00000000000E+00  0.00000000000E+00  0.28100576506E+02  0.28100576958E+02  0.50400000000E-02 0.  1.
          1   -1    0    0  501    0  0.00000000000E+00 -0.00000000000E+00 -0.72736833105E+02  0.72736833279E+02  0.50400000000E-02 0. -1.
         23    2    1    2    0    0  0.35527136788E-14  0.00000000000E+00 -0.44636256599E+02  0.10083741024E+03  0.90420063593E+02 0.  0.
    9000005    2    3    3    0    0 -0.27499561209E+02 -0.20168115723E+01 -0.62107082731E+02  0.68195057973E+02  0.57430663363E+01 0.  0.
         22    1    3    3    0    0  0.27499561209E+02  0.20168115723E+01  0.17470826132E+02  0.32642352265E+02  0.00000000000E+00 0.  1.
         22    1    4    4    0    0 -0.13580875754E+01 -0.37348255514E+00 -0.74980399587E+01  0.76291870015E+01  0.00000000000E+00 0. -1.
         22    1    4    4    0    0 -0.26141473634E+02 -0.16433290172E+01 -0.54609042772E+02  0.60565870971E+02  0.00000000000E+00 0. -1.
<mgrwt>
<rscale>  0 0.90420064E+02</rscale>
<asrwt>0</asrwt>
<pdfrwt beam="2">  1        1 0.11190282E-01 0.90420064E+02</pdfrwt>
<pdfrwt beam="1">  1       -1 0.43231657E-02 0.90420064E+02</pdfrwt>
<totfact> 0.10155648E+05</totfact>
</mgrwt>
</event>
<event>
 7    1  0.2787125E-009  0.9423984E+02  0.7818608E-02  0.1292897E+00
          1   -1    0    0  501    0  0.00000000000E+00  0.00000000000E+00  0.35421996752E+03  0.35421996756E+03  0.50400000000E-02 0. -1.
         -1   -1    0    0    0  501 -0.00000000000E+00 -0.00000000000E+00 -0.62681005704E+01  0.62681025967E+01  0.50400000000E-02 0.  1.
         23    2    1    2    0    0  0.35527136788E-14  0.00000000000E+00  0.34795186695E+03  0.36048807015E+03  0.94239837694E+02 0.  0.
    9000005    2    3    3    0    0  0.29766677825E+02  0.26566011927E+02  0.26969989897E+03  0.27265198081E+03  0.30428665241E+01 0.  0.
         22    1    3    3    0    0 -0.29766677825E+02 -0.26566011927E+02  0.78251967982E+02  0.87836089346E+02  0.00000000000E+00 0.  1.
         22    1    4    4    0    0  0.24431276205E+02  0.20175742954E+02  0.21501666204E+03  0.21733870528E+03  0.00000000000E+00 0. -1.
         22    1    4    4    0    0  0.53354016195E+01  0.63902689724E+01  0.54683236932E+02  0.55313275526E+02  0.00000000000E+00 0. -1.
<mgrwt>
<rscale>  0 0.94239838E+02</rscale>
<asrwt>0</asrwt>
<pdfrwt beam="1">  1        1 0.54495372E-01 0.94239838E+02</pdfrwt>
<pdfrwt beam="2">  1       -1 0.96432346E-03 0.94239838E+02</pdfrwt>
<totfact> 0.12097939E+05</totfact>
</mgrwt>
</event>
<event>
 7    1  0.2787125E-009  0.9267913E+02  0.7818608E-02  0.1296490E+00
         -1   -1    0    0    0  501 -0.00000000000E+00  0.00000000000E+00  0.46770336364E+02  0.46770336635E+02  0.50400000000E-02 0.  1.
          1   -1    0    0  501    0  0.00000000000E+00 -0.00000000000E+00 -0.45912765266E+02  0.45912765543E+02  0.50400000000E-02 0. -1.
         23    2    1    2    0    0  0.00000000000E+00  0.00000000000E+00  0.85757109781E+00  0.92683102178E+02  0.92679134659E+02 0.  0.
    9000005    2    3    3    0    0  0.34399965257E+02  0.12585847457E+01 -0.30060048189E+02  0.46413881009E+02  0.81055664838E+01 0.  0.
         22    1    3    3    0    0 -0.34399965257E+02 -0.12585847457E+01  0.30917619287E+02  0.46269221169E+02  0.00000000000E+00 0.  1.
         22    1    4    4    0    0  0.30352953253E+02 -0.14448460630E+01 -0.24575339773E+02  0.39081155002E+02  0.00000000000E+00 0. -1.
         22    1    4    4    0    0  0.40470120035E+01  0.27034308087E+01 -0.54847084155E+01  0.73327260072E+01  0.00000000000E+00 0. -1.
<mgrwt>
<rscale>  0 0.92679135E+02</rscale>
<asrwt>0</asrwt>
<pdfrwt beam="2">  1        1 0.70635024E-02 0.92679135E+02</pdfrwt>
<pdfrwt beam="1">  1       -1 0.71954364E-02 0.92679135E+02</pdfrwt>
<totfact> 0.88412398E+04</totfact>
</mgrwt>
</event>
<event>
 7    1  0.2787125E-009  0.9222498E+02  0.7818608E-02  0.1297551E+00
         -1   -1    0    0    0  501 -0.00000000000E+00  0.00000000000E+00  0.59488360840E+02  0.59488361054E+02  0.50400000000E-02 0.  1.
          1   -1    0    0  501    0  0.00000000000E+00 -0.00000000000E+00 -0.35744159925E+02  0.35744160280E+02  0.50400000000E-02 0. -1.
         23    2    1    2    0    0  0.00000000000E+00  0.00000000000E+00  0.23744200915E+02  0.95232521334E+02  0.92224975156E+02 0.  0.
    9000005    2    3    3    0    0  0.17475999074E+02  0.24668912912E+02  0.46936166748E+02  0.57129593794E+02  0.12116968685E+02 0.  0.
         22    1    3    3    0    0 -0.17475999074E+02 -0.24668912912E+02 -0.23191965833E+02  0.38102927540E+02  0.00000000000E+00 0. -1.
         22    1    4    4    0    0  0.10863960769E+02  0.83407859822E+01  0.28555228166E+02  0.31670102778E+02  0.00000000000E+00 0.  1.
         22    1    4    4    0    0  0.66120383056E+01  0.16328126930E+02  0.18380938583E+02  0.25459491016E+02  0.00000000000E+00 0.  1.
<mgrwt>
<rscale>  0 0.92224975E+02</rscale>
<asrwt>0</asrwt>
<pdfrwt beam="2">  1        1 0.54991017E-02 0.92224975E+02</pdfrwt>
<pdfrwt beam="1">  1       -1 0.91520554E-02 0.92224975E+02</pdfrwt>
<totfact> 0.86260497E+04</totfact>
</mgrwt>
</event>
<event>
 7    1  0.2787125E-009  0.9123732E+02  0.7818608E-02  0.1299883E+00
         -1   -1    0    0    0  501 -0.00000000000E+00  0.00000000000E+00  0.21525625776E+03  0.21525625782E+03  0.50400000000E-02 0.  1.
          1   -1    0    0  501    0  0.00000000000E+00 -0.00000000000E+00 -0.96678344055E+01  0.96678357192E+01  0.50400000000E-02 0. -1.
         23    2    1    2    0    0  0.00000000000E+00  0.88817841970E-15  0.20558842335E+03  0.22492409354E+03  0.91237317127E+02 0.  0.
    9000005    2    3    3    0    0  0.40852924885E+02  0.70468027481E+01  0.14732150661E+03  0.15341428661E+03  0.10662932239E+02 0.  0.
         22    1    3    3    0    0 -0.40852924885E+02 -0.70468027481E+01  0.58266916741E+02  0.71509806930E+02  0.00000000000E+00 0. -1.
         22    1    4    4    0    0  0.15140510629E+02 -0.25026410135E+01  0.55691589359E+02  0.57767217342E+02  0.00000000000E+00 0.  1.
         22    1    4    4    0    0  0.25712414257E+02  0.95494437616E+01  0.91629917252E+02  0.95647069263E+02  0.00000000000E+00 0.  1.
<mgrwt>
<rscale>  0 0.91237317E+02</rscale>
<asrwt>0</asrwt>
<pdfrwt beam="2">  1        1 0.14873593E-02 0.91237317E+02</pdfrwt>
<pdfrwt beam="1">  1       -1 0.33116346E-01 0.91237317E+02</pdfrwt>
<totfact> 0.67823161E+04</totfact>
</mgrwt>
</event>
<event>
 7    1  0.2787125E-009  0.9157839E+02  0.7818608E-02  0.1299074E+00
         -1   -1    0    0    0  501 -0.00000000000E+00  0.00000000000E+00  0.10707470720E+02  0.10707471906E+02  0.50400000000E-02 0.  1.
          1   -1    0    0  501    0  0.00000000000E+00 -0.00000000000E+00 -0.19581191890E+03  0.19581191897E+03  0.50400000000E-02 0. -1.
         23    2    1    2    0    0  0.00000000000E+00  0.17763568394E-14 -0.18510444818E+03  0.20651939087E+03  0.91578393028E+02 0.  0.
    9000005    2    3    3    0    0 -0.30802337176E+02 -0.10754197532E+02 -0.23831450020E+02  0.41979375446E+02  0.11397070360E+02 0.  0.
         22    1    3    3    0    0  0.30802337176E+02  0.10754197532E+02 -0.16127299816E+03  0.16454001543E+03  0.00000000000E+00 0.  1.
         22    1    4    4    0    0 -0.26344526676E+02 -0.43944479580E+01 -0.19654635323E+02  0.33160970256E+02  0.00000000000E+00 0. -1.
         22    1    4    4    0    0 -0.44578104995E+01 -0.63597495738E+01 -0.41768146970E+01  0.88184051905E+01  0.00000000000E+00 0. -1.
<mgrwt>
<rscale>  0 0.91578393E+02</rscale>
<asrwt>0</asrwt>
<pdfrwt beam="2">  1        1 0.30124908E-01 0.91578393E+02</pdfrwt>
<pdfrwt beam="1">  1       -1 0.16473034E-02 0.91578393E+02</pdfrwt>
<totfact> 0.11653804E+05</totfact>
</mgrwt>
</event>
<event>
 7    1  0.2787125E-009  0.8971089E+02  0.7818608E-02  0.1303553E+00
          1   -1    0    0  501    0  0.00000000000E+00  0.00000000000E+00  0.21619740727E+03  0.21619740733E+03  0.50400000000E-02 0. -1.
         -1   -1    0    0    0  501 -0.00000000000E+00 -0.00000000000E+00 -0.93063589965E+01  0.93063603613E+01  0.50400000000E-02 0.  1.
         23    2    1    2    0    0  0.00000000000E+00  0.00000000000E+00  0.20689104827E+03  0.22550376769E+03  0.89710887782E+02 0.  0.
    9000005    2    3    3    0    0 -0.12410485022E+02 -0.38906308269E+02  0.14984922686E+03  0.15535043312E+03  0.33534038027E+01 0.  0.
         22    1    3    3    0    0  0.12410485022E+02  0.38906308269E+02  0.57041821407E+02  0.70153334568E+02  0.00000000000E+00 0.  1.
         22    1    4    4    0    0 -0.76915845272E+01 -0.18978382086E+02  0.77249334703E+02  0.79917452232E+02  0.00000000000E+00 0. -1.
         22    1    4    4    0    0 -0.47189004949E+01 -0.19927926183E+02  0.72599892161E+02  0.75432980888E+02  0.00000000000E+00 0. -1.
<mgrwt>
<rscale>  0 0.89710888E+02</rscale>
<asrwt>0</asrwt>
<pdfrwt beam="1">  1        1 0.33261142E-01 0.89710888E+02</pdfrwt>
<pdfrwt beam="2">  1       -1 0.14317476E-02 0.89710888E+02</pdfrwt>
<totfact> 0.12553891E+05</totfact>
</mgrwt>
</event>
<event>
 7    1  0.2787125E-009  0.8868132E+02  0.7818608E-02  0.1306077E+00
         -1   -1    0    0    0  501 -0.00000000000E+00  0.00000000000E+00  0.17303447845E+03  0.17303447853E+03  0.50400000000E-02 0.  1.
          1   -1    0    0  501    0  0.00000000000E+00 -0.00000000000E+00 -0.11362440429E+02  0.11362441546E+02  0.50400000000E-02 0. -1.
         23    2    1    2    0    0 -0.17763568394E-14  0.00000000000E+00  0.16167203802E+03  0.18439692007E+03  0.88681318514E+02 0.  0.
    9000005    2    3    3    0    0 -0.84371205456E+01  0.18001138581E+02  0.16318496365E+03  0.16445914343E+03  0.47171499796E+01 0.  0.
         22    1    3    3    0    0  0.84371205456E+01 -0.18001138581E+02 -0.15129256272E+01  0.19937776638E+02  0.00000000000E+00 0. -1.
         22    1    4    4    0    0 -0.73265500303E+01  0.10445893111E+02  0.10678238605E+03  0.10754195920E+03  0.00000000000E+00 0. -1.
         22    1    4    4    0    0 -0.11105705153E+01  0.75552454700E+01  0.56402577600E+02  0.56917184232E+02  0.00000000000E+00 0. -1.
<mgrwt>
<rscale>  0 0.88681319E+02</rscale>
<asrwt>0</asrwt>
<pdfrwt beam="2">  1        1 0.17480679E-02 0.88681319E+02</pdfrwt>
<pdfrwt beam="1">  1       -1 0.26620689E-01 0.88681319E+02</pdfrwt>
<totfact> 0.77606337E+04</totfact>
</mgrwt>
</event>
<event>
 7    1  0.2787125E-009  0.9381257E+02  0.7818608E-02  0.1293873E+00
          1   -1    0    0  501    0  0.00000000000E+00  0.00000000000E+00  0.48170010108E+01  0.48170036474E+01  0.50400000000E-02 0. -1.
         -1   -1    0    0    0  501 -0.00000000000E+00 -0.00000000000E+00 -0.45675698834E+03  0.45675698837E+03  0.50400000000E-02 0.  1.
         23    2    1    2    0    0  0.00000000000E+00  0.00000000000E+00 -0.45193998733E+03  0.46157399202E+03  0.93812568229E+02 0.  0.
    9000005    2    3    3    0    0 -0.19374622228E+02  0.16434887480E+02 -0.41954589081E+03  0.42040532672E+03  0.87408652987E+01 0.  0.
         22    1    3    3    0    0  0.19374622228E+02 -0.16434887480E+02 -0.32394096522E+02  0.41168665298E+02  0.00000000000E+00 0. -1.
         22    1    4    4    0    0 -0.99000406858E+01  0.98421551956E+01 -0.16179819861E+03  0.16239931003E+03  0.00000000000E+00 0. -1.
         22    1    4    4    0    0 -0.94745815417E+01  0.65927322843E+01 -0.25774769220E+03  0.25800601669E+03  0.00000000000E+00 0. -1.
<mgrwt>
<rscale>  0 0.93812568E+02</rscale>
<asrwt>0</asrwt>
<pdfrwt beam="1">  1        1 0.74107764E-03 0.93812568E+02</pdfrwt>
<pdfrwt beam="2">  1       -1 0.70270272E-01 0.93812568E+02</pdfrwt>
<totfact> 0.46052884E+04</totfact>
</mgrwt>
</event>
<event>
 7    1  0.2787125E-009  0.9118216E+02  0.7818608E-02  0.1300014E+00
         -1   -1    0    0    0  501 -0.00000000000E+00  0.00000000000E+00  0.52397275681E+01  0.52397299920E+01  0.50400000000E-02 0.  1.
          1   -1    0    0  501    0  0.00000000000E+00 -0.00000000000E+00 -0.39668970851E+03  0.39668970854E+03  0.50400000000E-02 0. -1.
         23    2    1    2    0    0 -0.35527136788E-14  0.00000000000E+00 -0.39144998094E+03  0.40192943853E+03  0.91182158237E+02 0.  0.
    9000005    2    3    3    0    0 -0.19793035221E+02 -0.38994931726E+02 -0.16518831525E+03  0.17148050643E+03  0.14353245236E+02 0.  0.
         22    1    3    3    0    0  0.19793035221E+02  0.38994931726E+02 -0.22626166569E+03  0.23044893210E+03  0.00000000000E+00 0. -1.
         22    1    4    4    0    0 -0.10467077823E+02 -0.29960125822E+02 -0.13380522881E+03  0.13751730114E+03  0.00000000000E+00 0.  1.
         22    1    4    4    0    0 -0.93259573977E+01 -0.90348059034E+01 -0.31383086441E+02  0.33963205292E+02  0.00000000000E+00 0.  1.
<mgrwt>
<rscale>  0 0.91182158E+02</rscale>
<asrwt>0</asrwt>
<pdfrwt beam="2">  1        1 0.61029163E-01 0.91182158E+02</pdfrwt>
<pdfrwt beam="1">  1       -1 0.80611243E-03 0.91182158E+02</pdfrwt>
<totfact> 0.13468654E+05</totfact>
</mgrwt>
</event>
<event>
 7    1  0.2787125E-009  0.8808106E+02  0.7818608E-02  0.1307566E+00
          1   -1    0    0  501    0  0.00000000000E+00  0.00000000000E+00  0.26317000067E+02  0.26317000550E+02  0.50400000000E-02 0. -1.
         -1   -1    0    0    0  501 -0.00000000000E+00 -0.00000000000E+00 -0.73700200609E+02  0.73700200781E+02  0.50400000000E-02 0.  1.
         23    2    1    2    0    0  0.00000000000E+00  0.00000000000E+00 -0.47383200542E+02  0.10001720133E+03  0.88081058511E+02 0.  0.
    9000005    2    3    3    0    0  0.17423687223E+02 -0.15595561722E+02  0.18668993805E+02  0.29947958435E+02  0.12419592907E+01 0.  0.
         22    1    3    3    0    0 -0.17423687223E+02  0.15595561722E+02 -0.66052194347E+02  0.70069242896E+02  0.00000000000E+00 0.  1.
         22    1    4    4    0    0  0.11828191836E+02 -0.10161407425E+02  0.13067564541E+02  0.20345062447E+02  0.00000000000E+00 0.  1.
         22    1    4    4    0    0  0.55954953871E+01 -0.54341542972E+01  0.56014292647E+01  0.96028959882E+01  0.00000000000E+00 0.  1.
<mgrwt>
<rscale>  0 0.88081059E+02</rscale>
<asrwt>0</asrwt>
<pdfrwt beam="1">  1        1 0.40487693E-02 0.88081059E+02</pdfrwt>
<pdfrwt beam="2">  1       -1 0.11338492E-01 0.88081059E+02</pdfrwt>
<totfact> 0.93718852E+04</totfact>
</mgrwt>
</event>
<event>
 7    1  0.2787125E-009  0.9190851E+02  0.7818608E-02  0.1298295E+00
          1   -1    0    0  501    0  0.00000000000E+00  0.00000000000E+00  0.21854706965E+03  0.21854706971E+03  0.50400000000E-02 0. -1.
         -1   -1    0    0    0  501 -0.00000000000E+00 -0.00000000000E+00 -0.96628769047E+01  0.96628782191E+01  0.50400000000E-02 0.  1.
         23    2    1    2    0    0  0.00000000000E+00 -0.22204460493E-15  0.20888419275E+03  0.22820994793E+03  0.91908510783E+02 0.  0.
    9000005    2    3    3    0    0 -0.14269426049E+02  0.15942697213E+01  0.21255637120E+03  0.21338958659E+03  0.12196167825E+02 0.  0.
         22    1    3    3    0    0  0.14269426049E+02 -0.15942697213E+01 -0.36721784545E+01  0.14820361342E+02  0.00000000000E+00 0.  1.
         22    1    4    4    0    0 -0.39929965774E+01  0.62508241311E+01  0.71957750185E+02  0.72339025676E+02  0.00000000000E+00 0.  1.
         22    1    4    4    0    0 -0.10276429472E+02 -0.46565544098E+01  0.14059862102E+03  0.14105056091E+03  0.00000000000E+00 0.  1.
<mgrwt>
<rscale>  0 0.91908511E+02</rscale>
<asrwt>0</asrwt>
<pdfrwt beam="1">  1        1 0.33622626E-01 0.91908511E+02</pdfrwt>
<pdfrwt beam="2">  1       -1 0.14865966E-02 0.91908511E+02</pdfrwt>
<totfact> 0.11791359E+05</totfact>
</mgrwt>
</event>
<event>
 7    1  0.2787125E-009  0.9097251E+02  0.7818608E-02  0.1300514E+00
          1   -1    0    0  501    0  0.00000000000E+00  0.00000000000E+00  0.15307150820E+03  0.15307150828E+03  0.50400000000E-02 0. -1.
         -1   -1    0    0    0  501 -0.00000000000E+00 -0.00000000000E+00 -0.13516553983E+02  0.13516554923E+02  0.50400000000E-02 0.  1.
         23    2    1    2    0    0  0.00000000000E+00 -0.88817841970E-15  0.13955495422E+03  0.16658806320E+03  0.90972509893E+02 0.  0.
    9000005    2    3    3    0    0  0.41846239204E+02  0.74950899699E+01  0.98202017235E+02  0.10728081655E+03  0.76323850081E+01 0.  0.
         22    1    3    3    0    0 -0.41846239204E+02 -0.74950899699E+01  0.41352936981E+02  0.59307246657E+02  0.00000000000E+00 0. -1.
         22    1    4    4    0    0  0.26509803200E+02  0.17909469915E+01  0.54938554601E+02  0.61026403618E+02  0.00000000000E+00 0. -1.
         22    1    4    4    0    0  0.15336436003E+02  0.57041429784E+01  0.43263462633E+02  0.46254412929E+02  0.00000000000E+00 0. -1.
<mgrwt>
<rscale>  0 0.90972510E+02</rscale>
<asrwt>0</asrwt>
<pdfrwt beam="1">  1        1 0.23549463E-01 0.90972510E+02</pdfrwt>
<pdfrwt beam="2">  1       -1 0.20794699E-02 0.90972510E+02</pdfrwt>
<totfact> 0.11323542E+05</totfact>
</mgrwt>
</event>
<event>
 7    1  0.2787125E-009  0.9160170E+02  0.7818608E-02  0.1299019E+00
          1   -1    0    0  501    0  0.00000000000E+00  0.00000000000E+00  0.26929379942E+03  0.26929379946E+03  0.50400000000E-02 0. -1.
         -1   -1    0    0    0  501 -0.00000000000E+00 -0.00000000000E+00 -0.77896990272E+01  0.77897006576E+01  0.50400000000E-02 0.  1.
         23    2    1    2    0    0  0.00000000000E+00  0.00000000000E+00  0.26150410039E+03  0.27708350012E+03  0.91601700415E+02 0.  0.
    9000005    2    3    3    0    0  0.20136379952E+02  0.20172766209E+02  0.23901904013E+03  0.24077933743E+03  0.56721681787E+01 0.  0.
         22    1    3    3    0    0 -0.20136379952E+02 -0.20172766209E+02  0.22485060255E+02  0.36304162692E+02  0.00000000000E+00 0.  1.
         22    1    4    4    0    0  0.18908701107E+02  0.19389986128E+02  0.21228555907E+03  0.21400623620E+03  0.00000000000E+00 0. -1.
         22    1    4    4    0    0  0.12276788456E+01  0.78278008150E+00  0.26733481061E+02  0.26773101233E+02  0.00000000000E+00 0. -1.
<mgrwt>
<rscale>  0 0.91601700E+02</rscale>
<asrwt>0</asrwt>
<pdfrwt beam="1">  1        1 0.41429816E-01 0.91601700E+02</pdfrwt>
<pdfrwt beam="2">  1       -1 0.11984153E-02 0.91601700E+02</pdfrwt>
<totfact> 0.12392975E+05</totfact>
</mgrwt>
</event>
<event>
 7    1  0.2787125E-009  0.9172519E+02  0.7818608E-02  0.1298727E+00
         -1   -1    0    0    0  501 -0.00000000000E+00  0.00000000000E+00  0.51395847162E+02  0.51395847410E+02  0.50400000000E-02 0.  1.
          1   -1    0    0  501    0  0.00000000000E+00 -0.00000000000E+00 -0.40925048140E+02  0.40925048450E+02  0.50400000000E-02 0. -1.
         23    2    1    2    0    0  0.00000000000E+00  0.00000000000E+00  0.10470799022E+02  0.92320895860E+02  0.91725188363E+02 0.  0.
    9000005    2    3    3    0    0 -0.13244594340E+02  0.97610394887E+01  0.47475589060E+02  0.51823344615E+02  0.12689772235E+02 0.  0.
         22    1    3    3    0    0  0.13244594340E+02 -0.97610394887E+01 -0.37004790037E+02  0.40497551245E+02  0.00000000000E+00 0. -1.
         22    1    4    4    0    0 -0.10400114486E+02  0.47533972101E+01  0.43098447048E+02  0.44589609824E+02  0.00000000000E+00 0. -1.
         22    1    4    4    0    0 -0.28444798537E+01  0.50076422786E+01  0.43771420122E+01  0.72337347908E+01  0.00000000000E+00 0. -1.
<mgrwt>
<rscale>  0 0.91725188E+02</rscale>
<asrwt>0</asrwt>
<pdfrwt beam="2">  1        1 0.62961613E-02 0.91725188E+02</pdfrwt>
<pdfrwt beam="1">  1       -1 0.79070534E-02 0.91725188E+02</pdfrwt>
<totfact> 0.89450322E+04</totfact>
</mgrwt>
</event>
<event>
 7    1  0.2787125E-009  0.9244650E+02  0.7818608E-02  0.1297033E+00
          1   -1    0    0  501    0  0.00000000000E+00  0.00000000000E+00  0.41015963724E+02  0.41015964034E+02  0.50400000000E-02 0. -1.
         -1   -1    0    0    0  501 -0.00000000000E+00 -0.00000000000E+00 -0.52091640505E+02  0.52091640749E+02  0.50400000000E-02 0.  1.
         23    2    1    2    0    0  0.00000000000E+00  0.35527136788E-14 -0.11075676780E+02  0.93107604782E+02  0.92446500486E+02 0.  0.
    9000005    2    3    3    0    0  0.19395966938E+02  0.29464109401E+02  0.23216159187E+02  0.43911392629E+02  0.12036738718E+02 0.  0.
         22    1    3    3    0    0 -0.19395966938E+02 -0.29464109401E+02 -0.34291835967E+02  0.49196212154E+02  0.00000000000E+00 0.  1.
         22    1    4    4    0    0  0.10517870188E+02  0.11593490983E+02  0.38843298492E+01  0.16128318103E+02  0.00000000000E+00 0. -1.
         22    1    4    4    0    0  0.88780967497E+01  0.17870618418E+02  0.19331829338E+02  0.27783074525E+02  0.00000000000E+00 0. -1.
<mgrwt>
<rscale>  0 0.92446500E+02</rscale>
<asrwt>0</asrwt>
<pdfrwt beam="1">  1        1 0.63101483E-02 0.92446500E+02</pdfrwt>
<pdfrwt beam="2">  1       -1 0.80140986E-02 0.92446500E+02</pdfrwt>
<totfact> 0.87519742E+04</totfact>
</mgrwt>
</event>
<event>
 7    1  0.3323533E-009  0.8883526E+02  0.7818608E-02  0.1305697E+00
         -1   -1    0    0    0  501 -0.00000000000E+00  0.00000000000E+00  0.25951098455E+02  0.25951098944E+02  0.50400000000E-02 0.  1.
          1   -1    0    0  501    0  0.00000000000E+00 -0.00000000000E+00 -0.76024757757E+02  0.76024757924E+02  0.50400000000E-02 0. -1.
         23    2    1    2    0    0  0.00000000000E+00 -0.44408920985E-15 -0.50073659302E+02  0.10197585687E+03  0.88835263427E+02 0.  0.
    9000005    2    3    3    0    0 -0.40733574488E+02  0.36050836739E+01 -0.41068809305E+02  0.60103335541E+02  0.15923037607E+02 0.  0.
         22    1    3    3    0    0  0.40733574488E+02 -0.36050836739E+01 -0.90048499970E+01  0.41872521327E+02  0.00000000000E+00 0. -1.
         22    1    4    4    0    0 -0.21728296086E+02 -0.25518658498E+01 -0.30404346356E+02  0.37457377744E+02  0.00000000000E+00 0. -1.
         22    1    4    4    0    0 -0.19005278402E+02  0.61569495237E+01 -0.10664462948E+02  0.22645957797E+02  0.00000000000E+00 0. -1.
<mgrwt>
<rscale>  0 0.88835263E+02</rscale>
<asrwt>0</asrwt>
<pdfrwt beam="2">  1        1 0.11696117E-01 0.88835263E+02</pdfrwt>
<pdfrwt beam="1">  1       -1 0.39924768E-02 0.88835263E+02</pdfrwt>
<totfact> 0.10733169E+05</totfact>
</mgrwt>
</event>
<event>
 7    1  0.2787125E-009  0.9380822E+02  0.7818608E-02  0.1293883E+00
         -1   -1    0    0    0  501 -0.00000000000E+00  0.00000000000E+00  0.14160635759E+02  0.14160636656E+02  0.50400000000E-02 0.  1.
          1   -1    0    0  501    0  0.00000000000E+00 -0.00000000000E+00 -0.15535994263E+03  0.15535994271E+03  0.50400000000E-02 0. -1.
         23    2    1    2    0    0 -0.71054273576E-14 -0.35527136788E-14 -0.14119930687E+03  0.16952057937E+03  0.93808222284E+02 0.  0.
    9000005    2    3    3    0    0  0.33571879020E+02  0.22171885395E+02 -0.31838897247E+02  0.52994347316E+02  0.13267324774E+02 0.  0.
         22    1    3    3    0    0 -0.33571879020E+02 -0.22171885395E+02 -0.10936040962E+03  0.11652623205E+03  0.00000000000E+00 0. -1.
         22    1    4    4    0    0  0.27876830382E+02  0.12837821069E+02 -0.27571982540E+02  0.41257018108E+02  0.00000000000E+00 0.  1.
         22    1    4    4    0    0  0.56950486377E+01  0.93340643263E+01 -0.42669147074E+01  0.11737329209E+02  0.00000000000E+00 0.  1.
<mgrwt>
<rscale>  0 0.93808222E+02</rscale>
<asrwt>0</asrwt>
<pdfrwt beam="2">  1        1 0.23901529E-01 0.93808222E+02</pdfrwt>
<pdfrwt beam="1">  1       -1 0.21785595E-02 0.93808222E+02</pdfrwt>
<totfact> 0.10450937E+05</totfact>
</mgrwt>
</event>
<event>
 7    1  0.2787125E-009  0.9150763E+02  0.7818608E-02  0.1299241E+00
         -1   -1    0    0    0  501 -0.00000000000E+00  0.00000000000E+00  0.33260910492E+02  0.33260910874E+02  0.50400000000E-02 0.  1.
          1   -1    0    0  501    0  0.00000000000E+00 -0.00000000000E+00 -0.62939089377E+02  0.62939089579E+02  0.50400000000E-02 0. -1.
         23    2    1    2    0    0  0.35527136788E-14  0.00000000000E+00 -0.29678178885E+02  0.96200000453E+02  0.91507626924E+02 0.  0.
    9000005    2    3    3    0    0 -0.29032722846E+02  0.32224361231E+02 -0.33881867359E+01  0.45480456491E+02  0.13254571311E+02 0.  0.
         22    1    3    3    0    0  0.29032722846E+02 -0.32224361231E+02 -0.26289992149E+02  0.50719543963E+02  0.00000000000E+00 0. -1.
         22    1    4    4    0    0 -0.79589612431E+01  0.72761175289E+01  0.48127908224E+01  0.11808890967E+02  0.00000000000E+00 0.  1.
         22    1    4    4    0    0 -0.21073761602E+02  0.24948243702E+02 -0.82009775583E+01  0.33671565524E+02  0.00000000000E+00 0.  1.
<mgrwt>
<rscale>  0 0.91507627E+02</rscale>
<asrwt>0</asrwt>
<pdfrwt beam="2">  1        1 0.96829369E-02 0.91507627E+02</pdfrwt>
<pdfrwt beam="1">  1       -1 0.51170632E-02 0.91507627E+02</pdfrwt>
<totfact> 0.96103362E+04</totfact>
</mgrwt>
</event>
<event>
 7    1  0.2787125E-009  0.9065229E+02  0.7818608E-02  0.1301280E+00
         -1   -1    0    0    0  501 -0.00000000000E+00  0.00000000000E+00  0.58601216158E+02  0.58601216375E+02  0.50400000000E-02 0.  1.
          1   -1    0    0  501    0  0.00000000000E+00 -0.00000000000E+00 -0.35058309107E+02  0.35058309469E+02  0.50400000000E-02 0. -1.
         23    2    1    2    0    0 -0.35527136788E-14  0.71054273576E-14  0.23542907051E+02  0.93659525844E+02  0.90652293457E+02 0.  0.
    9000005    2    3    3    0    0 -0.17708077926E+02  0.38610035797E+02  0.25914815582E+02  0.51116173389E+02  0.11703615985E+02 0.  0.
         22    1    3    3    0    0  0.17708077926E+02 -0.38610035797E+02 -0.23719085307E+01  0.42543352456E+02  0.00000000000E+00 0.  1.
         22    1    4    4    0    0 -0.19080200976E+02  0.37979415087E+02  0.25432973026E+02  0.49531062542E+02  0.00000000000E+00 0. -1.
         22    1    4    4    0    0  0.13721230504E+01  0.63062071012E+00  0.48184255650E+00  0.15851108462E+01  0.00000000000E+00 0. -1.
<mgrwt>
<rscale>  0 0.90652293E+02</rscale>
<asrwt>0</asrwt>
<pdfrwt beam="2">  1        1 0.53935861E-02 0.90652293E+02</pdfrwt>
<pdfrwt beam="1">  1       -1 0.90155717E-02 0.90652293E+02</pdfrwt>
<totfact> 0.90315897E+04</totfact>
</mgrwt>
</event>
<event>
 7    1  0.2787125E-009  0.9375868E+02  0.7818608E-02  0.1293997E+00
          1   -1    0    0  501    0  0.00000000000E+00  0.00000000000E+00  0.18912250392E+02  0.18912251064E+02  0.50400000000E-02 0. -1.
         -1   -1    0    0    0  501 -0.00000000000E+00 -0.00000000000E+00 -0.11620363939E+03  0.11620363950E+03  0.50400000000E-02 0.  1.
         23    2    1    2    0    0  0.00000000000E+00  0.00000000000E+00 -0.97291388994E+02  0.13511589056E+03  0.93758676981E+02 0.  0.
    9000005    2    3    3    0    0  0.99065608208E+01 -0.41731783655E+01 -0.11402231783E+03  0.11522922808E+03  0.12693725880E+02 0.  0.
         22    1    3    3    0    0 -0.99065608208E+01  0.41731783655E+01  0.16730928832E+02  0.19886662479E+02  0.00000000000E+00 0. -1.
         22    1    4    4    0    0  0.12602053941E+02 -0.16612929954E+01 -0.79343024810E+02  0.80354758689E+02  0.00000000000E+00 0.  1.
         22    1    4    4    0    0 -0.26954931204E+01 -0.25118853701E+01 -0.34679293015E+02  0.34874469391E+02  0.00000000000E+00 0.  1.
<mgrwt>
<rscale>  0 0.93758677E+02</rscale>
<asrwt>0</asrwt>
<pdfrwt beam="1">  1        1 0.29095771E-02 0.93758677E+02</pdfrwt>
<pdfrwt beam="2">  1       -1 0.17877483E-01 0.93758677E+02</pdfrwt>
<totfact> 0.73535044E+04</totfact>
</mgrwt>
</event>
<event>
 7    1  0.2928898E-009  0.9725342E+02  0.7818608E-02  0.1286180E+00
          1   -1    0    0  501    0  0.00000000000E+00  0.00000000000E+00  0.21622447617E+02  0.21622448205E+02  0.50400000000E-02 0. -1.
         -1   -1    0    0    0  501 -0.00000000000E+00 -0.00000000000E+00 -0.10935658673E+03  0.10935658685E+03  0.50400000000E-02 0.  1.
         23    2    1    2    0    0  0.00000000000E+00  0.00000000000E+00 -0.87734139114E+02  0.13097903505E+03  0.97253423884E+02 0.  0.
    9000005    2    3    3    0    0 -0.25810534242E+02 -0.34474458534E+02 -0.71527465208E+02  0.84964599837E+02  0.15752237218E+02 0.  0.
         22    1    3    3    0    0  0.25810534242E+02  0.34474458534E+02 -0.16206673907E+02  0.46014435215E+02  0.00000000000E+00 0.  1.
         22    1    4    4    0    0 -0.71079732516E+01 -0.78220669902E+01 -0.69684441242E+01  0.12659669398E+02  0.00000000000E+00 0.  1.
         22    1    4    4    0    0 -0.18702560990E+02 -0.26652391544E+02 -0.64559021084E+02  0.72304930439E+02  0.00000000000E+00 0.  1.
<mgrwt>
<rscale>  0 0.97253424E+02</rscale>
<asrwt>0</asrwt>
<pdfrwt beam="1">  1        1 0.33265305E-02 0.97253424E+02</pdfrwt>
<pdfrwt beam="2">  1       -1 0.16824090E-01 0.97253424E+02</pdfrwt>
<totfact> 0.67708345E+04</totfact>
</mgrwt>
</event>
<event>
 7    1  0.2787125E-009  0.8949693E+02  0.7818608E-02  0.1304075E+00
         -1   -1    0    0    0  501 -0.00000000000E+00  0.00000000000E+00  0.15947393888E+03  0.15947393896E+03  0.50400000000E-02 0.  1.
          1   -1    0    0  501    0  0.00000000000E+00 -0.00000000000E+00 -0.12556439923E+02  0.12556440935E+02  0.50400000000E-02 0. -1.
         23    2    1    2    0    0 -0.35527136788E-14  0.00000000000E+00  0.14691749895E+03  0.17203037989E+03  0.89496927918E+02 0.  0.
    9000005    2    3    3    0    0  0.28533709601E+02  0.33775353388E+02  0.72611123335E+02  0.85564290945E+02  0.96915206716E+01 0.  0.
         22    1    3    3    0    0 -0.28533709601E+02 -0.33775353388E+02  0.74306375617E+02  0.86466088945E+02  0.00000000000E+00 0.  1.
         22    1    4    4    0    0  0.22287684533E+02  0.31517055182E+02  0.60996819429E+02  0.72185023583E+02  0.00000000000E+00 0. -1.
         22    1    4    4    0    0  0.62460250674E+01  0.22582982055E+01  0.11614303906E+02  0.13379267362E+02  0.00000000000E+00 0. -1.
<mgrwt>
<rscale>  0 0.89496928E+02</rscale>
<asrwt>0</asrwt>
<pdfrwt beam="2">  1        1 0.19317601E-02 0.89496928E+02</pdfrwt>
<pdfrwt beam="1">  1       -1 0.24534452E-01 0.89496928E+02</pdfrwt>
<totfact> 0.77345609E+04</totfact>
</mgrwt>
</event>
<event>
 7    1  0.2787125E-009  0.7861141E+02  0.7818608E-02  0.1333039E+00
         -1   -1    0    0    0  501 -0.00000000000E+00  0.00000000000E+00  0.17124297904E+03  0.17124297911E+03  0.50400000000E-02 0.  1.
          1   -1    0    0  501    0  0.00000000000E+00 -0.00000000000E+00 -0.90219082806E+01  0.90219096884E+01  0.50400000000E-02 0. -1.
         23    2    1    2    0    0  0.00000000000E+00  0.17763568394E-14  0.16222107076E+03  0.18026488880E+03  0.78611413526E+02 0.  0.
    9000005    2    3    3    0    0 -0.24421084469E+02  0.13383492121E+02  0.14384665689E+03  0.14690134113E+03  0.10613015584E+02 0.  0.
         22    1    3    3    0    0  0.24421084469E+02 -0.13383492121E+02  0.18374413864E+02  0.33363547666E+02  0.00000000000E+00 0. -1.
         22    1    4    4    0    0 -0.14736207173E+02  0.12838631603E+02  0.81895443772E+02  0.84195308503E+02  0.00000000000E+00 0.  1.
         22    1    4    4    0    0 -0.96848772962E+01  0.54486051861E+00  0.61951213121E+02  0.62706032632E+02  0.00000000000E+00 0.  1.
<mgrwt>
<rscale>  0 0.78611414E+02</rscale>
<asrwt>0</asrwt>
<pdfrwt beam="2">  1        1 0.13879860E-02 0.78611414E+02</pdfrwt>
<pdfrwt beam="1">  1       -1 0.26345073E-01 0.78611414E+02</pdfrwt>
<totfact> 0.10627541E+05</totfact>
</mgrwt>
</event>
<event>
 7    1  0.2787125E-009  0.9093635E+02  0.7818608E-02  0.1300600E+00
         -1   -1    0    0    0  501 -0.00000000000E+00  0.00000000000E+00  0.23542699117E+02  0.23542699656E+02  0.50400000000E-02 0.  1.
          1   -1    0    0  501    0  0.00000000000E+00 -0.00000000000E+00 -0.87813002281E+02  0.87813002425E+02  0.50400000000E-02 0. -1.
         23    2    1    2    0    0  0.00000000000E+00 -0.88817841970E-15 -0.64270303164E+02  0.11135570208E+03  0.90936354211E+02 0.  0.
    9000005    2    3    3    0    0  0.82918326197E+01 -0.77285009626E+01 -0.85701966469E+02  0.87111106657E+02  0.10725373237E+02 0.  0.
         22    1    3    3    0    0 -0.82918326197E+01  0.77285009626E+01  0.21431663304E+02  0.24244595425E+02  0.00000000000E+00 0.  1.
         22    1    4    4    0    0  0.84956711556E+00 -0.68839107550E+01 -0.24848006059E+02  0.25797933962E+02  0.00000000000E+00 0. -1.
         22    1    4    4    0    0  0.74422655041E+01 -0.84459020759E+00 -0.60853960409E+02  0.61313172695E+02  0.00000000000E+00 0. -1.
<mgrwt>
<rscale>  0 0.90936354E+02</rscale>
<asrwt>0</asrwt>
<pdfrwt beam="2">  1        1 0.13509693E-01 0.90936354E+02</pdfrwt>
<pdfrwt beam="1">  1       -1 0.36219538E-02 0.90936354E+02</pdfrwt>
<totfact> 0.10299454E+05</totfact>
</mgrwt>
</event>
<event>
 7    1  0.2787125E-009  0.9398963E+02  0.7818608E-02  0.1293468E+00
          1   -1    0    0  501    0  0.00000000000E+00  0.00000000000E+00  0.26808652200E+03  0.26808652205E+03  0.50400000000E-02 0. -1.
         -1   -1    0    0    0  501 -0.00000000000E+00 -0.00000000000E+00 -0.82380576902E+01  0.82380592319E+01  0.50400000000E-02 0.  1.
         23    2    1    2    0    0 -0.71054273576E-14  0.00000000000E+00  0.25984846431E+03  0.27632458128E+03  0.93989626104E+02 0.  0.
    9000005    2    3    3    0    0  0.32719510015E+02 -0.12889857655E+02  0.22108339348E+03  0.22398486900E+03  0.73918805535E+01 0.  0.
         22    1    3    3    0    0 -0.32719510015E+02  0.12889857655E+02  0.38765070829E+02  0.52339712288E+02  0.00000000000E+00 0.  1.
         22    1    4    4    0    0  0.14441966091E+02 -0.34533301060E+01  0.11187574525E+03  0.11285689278E+03  0.00000000000E+00 0.  1.
         22    1    4    4    0    0  0.18277543924E+02 -0.94365275485E+01  0.10920764824E+03  0.11112797621E+03  0.00000000000E+00 0.  1.
<mgrwt>
<rscale>  0 0.93989626E+02</rscale>
<asrwt>0</asrwt>
<pdfrwt beam="1">  1        1 0.41244086E-01 0.93989626E+02</pdfrwt>
<pdfrwt beam="2">  1       -1 0.12673934E-02 0.93989626E+02</pdfrwt>
<totfact> 0.11558327E+05</totfact>
</mgrwt>
</event>
<event>
 7    1  0.2787125E-009  0.9108121E+02  0.7818608E-02  0.1300254E+00
         -1   -1    0    0    0  501 -0.00000000000E+00  0.00000000000E+00  0.49421386668E+03  0.49421386671E+03  0.50400000000E-02 0.  1.
          1   -1    0    0  501    0  0.00000000000E+00 -0.00000000000E+00 -0.41964547351E+01  0.41964577617E+01  0.50400000000E-02 0. -1.
         23    2    1    2    0    0 -0.35527136788E-14  0.00000000000E+00  0.49001741195E+03  0.49841032447E+03  0.91081213906E+02 0.  0.
    9000005    2    3    3    0    0  0.31979588876E+02  0.28416266512E+02  0.32076961724E+03  0.32383943823E+03  0.12192461012E+02 0.  0.
         22    1    3    3    0    0 -0.31979588876E+02 -0.28416266512E+02  0.16924779471E+03  0.17457088623E+03  0.00000000000E+00 0. -1.
         22    1    4    4    0    0  0.23311331907E+02  0.17077626074E+02  0.17466185053E+03  0.17703622663E+03  0.00000000000E+00 0. -1.
         22    1    4    4    0    0  0.86682569685E+01  0.11338640438E+02  0.14610776670E+03  0.14680321160E+03  0.00000000000E+00 0. -1.
<mgrwt>
<rscale>  0 0.91081214E+02</rscale>
<asrwt>0</asrwt>
<pdfrwt beam="2">  1        1 0.64560816E-03 0.91081214E+02</pdfrwt>
<pdfrwt beam="1">  1       -1 0.76032961E-01 0.91081214E+02</pdfrwt>
<totfact> 0.47510380E+04</totfact>
</mgrwt>
</event>
<event>
 7    1  0.2787125E-009  0.9097605E+02  0.7818608E-02  0.1300505E+00
          1   -1    0    0  501    0  0.00000000000E+00  0.00000000000E+00  0.34631532208E+02  0.34631532575E+02  0.50400000000E-02 0. -1.
         -1   -1    0    0    0  501 -0.00000000000E+00 -0.00000000000E+00 -0.59747874818E+02  0.59747875031E+02  0.50400000000E-02 0.  1.
         23    2    1    2    0    0  0.00000000000E+00  0.00000000000E+00 -0.25116342610E+02  0.94379407606E+02  0.90976051321E+02 0.  0.
    9000005    2    3    3    0    0 -0.37091712151E+02 -0.24984854989E+02 -0.79655783203E+01  0.46481737466E+02  0.98520754555E+01 0.  0.
         22    1    3    3    0    0  0.37091712151E+02  0.24984854989E+02 -0.17150764290E+02  0.47897670140E+02  0.00000000000E+00 0. -1.
         22    1    4    4    0    0 -0.89778185809E+01 -0.39089745319E+01  0.19255553037E+01  0.99794324282E+01  0.00000000000E+00 0.  1.
         22    1    4    4    0    0 -0.28113893570E+02 -0.21075880457E+02 -0.98911336240E+01  0.36502305038E+02  0.00000000000E+00 0.  1.
<mgrwt>
<rscale>  0 0.90976051E+02</rscale>
<asrwt>0</asrwt>
<pdfrwt beam="1">  1        1 0.53279281E-02 0.90976051E+02</pdfrwt>
<pdfrwt beam="2">  1       -1 0.91919808E-02 0.90976051E+02</pdfrwt>
<totfact> 0.89236280E+04</totfact>
</mgrwt>
</event>
<event>
 7    1  0.2787125E-009  0.9025134E+02  0.7818608E-02  0.1302244E+00
         -1   -1    0    0    0  501 -0.00000000000E+00  0.00000000000E+00  0.20367331085E+03  0.20367331092E+03  0.50400000000E-02 0.  1.
          1   -1    0    0  501    0  0.00000000000E+00 -0.00000000000E+00 -0.99980008446E+01  0.99980021150E+01  0.50400000000E-02 0. -1.
         23    2    1    2    0    0  0.00000000000E+00  0.88817841970E-15  0.19367531001E+03  0.21367131303E+03  0.90251339632E+02 0.  0.
    9000005    2    3    3    0    0  0.13945693395E+02 -0.76945095407E+01  0.19645618508E+03  0.19750279091E+03  0.12594916507E+02 0.  0.
         22    1    3    3    0    0 -0.13945693395E+02  0.76945095407E+01 -0.27808750687E+01  0.16168522118E+02  0.00000000000E+00 0. -1.
         22    1    4    4    0    0  0.13371382553E+01 -0.75794244967E+01  0.74147630951E+02  0.74546004521E+02  0.00000000000E+00 0. -1.
         22    1    4    4    0    0  0.12608555139E+02 -0.11508504404E+00  0.12230855413E+03  0.12295678639E+03  0.00000000000E+00 0. -1.
<mgrwt>
<rscale>  0 0.90251340E+02</rscale>
<asrwt>0</asrwt>
<pdfrwt beam="2">  1        1 0.15381542E-02 0.90251340E+02</pdfrwt>
<pdfrwt beam="1">  1       -1 0.31334354E-01 0.90251340E+02</pdfrwt>
<totfact> 0.70920817E+04</totfact>
</mgrwt>
</event>
<event>
 7    1  0.2787125E-009  0.9037199E+02  0.7818608E-02  0.1301953E+00
         -1   -1    0    0    0  501 -0.00000000000E+00  0.00000000000E+00  0.78415702802E+02  0.78415702964E+02  0.50400000000E-02 0.  1.
          1   -1    0    0  501    0  0.00000000000E+00 -0.00000000000E+00 -0.26037819267E+02  0.26037819755E+02  0.50400000000E-02 0. -1.
         23    2    1    2    0    0  0.00000000000E+00  0.00000000000E+00  0.52377883535E+02  0.10445352272E+03  0.90371985287E+02 0.  0.
    9000005    2    3    3    0    0 -0.16168707537E+02 -0.14158964665E+02  0.71325582127E+02  0.75801844483E+02  0.14024178319E+02 0.  0.
         22    1    3    3    0    0  0.16168707537E+02  0.14158964665E+02 -0.18947698592E+02  0.28651678236E+02  0.00000000000E+00 0. -1.
         22    1    4    4    0    0 -0.82618418680E+01  0.11404173517E+01  0.26518591201E+02  0.27799177363E+02  0.00000000000E+00 0.  1.
         22    1    4    4    0    0 -0.79068656685E+01 -0.15299382017E+02  0.44806990926E+02  0.48002667120E+02  0.00000000000E+00 0.  1.
<mgrwt>
<rscale>  0 0.90371985E+02</rscale>
<asrwt>0</asrwt>
<pdfrwt beam="2">  1        1 0.40058185E-02 0.90371985E+02</pdfrwt>
<pdfrwt beam="1">  1       -1 0.12063954E-01 0.90371985E+02</pdfrwt>
<totfact> 0.86883460E+04</totfact>
</mgrwt>
</event>
<event>
 7    1  0.2787125E-009  0.9372244E+02  0.7818608E-02  0.1294080E+00
         -1   -1    0    0    0  501 -0.00000000000E+00  0.00000000000E+00  0.73640351308E+02  0.73640351481E+02  0.50400000000E-02 0.  1.
          1   -1    0    0  501    0  0.00000000000E+00 -0.00000000000E+00 -0.29820250401E+02  0.29820250827E+02  0.50400000000E-02 0. -1.
         23    2    1    2    0    0 -0.17763568394E-14  0.00000000000E+00  0.43820100907E+02  0.10346060231E+03  0.93722435875E+02 0.  0.
    9000005    2    3    3    0    0  0.13440625785E+02  0.34289350824E+02  0.53687983568E+02  0.65332068246E+02  0.54285873187E+01 0.  0.
         22    1    3    3    0    0 -0.13440625785E+02 -0.34289350824E+02 -0.98678826613E+01  0.38128534061E+02  0.00000000000E+00 0. -1.
         22    1    4    4    0    0  0.10224786064E+01  0.16625489415E+01  0.11886187842E+01  0.22852453035E+01  0.00000000000E+00 0. -1.
         22    1    4    4    0    0  0.12418147179E+02  0.32626801883E+02  0.52499364784E+02  0.63046822943E+02  0.00000000000E+00 0. -1.
<mgrwt>
<rscale>  0 0.93722436E+02</rscale>
<asrwt>0</asrwt>
<pdfrwt beam="2">  1        1 0.45877309E-02 0.93722436E+02</pdfrwt>
<pdfrwt beam="1">  1       -1 0.11329285E-01 0.93722436E+02</pdfrwt>
<totfact> 0.79992650E+04</totfact>
</mgrwt>
</event>
<event>
 7    1  0.2787125E-009  0.1097886E+03  0.7818608E-02  0.1260962E+00
         -1   -1    0    0    0  501 -0.00000000000E+00  0.00000000000E+00  0.19291021952E+02  0.19291022611E+02  0.50400000000E-02 0.  1.
          1   -1    0    0  501    0  0.00000000000E+00 -0.00000000000E+00 -0.15620649040E+03  0.15620649048E+03  0.50400000000E-02 0. -1.
         23    2    1    2    0    0  0.00000000000E+00  0.35527136788E-14 -0.13691546845E+03  0.17549751309E+03  0.10978857682E+03 0.  0.
    9000005    2    3    3    0    0  0.39073606463E+02  0.27817055308E+02 -0.10906881194E+03  0.12003607093E+03  0.14564247263E+02 0.  0.
         22    1    3    3    0    0 -0.39073606463E+02 -0.27817055308E+02 -0.27846656508E+02  0.55461442162E+02  0.00000000000E+00 0. -1.
         22    1    4    4    0    0  0.12342248610E+02  0.16873749278E+01 -0.33153641904E+02  0.35416695306E+02  0.00000000000E+00 0. -1.
         22    1    4    4    0    0  0.26731357852E+02  0.26129680380E+02 -0.75915170033E+02  0.84619375621E+02  0.00000000000E+00 0. -1.
<mgrwt>
<rscale>  0 0.10978858E+03</rscale>
<asrwt>0</asrwt>
<pdfrwt beam="2">  1        1 0.24031767E-01 0.10978858E+03</pdfrwt>
<pdfrwt beam="1">  1       -1 0.29678497E-02 0.10978858E+03</pdfrwt>
<totfact> 0.68088336E+04</totfact>
</mgrwt>
</event>
<event>
 7    1  0.2787125E-009  0.9093589E+02  0.7818608E-02  0.1300601E+00
          1   -1    0    0  501    0  0.00000000000E+00  0.00000000000E+00  0.24727391013E+03  0.24727391018E+03  0.50400000000E-02 0. -1.
         -1   -1    0    0    0  501 -0.00000000000E+00 -0.00000000000E+00 -0.83605015813E+01  0.83605031005E+01  0.50400000000E-02 0.  1.
         23    2    1    2    0    0  0.00000000000E+00  0.00000000000E+00  0.23891340855E+03  0.25563441328E+03  0.90935892086E+02 0.  0.
    9000005    2    3    3    0    0 -0.50762347326E+01  0.33967542990E+02  0.20263010016E+03  0.20567402294E+03  0.79551293873E+01 0.  0.
         22    1    3    3    0    0  0.50762347326E+01 -0.33967542990E+02  0.36283308383E+02  0.49960390341E+02  0.00000000000E+00 0.  1.
         22    1    4    4    0    0 -0.36315315610E+01  0.85852555837E+01  0.40220665450E+02  0.41286760156E+02  0.00000000000E+00 0.  1.
         22    1    4    4    0    0 -0.14447031717E+01  0.25382287406E+02  0.16240943471E+03  0.16438726278E+03  0.00000000000E+00 0.  1.
<mgrwt>
<rscale>  0 0.90935892E+02</rscale>
<asrwt>0</asrwt>
<pdfrwt beam="1">  1        1 0.38042143E-01 0.90935892E+02</pdfrwt>
<pdfrwt beam="2">  1       -1 0.12862310E-02 0.90935892E+02</pdfrwt>
<totfact> 0.12428178E+05</totfact>
</mgrwt>
</event>
<event>
 7    1  0.2787125E-009  0.9373467E+02  0.7818608E-02  0.1294052E+00
          1   -1    0    0  501    0  0.00000000000E+00  0.00000000000E+00  0.25060889819E+03  0.25060889824E+03  0.50400000000E-02 0. -1.
         -1   -1    0    0    0  501 -0.00000000000E+00 -0.00000000000E+00 -0.87648407861E+01  0.87648422351E+01  0.50400000000E-02 0.  1.
         23    2    1    2    0    0  0.00000000000E+00  0.00000000000E+00  0.24184405741E+03  0.25937374048E+03  0.93734674198E+02 0.  0.
    9000005    2    3    3    0    0 -0.16685800759E+01 -0.36412133708E+02  0.19994908712E+03  0.20384162206E+03  0.15593004955E+02 0.  0.
         22    1    3    3    0    0  0.16685800759E+01  0.36412133708E+02  0.41894970286E+02  0.55532118418E+02  0.00000000000E+00 0.  1.
         22    1    4    4    0    0 -0.19463248381E+01 -0.42543236563E+01  0.84288693974E+01  0.96401913605E+01  0.00000000000E+00 0. -1.
         22    1    4    4    0    0  0.27774476222E+00 -0.32157810052E+02  0.19152021772E+03  0.19420143070E+03  0.00000000000E+00 0. -1.
<mgrwt>
<rscale>  0 0.93734674E+02</rscale>
<asrwt>0</asrwt>
<pdfrwt beam="1">  1        1 0.38555210E-01 0.93734674E+02</pdfrwt>
<pdfrwt beam="2">  1       -1 0.13484373E-02 0.93734674E+02</pdfrwt>
<totfact> 0.11489554E+05</totfact>
</mgrwt>
</event>
<event>
 7    1  0.2787125E-009  0.8938536E+02  0.7818608E-02  0.1304347E+00
          1   -1    0    0  501    0  0.00000000000E+00  0.00000000000E+00  0.41391114631E+03  0.41391114634E+03  0.50400000000E-02 0. -1.
         -1   -1    0    0    0  501 -0.00000000000E+00 -0.00000000000E+00 -0.48257583166E+01  0.48257609485E+01  0.50400000000E-02 0.  1.
         23    2    1    2    0    0 -0.17763568394E-14  0.00000000000E+00  0.40908538800E+03  0.41873690729E+03  0.89385361534E+02 0.  0.
    9000005    2    3    3    0    0  0.10538387401E+02  0.40656774463E+02  0.26083917700E+03  0.26465585721E+03  0.15543988561E+02 0.  0.
         22    1    3    3    0    0 -0.10538387401E+02 -0.40656774463E+02  0.14824621100E+03  0.15408105008E+03  0.00000000000E+00 0.  1.
         22    1    4    4    0    0  0.17039750140E+01 -0.26868781289E+00  0.31853088378E+01  0.36224185817E+01  0.00000000000E+00 0. -1.
         22    1    4    4    0    0  0.88344123873E+01  0.40925462276E+02  0.25765386816E+03  0.26103343863E+03  0.00000000000E+00 0. -1.
<mgrwt>
<rscale>  0 0.89385362E+02</rscale>
<asrwt>0</asrwt>
<pdfrwt beam="1">  1        1 0.63678630E-01 0.89385362E+02</pdfrwt>
<pdfrwt beam="2">  1       -1 0.74242466E-03 0.89385362E+02</pdfrwt>
<totfact> 0.14296202E+05</totfact>
</mgrwt>
</event>
<event>
 7    1  0.2787125E-009  0.9454376E+02  0.7818608E-02  0.1292207E+00
         -1   -1    0    0    0  501 -0.00000000000E+00  0.00000000000E+00  0.29232537875E+03  0.29232537879E+03  0.50400000000E-02 0.  1.
          1   -1    0    0  501    0  0.00000000000E+00 -0.00000000000E+00 -0.76443260193E+01  0.76443276807E+01  0.50400000000E-02 0. -1.
         23    2    1    2    0    0  0.00000000000E+00  0.00000000000E+00  0.28468105273E+03  0.29996970647E+03  0.94543762450E+02 0.  0.
    9000005    2    3    3    0    0 -0.37417697531E+02  0.26386081576E+02  0.12719954121E+03  0.13596746302E+03  0.14529911378E+02 0.  0.
         22    1    3    3    0    0  0.37417697531E+02 -0.26386081576E+02  0.15748151151E+03  0.16400224346E+03  0.00000000000E+00 0. -1.
         22    1    4    4    0    0 -0.27560786594E+02  0.12211164493E+02  0.90966922107E+02  0.95831573156E+02  0.00000000000E+00 0. -1.
         22    1    4    4    0    0 -0.98569109369E+01  0.14174917084E+02  0.36232619108E+02  0.40135889861E+02  0.00000000000E+00 0. -1.
<mgrwt>
<rscale>  0 0.94543762E+02</rscale>
<asrwt>0</asrwt>
<pdfrwt beam="2">  1        1 0.11760505E-02 0.94543762E+02</pdfrwt>
<pdfrwt beam="1">  1       -1 0.44973129E-01 0.94543762E+02</pdfrwt>
<totfact> 0.55655305E+04</totfact>
</mgrwt>
</event>
<event>
 7    1  0.2787125E-009  0.9222576E+02  0.7818608E-02  0.1297549E+00
         -1   -1    0    0    0  501 -0.00000000000E+00  0.00000000000E+00  0.89516455862E+01  0.89516470050E+01  0.50400000000E-02 0.  1.
          1   -1    0    0  501    0  0.00000000000E+00 -0.00000000000E+00 -0.23754266192E+03  0.23754266197E+03  0.50400000000E-02 0. -1.
         23    2    1    2    0    0  0.71054273576E-14  0.17763568394E-14 -0.22859101633E+03  0.24649430898E+03  0.92225764351E+02 0.  0.
    9000005    2    3    3    0    0  0.36532922116E+02  0.12825462864E+02 -0.18062409549E+03  0.18485039288E+03  0.67421793711E+01 0.  0.
         22    1    3    3    0    0 -0.36532922116E+02 -0.12825462864E+02 -0.47966920848E+02  0.61643916096E+02  0.00000000000E+00 0.  1.
         22    1    4    4    0    0  0.36163742602E+02  0.12562424605E+02 -0.17176355590E+03  0.17597826550E+03  0.00000000000E+00 0. -1.
         22    1    4    4    0    0  0.36917951365E+00  0.26303825887E+00 -0.88605395825E+01  0.88721273848E+01  0.00000000000E+00 0. -1.
<mgrwt>
<rscale>  0 0.92225764E+02</rscale>
<asrwt>0</asrwt>
<pdfrwt beam="2">  1        1 0.36545020E-01 0.92225764E+02</pdfrwt>
<pdfrwt beam="1">  1       -1 0.13771765E-02 0.92225764E+02</pdfrwt>
<totfact> 0.11875091E+05</totfact>
</mgrwt>
</event>
<event>
 7    1  0.2787125E-009  0.9090756E+02  0.7818608E-02  0.1300669E+00
         -1   -1    0    0    0  501 -0.00000000000E+00  0.00000000000E+00  0.17991121148E+01  0.17991191742E+01  0.50400000000E-02 0.  1.
          1   -1    0    0  501    0  0.00000000000E+00 -0.00000000000E+00 -0.11483675318E+04  0.11483675318E+04  0.50400000000E-02 0. -1.
         23    2    1    2    0    0  0.88817841970E-15  0.00000000000E+00 -0.11465684197E+04  0.11501666510E+04  0.90907557548E+02 0.  0.
    9000005    2    3    3    0    0 -0.72722352400E+01  0.20707539212E+02 -0.10764456640E+04  0.10766895222E+04  0.65857534611E+01 0.  0.
         22    1    3    3    0    0  0.72722352400E+01 -0.20707539212E+02 -0.70122755725E+02  0.73477128796E+02  0.00000000000E+00 0.  1.
         22    1    4    4    0    0 -0.39538387917E+01  0.17243746152E+02 -0.75003867379E+03  0.75024728710E+03  0.00000000000E+00 0.  1.
         22    1    4    4    0    0 -0.33183964483E+01  0.34637930597E+01 -0.32640699021E+03  0.32644223513E+03  0.00000000000E+00 0.  1.
<mgrwt>
<rscale>  0 0.90907558E+02</rscale>
<asrwt>0</asrwt>
<pdfrwt beam="2">  1        1 0.17667134E+00 0.90907558E+02</pdfrwt>
<pdfrwt beam="1">  1       -1 0.27678794E-03 0.90907558E+02</pdfrwt>
<totfact> 0.13082301E+05</totfact>
</mgrwt>
</event>
<event>
 7    1  0.2787125E-009  0.9092486E+02  0.7818608E-02  0.1300627E+00
          1   -1    0    0  501    0  0.00000000000E+00  0.00000000000E+00  0.25380202964E+03  0.25380202969E+03  0.50400000000E-02 0. -1.
         -1   -1    0    0    0  501 -0.00000000000E+00 -0.00000000000E+00 -0.81434816999E+01  0.81434832595E+01  0.50400000000E-02 0.  1.
         23    2    1    2    0    0 -0.71054273576E-14 -0.17763568394E-14  0.24565854794E+03  0.26194551295E+03  0.90924856769E+02 0.  0.
    9000005    2    3    3    0    0  0.43912948408E+02  0.10650256698E+02  0.11343807492E+03  0.12221710320E+03  0.52008141065E+01 0.  0.
         22    1    3    3    0    0 -0.43912948408E+02 -0.10650256698E+02  0.13222047302E+03  0.13972840975E+03  0.00000000000E+00 0.  1.
         22    1    4    4    0    0  0.14936030176E+02  0.50258236536E+01  0.45199613012E+02  0.47868036488E+02  0.00000000000E+00 0. -1.
         22    1    4    4    0    0  0.28976918232E+02  0.56244330440E+01  0.68238461912E+02  0.74349066715E+02  0.00000000000E+00 0. -1.
<mgrwt>
<rscale>  0 0.90924857E+02</rscale>
<asrwt>0</asrwt>
<pdfrwt beam="1">  1        1 0.39046468E-01 0.90924857E+02</pdfrwt>
<pdfrwt beam="2">  1       -1 0.12528434E-02 0.90924857E+02</pdfrwt>
<totfact> 0.12495400E+05</totfact>
</mgrwt>
</event>
<event>
 7    1  0.2787125E-009  0.9034932E+02  0.7818608E-02  0.1302008E+00
         -1   -1    0    0    0  501 -0.00000000000E+00  0.00000000000E+00  0.14760923976E+02  0.14760924837E+02  0.50400000000E-02 0.  1.
          1   -1    0    0  501    0  0.00000000000E+00 -0.00000000000E+00 -0.13825352211E+03  0.13825352220E+03  0.50400000000E-02 0. -1.
         23    2    1    2    0    0  0.00000000000E+00  0.71054273576E-14 -0.12349259813E+03  0.15301444703E+03  0.90349317697E+02 0.  0.
    9000005    2    3    3    0    0 -0.11947970190E+02 -0.41312712422E+02 -0.84119652609E+02  0.94707303061E+02  0.66229222184E+01 0.  0.
         22    1    3    3    0    0  0.11947970190E+02  0.41312712422E+02 -0.39372945521E+02  0.58307143973E+02  0.00000000000E+00 0.  1.
         22    1    4    4    0    0 -0.47633901013E+01 -0.27549494179E+02 -0.55721845026E+02  0.62342509797E+02  0.00000000000E+00 0. -1.
         22    1    4    4    0    0 -0.71845800889E+01 -0.13763218243E+02 -0.28397807583E+02  0.32364793263E+02  0.00000000000E+00 0. -1.
<mgrwt>
<rscale>  0 0.90349318E+02</rscale>
<asrwt>0</asrwt>
<pdfrwt beam="2">  1        1 0.21269772E-01 0.90349318E+02</pdfrwt>
<pdfrwt beam="1">  1       -1 0.22709115E-02 0.90349318E+02</pdfrwt>
<totfact> 0.11323219E+05</totfact>
</mgrwt>
</event>
<event>
 7    1  0.2787125E-009  0.9587845E+02  0.7818608E-02  0.1289210E+00
          1   -1    0    0  501    0  0.00000000000E+00  0.00000000000E+00  0.22696104136E+02  0.22696104696E+02  0.50400000000E-02 0. -1.
         -1   -1    0    0    0  501 -0.00000000000E+00 -0.00000000000E+00 -0.10125831185E+03  0.10125831198E+03  0.50400000000E-02 0.  1.
         23    2    1    2    0    0  0.71054273576E-14  0.00000000000E+00 -0.78562207715E+02  0.12395441667E+03  0.95878448733E+02 0.  0.
    9000005    2    3    3    0    0 -0.42903739993E+02 -0.19178255327E+02 -0.50661499369E+02  0.69301091897E+02  0.52457065339E+01 0.  0.
         22    1    3    3    0    0  0.42903739993E+02  0.19178255327E+02 -0.27900708346E+02  0.54653324775E+02  0.00000000000E+00 0. -1.
         22    1    4    4    0    0 -0.27944046696E+02 -0.14523816636E+02 -0.36175847841E+02  0.47963558692E+02  0.00000000000E+00 0. -1.
         22    1    4    4    0    0 -0.14959693297E+02 -0.46544386908E+01 -0.14485651528E+02  0.21337533205E+02  0.00000000000E+00 0. -1.
<mgrwt>
<rscale>  0 0.95878449E+02</rscale>
<asrwt>0</asrwt>
<pdfrwt beam="1">  1        1 0.34917084E-02 0.95878449E+02</pdfrwt>
<pdfrwt beam="2">  1       -1 0.15578202E-01 0.95878449E+02</pdfrwt>
<totfact> 0.71303975E+04</totfact>
</mgrwt>
</event>
<event>
 6    1  0.2787125E-009  0.1371922E+03  0.7818608E-02  0.1217158E+00
         -1   -1    0    0    0  501 -0.00000000000E+00  0.00000000000E+00  0.44631460993E+02  0.44631461277E+02  0.50400000000E-02 0.  1.
          1   -1    0    0  501    0  0.00000000000E+00 -0.00000000000E+00 -0.10542841398E+03  0.10542841410E+03  0.50400000000E-02 0. -1.
    9000005    2    1    2    0    0 -0.32258876637E+02 -0.38525001456E+02 -0.80896378313E+02  0.95941507356E+02  0.11650663096E+02 0.  0.
         22    1    1    2    0    0  0.32258876637E+02  0.38525001456E+02  0.20099425324E+02  0.54118368023E+02  0.00000000000E+00 0.  1.
         22    1    3    3    0    0 -0.21212535935E+02 -0.32860952153E+02 -0.59488100064E+02  0.71194437328E+02  0.00000000000E+00 0. -1.
         22    1    3    3    0    0 -0.11046340702E+02 -0.56640493030E+01 -0.21408278249E+02  0.24747070029E+02  0.00000000000E+00 0. -1.
<mgrwt>
<rscale>  0 0.13719219E+03</rscale>
<asrwt>0</asrwt>
<pdfrwt beam="2">  1        1 0.16219756E-01 0.13719219E+03</pdfrwt>
<pdfrwt beam="1">  1       -1 0.68663787E-02 0.13719219E+03</pdfrwt>
<totfact> 0.33559525E+04</totfact>
</mgrwt>
</event>
<event>
 7    1  0.2787125E-009  0.9152767E+02  0.7818608E-02  0.1299194E+00
         -1   -1    0    0    0  501 -0.00000000000E+00  0.00000000000E+00  0.65673940037E+01  0.65673959376E+01  0.50400000000E-02 0.  1.
          1   -1    0    0  501    0  0.00000000000E+00 -0.00000000000E+00 -0.31889793286E+03  0.31889793290E+03  0.50400000000E-02 0. -1.
         23    2    1    2    0    0  0.00000000000E+00  0.00000000000E+00 -0.31233053886E+03  0.32546532884E+03  0.91527672171E+02 0.  0.
    9000005    2    3    3    0    0 -0.16023836850E+02  0.41520945009E+02 -0.18594182208E+03  0.19146958283E+03  0.10270721771E+02 0.  0.
         22    1    3    3    0    0  0.16023836850E+02 -0.41520945009E+02 -0.12638871677E+03  0.13399574601E+03  0.00000000000E+00 0. -1.
         22    1    4    4    0    0 -0.16716408408E+02  0.33138320730E+02 -0.15720535828E+03  0.16152743198E+03  0.00000000000E+00 0. -1.
         22    1    4    4    0    0  0.69257155823E+00  0.83826242793E+01 -0.28736463803E+02  0.29942150843E+02  0.00000000000E+00 0. -1.
<mgrwt>
<rscale>  0 0.91527672E+02</rscale>
<asrwt>0</asrwt>
<pdfrwt beam="2">  1        1 0.49061208E-01 0.91527672E+02</pdfrwt>
<pdfrwt beam="1">  1       -1 0.10103687E-02 0.91527672E+02</pdfrwt>
<totfact> 0.12828837E+05</totfact>
</mgrwt>
</event>
<event>
 7    1  0.2787125E-009  0.9129292E+02  0.7818608E-02  0.1299751E+00
         -1   -1    0    0    0  501 -0.00000000000E+00  0.00000000000E+00  0.15359733241E+01  0.15359815930E+01  0.50400000000E-02 0.  1.
          1   -1    0    0  501    0  0.00000000000E+00 -0.00000000000E+00 -0.13565298377E+04  0.13565298377E+04  0.50400000000E-02 0. -1.
         23    2    1    2    0    0  0.35527136788E-14 -0.17763568394E-14 -0.13549938643E+04  0.13580658193E+04  0.91292919006E+02 0.  0.
    9000005    2    3    3    0    0  0.27919975963E+02 -0.12882397322E+02 -0.11763155963E+04  0.11767610904E+04  0.10139067944E+02 0.  0.
         22    1    3    3    0    0 -0.27919975963E+02  0.12882397322E+02 -0.17867826804E+03  0.18130472881E+03  0.00000000000E+00 0.  1.
         22    1    4    4    0    0  0.99284851214E+00 -0.35244955890E+01 -0.18249727393E+03  0.18253400453E+03  0.00000000000E+00 0. -1.
         22    1    4    4    0    0  0.26927127451E+02 -0.93579017328E+01 -0.99381832236E+03  0.99422708592E+03  0.00000000000E+00 0. -1.
<mgrwt>
<rscale>  0 0.91292919E+02</rscale>
<asrwt>0</asrwt>
<pdfrwt beam="2">  1        1 0.20869594E+00 0.91292919E+02</pdfrwt>
<pdfrwt beam="1">  1       -1 0.23630531E-03 0.91292919E+02</pdfrwt>
<totfact> 0.11852444E+05</totfact>
</mgrwt>
</event>
<event>
 7    1  0.2787125E-009  0.8692069E+02  0.7818608E-02  0.1310485E+00
          1   -1    0    0  501    0  0.00000000000E+00  0.00000000000E+00  0.14065084033E+04  0.14065084033E+04  0.50400000000E-02 0. -1.
         -1   -1    0    0    0  501 -0.00000000000E+00 -0.00000000000E+00 -0.13428964415E+01  0.13429058993E+01  0.50400000000E-02 0.  1.
         23    2    1    2    0    0  0.00000000000E+00  0.00000000000E+00  0.14051655068E+04  0.14078513092E+04  0.86920694743E+02 0.  0.
    9000005    2    3    3    0    0 -0.11438899472E+02  0.74777092127E+01  0.13705400598E+04  0.13706265038E+04  0.70846838589E+01 0.  0.
         22    1    3    3    0    0  0.11438899472E+02 -0.74777092127E+01  0.34625447014E+02  0.37224805401E+02  0.00000000000E+00 0.  1.
         22    1    4    4    0    0 -0.11203845524E+02  0.77493999230E+01  0.13670744083E+04  0.13671422813E+04  0.00000000000E+00 0.  1.
         22    1    4    4    0    0 -0.23505394755E+00 -0.27169071024E+00  0.34656515224E+01  0.34842225352E+01  0.00000000000E+00 0.  1.
<mgrwt>
<rscale>  0 0.86920695E+02</rscale>
<asrwt>0</asrwt>
<pdfrwt beam="1">  1        1 0.21638724E+00 0.86920695E+02</pdfrwt>
<pdfrwt beam="2">  1       -1 0.20659891E-03 0.86920695E+02</pdfrwt>
<totfact> 0.13167638E+05</totfact>
</mgrwt>
</event>
<event>
 7    1  0.2787125E-009  0.9173283E+02  0.7818608E-02  0.1298709E+00
          1   -1    0    0  501    0  0.00000000000E+00  0.00000000000E+00  0.83558084166E+02  0.83558084318E+02  0.50400000000E-02 0. -1.
         -1   -1    0    0    0  501 -0.00000000000E+00 -0.00000000000E+00 -0.25176833884E+02  0.25176834389E+02  0.50400000000E-02 0.  1.
         23    2    1    2    0    0  0.71054273576E-14  0.88817841970E-15  0.58381250282E+02  0.10873491871E+03  0.91732830337E+02 0.  0.
    9000005    2    3    3    0    0 -0.45113349726E+02 -0.54556428729E+01  0.31471540444E+02  0.55922885550E+02  0.84813269999E+01 0.  0.
         22    1    3    3    0    0  0.45113349726E+02  0.54556428729E+01  0.26909709838E+02  0.52812033157E+02  0.00000000000E+00 0. -1.
         22    1    4    4    0    0 -0.37715050392E+02 -0.33476740376E+01  0.29452499494E+02  0.47969591138E+02  0.00000000000E+00 0.  1.
         22    1    4    4    0    0 -0.73982993340E+01 -0.21079688353E+01  0.20190409505E+01  0.79532944121E+01  0.00000000000E+00 0.  1.
<mgrwt>
<rscale>  0 0.91732830E+02</rscale>
<asrwt>0</asrwt>
<pdfrwt beam="1">  1        1 0.12855090E-01 0.91732830E+02</pdfrwt>
<pdfrwt beam="2">  1       -1 0.38733591E-02 0.91732830E+02</pdfrwt>
<totfact> 0.99763002E+04</totfact>
</mgrwt>
</event>
<event>
 7    1  0.3777267E-009  0.1192818E+03  0.7818608E-02  0.1244287E+00
         -1   -1    0    0    0  501 -0.00000000000E+00  0.00000000000E+00  0.18397180477E+01  0.18397249514E+01  0.50400000000E-02 0.  1.
          1   -1    0    0  501    0  0.00000000000E+00 -0.00000000000E+00 -0.19334634878E+04  0.19334634878E+04  0.50400000000E-02 0. -1.
         23    2    1    2    0    0  0.00000000000E+00 -0.35527136788E-14 -0.19316237697E+04  0.19353032127E+04  0.11928175652E+03 0.  0.
    9000005    2    3    3    0    0 -0.21687158247E+02 -0.28401827457E+02 -0.17370868686E+04  0.17375113966E+04  0.14073647522E+02 0.  0.
         22    1    3    3    0    0  0.21687158247E+02  0.28401827457E+02 -0.19453690108E+03  0.19779181611E+03  0.00000000000E+00 0.  1.
         22    1    4    4    0    0 -0.82108564727E+01 -0.16289536480E+01 -0.33988005806E+03  0.33998312534E+03  0.00000000000E+00 0.  1.
         22    1    4    4    0    0 -0.13476301775E+02 -0.26772873809E+02 -0.13972068106E+04  0.13975282713E+04  0.00000000000E+00 0.  1.
<mgrwt>
<rscale>  0 0.11928176E+03</rscale>
<asrwt>0</asrwt>
<pdfrwt beam="2">  1        1 0.29745430E+00 0.11928176E+03</pdfrwt>
<pdfrwt beam="1">  1       -1 0.28303562E-03 0.11928176E+03</pdfrwt>
<totfact> 0.40684282E+04</totfact>
</mgrwt>
</event>
<event>
 7    1  0.2787125E-009  0.9353923E+02  0.7818608E-02  0.1294500E+00
         -1   -1    0    0    0  501 -0.00000000000E+00  0.00000000000E+00  0.82173567053E+02  0.82173567208E+02  0.50400000000E-02 0.  1.
          1   -1    0    0  501    0  0.00000000000E+00 -0.00000000000E+00 -0.26619226634E+02  0.26619227111E+02  0.50400000000E-02 0. -1.
         23    2    1    2    0    0  0.00000000000E+00  0.00000000000E+00  0.55554340419E+02  0.10879279432E+03  0.93539228970E+02 0.  0.
    9000005    2    3    3    0    0  0.13850872397E+02  0.16692142863E+02  0.75847233112E+02  0.79089666649E+02  0.56478580283E+01 0.  0.
         22    1    3    3    0    0 -0.13850872397E+02 -0.16692142863E+02 -0.20292892693E+02  0.29703127670E+02  0.00000000000E+00 0. -1.
         22    1    4    4    0    0 -0.13860649889E-02  0.49885398584E+00  0.27333748467E+00  0.56883266511E+00  0.00000000000E+00 0.  1.
         22    1    4    4    0    0  0.13852258462E+02  0.16193288877E+02  0.75573895628E+02  0.78520833984E+02  0.00000000000E+00 0.  1.
<mgrwt>
<rscale>  0 0.93539229E+02</rscale>
<asrwt>0</asrwt>
<pdfrwt beam="2">  1        1 0.40952657E-02 0.93539229E+02</pdfrwt>
<pdfrwt beam="1">  1       -1 0.12642087E-01 0.93539229E+02</pdfrwt>
<totfact> 0.78914399E+04</totfact>
</mgrwt>
</event>
<event>
 7    1  0.2787125E-009  0.9302300E+02  0.7818608E-02  0.1295692E+00
         -1   -1    0    0    0  501 -0.00000000000E+00  0.00000000000E+00  0.10525626116E+03  0.10525626128E+03  0.50400000000E-02 0.  1.
          1   -1    0    0  501    0  0.00000000000E+00 -0.00000000000E+00 -0.20552882418E+02  0.20552883036E+02  0.50400000000E-02 0. -1.
         23    2    1    2    0    0  0.00000000000E+00  0.35527136788E-14  0.84703378744E+02  0.12580914432E+03  0.93022999433E+02 0.  0.
    9000005    2    3    3    0    0  0.12093649645E+02 -0.23096667354E+02 -0.97203004392E+01  0.27852298743E+02  0.12465552773E+01 0.  0.
         22    1    3    3    0    0 -0.12093649645E+02  0.23096667354E+02  0.94423679183E+02  0.97956845575E+02  0.00000000000E+00 0.  1.
         22    1    4    4    0    0  0.33136976385E+01 -0.57269678386E+01 -0.29666036168E+01  0.72511716076E+01  0.00000000000E+00 0.  1.
         22    1    4    4    0    0  0.87799520068E+01 -0.17369699515E+02 -0.67536968224E+01  0.20601127136E+02  0.00000000000E+00 0.  1.
<mgrwt>
<rscale>  0 0.93022999E+02</rscale>
<asrwt>0</asrwt>
<pdfrwt beam="2">  1        1 0.31619820E-02 0.93022999E+02</pdfrwt>
<pdfrwt beam="1">  1       -1 0.16193271E-01 0.93022999E+02</pdfrwt>
<totfact> 0.76524996E+04</totfact>
</mgrwt>
</event>
<event>
 7    1  0.2787125E-009  0.9119966E+02  0.7818608E-02  0.1299972E+00
          1   -1    0    0  501    0  0.00000000000E+00  0.00000000000E+00  0.16935118065E+03  0.16935118072E+03  0.50400000000E-02 0. -1.
         -1   -1    0    0    0  501 -0.00000000000E+00 -0.00000000000E+00 -0.12278298830E+02  0.12278299864E+02  0.50400000000E-02 0.  1.
         23    2    1    2    0    0  0.00000000000E+00 -0.88817841970E-15  0.15707288182E+03  0.18162948058E+03  0.91199660172E+02 0.  0.
    9000005    2    3    3    0    0  0.25753691390E+02 -0.76859942444E+01  0.15087208286E+03  0.15404729366E+03  0.15679801367E+02 0.  0.
         22    1    3    3    0    0 -0.25753691390E+02  0.76859942444E+01  0.62007989578E+01  0.27582186923E+02  0.00000000000E+00 0.  1.
         22    1    4    4    0    0  0.26653389568E+02 -0.83385983237E+01  0.15014258125E+03  0.15271781200E+03  0.00000000000E+00 0.  1.
         22    1    4    4    0    0 -0.89969817823E+00  0.65260407930E+00  0.72950160925E+00  0.13294816637E+01  0.00000000000E+00 0.  1.
<mgrwt>
<rscale>  0 0.91199660E+02</rscale>
<asrwt>0</asrwt>
<pdfrwt beam="1">  1        1 0.26054026E-01 0.91199660E+02</pdfrwt>
<pdfrwt beam="2">  1       -1 0.18889693E-02 0.91199660E+02</pdfrwt>
<totfact> 0.11461566E+05</totfact>
</mgrwt>
</event>
<event>
 7    1  0.2787125E-009  0.8850702E+02  0.7818608E-02  0.1306508E+00
         -1   -1    0    0    0  501 -0.00000000000E+00  0.00000000000E+00  0.15832347622E+02  0.15832348424E+02  0.50400000000E-02 0.  1.
          1   -1    0    0  501    0  0.00000000000E+00 -0.00000000000E+00 -0.12369441020E+03  0.12369441030E+03  0.50400000000E-02 0. -1.
         23    2    1    2    0    0  0.00000000000E+00  0.00000000000E+00 -0.10786206258E+03  0.13952675872E+03  0.88507015864E+02 0.  0.
    9000005    2    3    3    0    0 -0.61042644449E+01 -0.40114720698E+02 -0.81597356144E+02  0.91191599006E+02  0.33654626122E+01 0.  0.
         22    1    3    3    0    0  0.61042644449E+01  0.40114720698E+02 -0.26264706432E+02  0.48335159719E+02  0.00000000000E+00 0.  1.
         22    1    4    4    0    0  0.30929897561E+00 -0.56402284802E+01 -0.11087362140E+02  0.12443369415E+02  0.00000000000E+00 0. -1.
         22    1    4    4    0    0 -0.64135634205E+01 -0.34474492218E+02 -0.70509994003E+02  0.78748229591E+02  0.00000000000E+00 0. -1.
<mgrwt>
<rscale>  0 0.88507016E+02</rscale>
<asrwt>0</asrwt>
<pdfrwt beam="2">  1        1 0.19029909E-01 0.88507016E+02</pdfrwt>
<pdfrwt beam="1">  1       -1 0.24357459E-02 0.88507016E+02</pdfrwt>
<totfact> 0.11737092E+05</totfact>
</mgrwt>
</event>
<event>
 7    1  0.2787125E-009  0.9075704E+02  0.7818608E-02  0.1301029E+00
          1   -1    0    0  501    0  0.00000000000E+00  0.00000000000E+00  0.41728560018E+02  0.41728560323E+02  0.50400000000E-02 0. -1.
         -1   -1    0    0    0  501 -0.00000000000E+00 -0.00000000000E+00 -0.49347738656E+02  0.49347738913E+02  0.50400000000E-02 0.  1.
         23    2    1    2    0    0 -0.17763568394E-14  0.17763568394E-14 -0.76191786371E+01  0.91076299236E+02  0.90757040495E+02 0.  0.
    9000005    2    3    3    0    0  0.13424156563E+02 -0.14317861274E+02 -0.44245776168E+02  0.49522517488E+02  0.10468137310E+02 0.  0.
         22    1    3    3    0    0 -0.13424156563E+02  0.14317861274E+02  0.36626597531E+02  0.41553781748E+02  0.00000000000E+00 0. -1.
         22    1    4    4    0    0  0.14711028363E+02 -0.12212407650E+02 -0.42155130799E+02  0.46288360403E+02  0.00000000000E+00 0. -1.
         22    1    4    4    0    0 -0.12868717996E+01 -0.21054536241E+01 -0.20906453690E+01  0.32341570850E+01  0.00000000000E+00 0. -1.
<mgrwt>
<rscale>  0 0.90757040E+02</rscale>
<asrwt>0</asrwt>
<pdfrwt beam="1">  1        1 0.64197785E-02 0.90757040E+02</pdfrwt>
<pdfrwt beam="2">  1       -1 0.75919598E-02 0.90757040E+02</pdfrwt>
<totfact> 0.92440985E+04</totfact>
</mgrwt>
</event>
<event>
 7    1  0.2787125E-009  0.9544027E+02  0.7818608E-02  0.1290188E+00
         -1   -1    0    0    0  501 -0.00000000000E+00  0.00000000000E+00  0.37964027259E+03  0.37964027262E+03  0.50400000000E-02 0.  1.
          1   -1    0    0  501    0  0.00000000000E+00 -0.00000000000E+00 -0.59983378909E+01  0.59983400083E+01  0.50400000000E-02 0. -1.
         23    2    1    2    0    0  0.00000000000E+00  0.00000000000E+00  0.37364193470E+03  0.38563861263E+03  0.95440265019E+02 0.  0.
    9000005    2    3    3    0    0  0.10840553432E+02  0.52121487083E+01  0.37331771710E+03  0.37360577382E+03  0.83947745504E+01 0.  0.
         22    1    3    3    0    0 -0.10840553432E+02 -0.52121487083E+01  0.32421760417E+00  0.12032838814E+02  0.00000000000E+00 0. -1.
         22    1    4    4    0    0  0.31375283721E+01  0.36138267745E+01  0.24522578486E+03  0.24527247989E+03  0.00000000000E+00 0.  1.
         22    1    4    4    0    0  0.77030250604E+01  0.15983219339E+01  0.12809193223E+03  0.12833329393E+03  0.00000000000E+00 0.  1.
<mgrwt>
<rscale>  0 0.95440265E+02</rscale>
<asrwt>0</asrwt>
<pdfrwt beam="2">  1        1 0.92282152E-03 0.95440265E+02</pdfrwt>
<pdfrwt beam="1">  1       -1 0.58406187E-01 0.95440265E+02</pdfrwt>
<totfact> 0.48501272E+04</totfact>
</mgrwt>
</event>
<event>
 7    1  0.2787125E-009  0.9145108E+02  0.7818608E-02  0.1299375E+00
          1   -1    0    0  501    0  0.00000000000E+00  0.00000000000E+00  0.38742384049E+02  0.38742384377E+02  0.50400000000E-02 0. -1.
         -1   -1    0    0    0  501 -0.00000000000E+00 -0.00000000000E+00 -0.53967383660E+02  0.53967383896E+02  0.50400000000E-02 0.  1.
         23    2    1    2    0    0  0.00000000000E+00 -0.17763568394E-14 -0.15224999611E+02  0.92709768273E+02  0.91451082662E+02 0.  0.
    9000005    2    3    3    0    0  0.23478921699E+01 -0.10235037684E+02  0.37297222273E+02  0.39148099276E+02  0.55876912601E+01 0.  0.
         22    1    3    3    0    0 -0.23478921699E+01  0.10235037684E+02 -0.52522221884E+02  0.53561668996E+02  0.00000000000E+00 0.  1.
         22    1    4    4    0    0  0.21300193969E+01 -0.62520700506E+00  0.86940808645E+01  0.89730100027E+01  0.00000000000E+00 0.  1.
         22    1    4    4    0    0  0.21787277291E+00 -0.96098306790E+01  0.28603141409E+02  0.30175089274E+02  0.00000000000E+00 0.  1.
<mgrwt>
<rscale>  0 0.91451083E+02</rscale>
<asrwt>0</asrwt>
<pdfrwt beam="1">  1        1 0.59603668E-02 0.91451083E+02</pdfrwt>
<pdfrwt beam="2">  1       -1 0.83026745E-02 0.91451083E+02</pdfrwt>
<totfact> 0.89459257E+04</totfact>
</mgrwt>
</event>
<event>
 7    1  0.2787125E-009  0.9375019E+02  0.7818608E-02  0.1294016E+00
          1   -1    0    0  501    0  0.00000000000E+00  0.00000000000E+00  0.28572286746E+03  0.28572286750E+03  0.50400000000E-02 0. -1.
         -1   -1    0    0    0  501 -0.00000000000E+00 -0.00000000000E+00 -0.76902286975E+01  0.76902303491E+01  0.50400000000E-02 0.  1.
         23    2    1    2    0    0  0.00000000000E+00 -0.35527136788E-14  0.27803263876E+03  0.29341309785E+03  0.93750188132E+02 0.  0.
    9000005    2    3    3    0    0 -0.35760243796E+02 -0.26752844001E+02  0.10250546731E+03  0.11229353067E+03  0.10390211910E+02 0.  0.
         22    1    3    3    0    0  0.35760243796E+02  0.26752844001E+02  0.17552717145E+03  0.18111956718E+03  0.00000000000E+00 0. -1.
         22    1    4    4    0    0 -0.12106192324E+02 -0.84383665276E+01  0.22799431983E+02  0.27158424494E+02  0.00000000000E+00 0. -1.
         22    1    4    4    0    0 -0.23654051472E+02 -0.18314477473E+02  0.79706035329E+02  0.85135106179E+02  0.00000000000E+00 0. -1.
<mgrwt>
<rscale>  0 0.93750188E+02</rscale>
<asrwt>0</asrwt>
<pdfrwt beam="1">  1        1 0.43957368E-01 0.93750188E+02</pdfrwt>
<pdfrwt beam="2">  1       -1 0.11831121E-02 0.93750188E+02</pdfrwt>
<totfact> 0.11783246E+05</totfact>
</mgrwt>
</event>
<event>
 7    1  0.2787125E-009  0.8903642E+02  0.7818608E-02  0.1305202E+00
          1   -1    0    0  501    0  0.00000000000E+00  0.00000000000E+00  0.85005164969E+01  0.85005179910E+01  0.50400000000E-02 0. -1.
         -1   -1    0    0    0  501 -0.00000000000E+00 -0.00000000000E+00 -0.23314710589E+03  0.23314710594E+03  0.50400000000E-02 0.  1.
         23    2    1    2    0    0  0.00000000000E+00  0.35527136788E-14 -0.22464658939E+03  0.24164762393E+03  0.89036419669E+02 0.  0.
    9000005    2    3    3    0    0  0.52067390520E+01  0.28875324987E+02 -0.20209610612E+03  0.20464196463E+03  0.13213744901E+02 0.  0.
         22    1    3    3    0    0 -0.52067390520E+01 -0.28875324987E+02 -0.22550483270E+02  0.37005659302E+02  0.00000000000E+00 0. -1.
         22    1    4    4    0    0  0.55907702192E+00  0.22738659456E+02 -0.11644912951E+03  0.11864973225E+03  0.00000000000E+00 0. -1.
         22    1    4    4    0    0  0.46476620301E+01  0.61366655311E+01 -0.85646976611E+02  0.85992232375E+02  0.00000000000E+00 0. -1.
<mgrwt>
<rscale>  0 0.89036420E+02</rscale>
<asrwt>0</asrwt>
<pdfrwt beam="1">  1        1 0.13077721E-02 0.89036420E+02</pdfrwt>
<pdfrwt beam="2">  1       -1 0.35868781E-01 0.89036420E+02</pdfrwt>
<totfact> 0.70504948E+04</totfact>
</mgrwt>
</event>
<event>
 7    1  0.2787125E-009  0.9096721E+02  0.7818608E-02  0.1300526E+00
          1   -1    0    0  501    0  0.00000000000E+00  0.00000000000E+00  0.35753880571E+02  0.35753880926E+02  0.50400000000E-02 0. -1.
         -1   -1    0    0    0  501 -0.00000000000E+00 -0.00000000000E+00 -0.57861089315E+02  0.57861089535E+02  0.50400000000E-02 0.  1.
         23    2    1    2    0    0  0.71054273576E-14 -0.17763568394E-14 -0.22107208745E+02  0.93614970461E+02  0.90967213962E+02 0.  0.
    9000005    2    3    3    0    0 -0.38928414711E+02  0.13469889263E+02  0.78403005434E+01  0.42686464678E+02  0.79877759984E+01 0.  0.
         22    1    3    3    0    0  0.38928414711E+02 -0.13469889263E+02 -0.29947509288E+02  0.50928505783E+02  0.00000000000E+00 0.  1.
         22    1    4    4    0    0 -0.24927723504E+02  0.49402343784E+01  0.29789427506E+01  0.25586547534E+02  0.00000000000E+00 0. -1.
         22    1    4    4    0    0 -0.14000691207E+02  0.85296548850E+01  0.48613577929E+01  0.17099917144E+02  0.00000000000E+00 0. -1.
<mgrwt>
<rscale>  0 0.90967214E+02</rscale>
<asrwt>0</asrwt>
<pdfrwt beam="1">  1        1 0.55005971E-02 0.90967214E+02</pdfrwt>
<pdfrwt beam="2">  1       -1 0.89017061E-02 0.90967214E+02</pdfrwt>
<totfact> 0.89703035E+04</totfact>
</mgrwt>
</event>
<event>
 7    1  0.2787125E-009  0.9038288E+02  0.7818608E-02  0.1301927E+00
          1   -1    0    0  501    0  0.00000000000E+00  0.00000000000E+00  0.16696152376E+01  0.16696228446E+01  0.50400000000E-02 0. -1.
         -1   -1    0    0    0  501 -0.00000000000E+00 -0.00000000000E+00 -0.12231928266E+04  0.12231928266E+04  0.50400000000E-02 0.  1.
         23    2    1    2    0    0  0.00000000000E+00 -0.88817841970E-15 -0.12215232113E+04  0.12248624494E+04  0.90382875522E+02 0.  0.
    9000005    2    3    3    0    0 -0.25907399789E+02 -0.63783965127E+01 -0.11005998991E+04  0.11010306088E+04  0.15374861226E+02 0.  0.
         22    1    3    3    0    0  0.25907399789E+02  0.63783965127E+01 -0.12092331223E+03  0.12383184060E+03  0.00000000000E+00 0. -1.
         22    1    4    4    0    0 -0.18282974400E+00 -0.38743621403E+01 -0.27213163325E+03  0.27215927308E+03  0.00000000000E+00 0.  1.
         22    1    4    4    0    0 -0.25724570045E+02 -0.25040343723E+01 -0.82846826587E+03  0.82887133576E+03  0.00000000000E+00 0.  1.
<mgrwt>
<rscale>  0 0.90382876E+02</rscale>
<asrwt>0</asrwt>
<pdfrwt beam="1">  1        1 0.25686545E-03 0.90382876E+02</pdfrwt>
<pdfrwt beam="2">  1       -1 0.18818280E+00 0.90382876E+02</pdfrwt>
<totfact> 0.19985263E+04</totfact>
</mgrwt>
</event>
<event>
 7    1  0.2787125E-009  0.8851462E+02  0.7818608E-02  0.1306489E+00
         -1   -1    0    0    0  501 -0.00000000000E+00  0.00000000000E+00  0.26080874728E+01  0.26080923426E+01  0.50400000000E-02 0.  1.
          1   -1    0    0  501    0  0.00000000000E+00 -0.00000000000E+00 -0.75101293723E+03  0.75101293724E+03  0.50400000000E-02 0. -1.
         23    2    1    2    0    0  0.00000000000E+00  0.35527136788E-14 -0.74840484976E+03  0.75362102959E+03  0.88514615174E+02 0.  0.
    9000005    2    3    3    0    0  0.10707412331E+01 -0.27185272993E+02 -0.67130620464E+03  0.67186293132E+03  0.27554550827E+01 0.  0.
         22    1    3    3    0    0 -0.10707412331E+01  0.27185272993E+02 -0.77098645110E+02  0.81758098268E+02  0.00000000000E+00 0.  1.
         22    1    4    4    0    0  0.48620459082E+00 -0.22170745130E+02 -0.56956135787E+03  0.56999291111E+03  0.00000000000E+00 0. -1.
         22    1    4    4    0    0  0.58453664227E+00 -0.50145278629E+01 -0.10174484677E+03  0.10187002021E+03  0.00000000000E+00 0. -1.
<mgrwt>
<rscale>  0 0.88514615E+02</rscale>
<asrwt>0</asrwt>
<pdfrwt beam="2">  1        1 0.11554028E+00 0.88514615E+02</pdfrwt>
<pdfrwt beam="1">  1       -1 0.40124520E-03 0.88514615E+02</pdfrwt>
<totfact> 0.15344545E+05</totfact>
</mgrwt>
</event>
<event>
 7    1  0.2787125E-009  0.9033914E+02  0.7818608E-02  0.1302033E+00
          1   -1    0    0  501    0  0.00000000000E+00  0.00000000000E+00  0.67118112962E+02  0.67118113151E+02  0.50400000000E-02 0. -1.
         -1   -1    0    0    0  501 -0.00000000000E+00 -0.00000000000E+00 -0.30398498258E+02  0.30398498676E+02  0.50400000000E-02 0.  1.
         23    2    1    2    0    0  0.00000000000E+00  0.00000000000E+00  0.36719614704E+02  0.97516611827E+02  0.90339135917E+02 0.  0.
    9000005    2    3    3    0    0 -0.22766393848E+02 -0.14610072353E+02  0.56733088532E+02  0.63866915875E+02  0.11339166901E+02 0.  0.
         22    1    3    3    0    0  0.22766393848E+02  0.14610072353E+02 -0.20013473828E+02  0.33649695952E+02  0.00000000000E+00 0.  1.
         22    1    4    4    0    0 -0.23499663831E+02 -0.11905659016E+02  0.53130957700E+02  0.59303267894E+02  0.00000000000E+00 0. -1.
         22    1    4    4    0    0  0.73326998312E+00 -0.27044133368E+01  0.36021308321E+01  0.45636479812E+01  0.00000000000E+00 0. -1.
<mgrwt>
<rscale>  0 0.90339136E+02</rscale>
<asrwt>0</asrwt>
<pdfrwt beam="1">  1        1 0.10325863E-01 0.90339136E+02</pdfrwt>
<pdfrwt beam="2">  1       -1 0.46766922E-02 0.90339136E+02</pdfrwt>
<totfact> 0.10055877E+05</totfact>
</mgrwt>
</event>
<event>
 7    1  0.2787125E-009  0.8877091E+02  0.7818608E-02  0.1305856E+00
          1   -1    0    0  501    0  0.00000000000E+00  0.00000000000E+00  0.46869076700E+01  0.46869103798E+01  0.50400000000E-02 0. -1.
         -1   -1    0    0    0  501 -0.00000000000E+00 -0.00000000000E+00 -0.42033434209E+03  0.42033434212E+03  0.50400000000E-02 0.  1.
         23    2    1    2    0    0 -0.35527136788E-14  0.00000000000E+00 -0.41564743442E+03  0.42502125250E+03  0.88770914925E+02 0.  0.
    9000005    2    3    3    0    0  0.25062743273E+02  0.96644688208E+01 -0.37638046747E+03  0.37744565212E+03  0.90233560395E+01 0.  0.
         22    1    3    3    0    0 -0.25062743273E+02 -0.96644688208E+01 -0.39266966950E+02  0.47575600379E+02  0.00000000000E+00 0. -1.
         22    1    4    4    0    0  0.19488352153E+02  0.78495938366E+01 -0.33419943773E+03  0.33485918857E+03  0.00000000000E+00 0.  1.
         22    1    4    4    0    0  0.55743911198E+01  0.18148749842E+01 -0.42181029741E+02  0.42586463549E+02  0.00000000000E+00 0.  1.
<mgrwt>
<rscale>  0 0.88770915E+02</rscale>
<asrwt>0</asrwt>
<pdfrwt beam="1">  1        1 0.72106326E-03 0.88770915E+02</pdfrwt>
<pdfrwt beam="2">  1       -1 0.64666792E-01 0.88770915E+02</pdfrwt>
<totfact> 0.55708052E+04</totfact>
</mgrwt>
</event>
<event>
 7    1  0.2787125E-009  0.8913734E+02  0.7818608E-02  0.1304954E+00
          1   -1    0    0  501    0  0.00000000000E+00  0.00000000000E+00  0.16557205559E+03  0.16557205566E+03  0.50400000000E-02 0. -1.
         -1   -1    0    0    0  501 -0.00000000000E+00 -0.00000000000E+00 -0.11996990229E+02  0.11996991288E+02  0.50400000000E-02 0.  1.
         23    2    1    2    0    0  0.00000000000E+00 -0.35527136788E-14  0.15357506536E+03  0.17756904695E+03  0.89137341982E+02 0.  0.
    9000005    2    3    3    0    0  0.24696451385E+02 -0.19011295863E+02  0.13915255369E+03  0.14322733872E+03  0.13390043941E+02 0.  0.
         22    1    3    3    0    0 -0.24696451385E+02  0.19011295863E+02  0.14422511666E+02  0.34341708230E+02  0.00000000000E+00 0.  1.
         22    1    4    4    0    0  0.90612987486E+00 -0.57595284477E+01  0.14368422010E+02  0.15506282287E+02  0.00000000000E+00 0. -1.
         22    1    4    4    0    0  0.23790321510E+02 -0.13251767415E+02  0.12478413168E+03  0.12772105643E+03  0.00000000000E+00 0. -1.
<mgrwt>
<rscale>  0 0.89137342E+02</rscale>
<asrwt>0</asrwt>
<pdfrwt beam="1">  1        1 0.25472623E-01 0.89137342E+02</pdfrwt>
<pdfrwt beam="2">  1       -1 0.18456910E-02 0.89137342E+02</pdfrwt>
<totfact> 0.12136376E+05</totfact>
</mgrwt>
</event>
<event>
 7    1  0.2787125E-009  0.9518648E+02  0.7818608E-02  0.1290757E+00
         -1   -1    0    0    0  501 -0.00000000000E+00  0.00000000000E+00  0.77635372037E+01  0.77635388397E+01  0.50400000000E-02 0.  1.
          1   -1    0    0  501    0  0.00000000000E+00 -0.00000000000E+00 -0.29176339975E+03  0.29176339979E+03  0.50400000000E-02 0. -1.
         23    2    1    2    0    0  0.00000000000E+00 -0.55511151231E-16 -0.28399986255E+03  0.29952693863E+03  0.95186475093E+02 0.  0.
    9000005    2    3    3    0    0  0.41376345754E+02  0.13462942709E+00 -0.21337400657E+03  0.21767321761E+03  0.11880356546E+02 0.  0.
         22    1    3    3    0    0 -0.41376345754E+02 -0.13462942709E+00 -0.70625855977E+02  0.81853721024E+02  0.00000000000E+00 0.  1.
         22    1    4    4    0    0  0.28864032878E+02  0.69085227684E+00 -0.11802762587E+03  0.12150773696E+03  0.00000000000E+00 0.  1.
         22    1    4    4    0    0  0.12512312876E+02 -0.55622284975E+00 -0.95346380696E+02  0.96165480652E+02  0.00000000000E+00 0.  1.
<mgrwt>
<rscale>  0 0.95186475E+02</rscale>
<asrwt>0</asrwt>
<pdfrwt beam="2">  1        1 0.44886669E-01 0.95186475E+02</pdfrwt>
<pdfrwt beam="1">  1       -1 0.11943907E-02 0.95186475E+02</pdfrwt>
<totfact> 0.11359252E+05</totfact>
</mgrwt>
</event>
<event>
 7    1  0.2787125E-009  0.9125877E+02  0.7818608E-02  0.1299832E+00
          1   -1    0    0  501    0  0.00000000000E+00  0.00000000000E+00  0.74260819047E+02  0.74260819218E+02  0.50400000000E-02 0. -1.
         -1   -1    0    0    0  501 -0.00000000000E+00 -0.00000000000E+00 -0.28036866830E+02  0.28036867283E+02  0.50400000000E-02 0.  1.
         23    2    1    2    0    0 -0.35527136788E-14  0.00000000000E+00  0.46223952217E+02  0.10229768650E+03  0.91258768921E+02 0.  0.
    9000005    2    3    3    0    0  0.27446502063E+02  0.85207401078E+01 -0.14697574576E+02  0.34937862316E+02  0.13368696172E+02 0.  0.
         22    1    3    3    0    0 -0.27446502063E+02 -0.85207401078E+01  0.60921526793E+02  0.67359824185E+02  0.00000000000E+00 0. -1.
         22    1    4    4    0    0  0.29261779817E+01  0.33654712391E+01  0.19372438329E+01  0.48622862842E+01  0.00000000000E+00 0.  1.
         22    1    4    4    0    0  0.24520324081E+02  0.51552688686E+01 -0.16634818409E+02  0.30075576032E+02  0.00000000000E+00 0.  1.
<mgrwt>
<rscale>  0 0.91258769E+02</rscale>
<asrwt>0</asrwt>
<pdfrwt beam="1">  1        1 0.11424741E-01 0.91258769E+02</pdfrwt>
<pdfrwt beam="2">  1       -1 0.43133642E-02 0.91258769E+02</pdfrwt>
<totfact> 0.99329209E+04</totfact>
</mgrwt>
</event>
<event>
 7    1  0.2787125E-009  0.9103078E+02  0.7818608E-02  0.1300375E+00
          1   -1    0    0  501    0  0.00000000000E+00  0.00000000000E+00  0.43368493391E+01  0.43368522676E+01  0.50400000000E-02 0. -1.
         -1   -1    0    0    0  501 -0.00000000000E+00 -0.00000000000E+00 -0.47768551346E+03  0.47768551349E+03  0.50400000000E-02 0.  1.
         23    2    1    2    0    0  0.00000000000E+00  0.00000000000E+00 -0.47334866412E+03  0.48202236575E+03  0.91030781949E+02 0.  0.
    9000005    2    3    3    0    0  0.15445059870E+02  0.41124745366E+02 -0.29043166963E+03  0.29390426075E+03  0.99682098976E+01 0.  0.
         22    1    3    3    0    0 -0.15445059870E+02 -0.41124745366E+02 -0.18291699449E+03  0.18811810500E+03  0.00000000000E+00 0. -1.
         22    1    4    4    0    0  0.42694955695E+01  0.14243483875E+02 -0.70255298039E+02  0.71811644793E+02  0.00000000000E+00 0.  1.
         22    1    4    4    0    0  0.11175564300E+02  0.26881261492E+02 -0.22017637159E+03  0.22209261596E+03  0.00000000000E+00 0.  1.
<mgrwt>
<rscale>  0 0.91030782E+02</rscale>
<asrwt>0</asrwt>
<pdfrwt beam="1">  1        1 0.66720819E-03 0.91030782E+02</pdfrwt>
<pdfrwt beam="2">  1       -1 0.73490038E-01 0.91030782E+02</pdfrwt>
<totfact> 0.48562230E+04</totfact>
</mgrwt>
</event>
<event>
 7    1  0.2787125E-009  0.9144272E+02  0.7818608E-02  0.1299395E+00
          1   -1    0    0  501    0  0.00000000000E+00  0.00000000000E+00  0.20252192377E+03  0.20252192384E+03  0.50400000000E-02 0. -1.
         -1   -1    0    0    0  501 -0.00000000000E+00 -0.00000000000E+00 -0.10322055400E+02  0.10322056631E+02  0.50400000000E-02 0.  1.
         23    2    1    2    0    0  0.00000000000E+00  0.00000000000E+00  0.19219986837E+03  0.21284398047E+03  0.91442717689E+02 0.  0.
    9000005    2    3    3    0    0  0.54868290205E+01 -0.34028941151E+02  0.28258323594E+02  0.45318148927E+02  0.81931459953E+01 0.  0.
         22    1    3    3    0    0 -0.54868290205E+01  0.34028941151E+02  0.16394154478E+03  0.16752583154E+03  0.00000000000E+00 0. -1.
         22    1    4    4    0    0  0.30712134323E+01 -0.51174151567E+01  0.23261490495E+01  0.64055647084E+01  0.00000000000E+00 0. -1.
         22    1    4    4    0    0  0.24156155881E+01 -0.28911525994E+02  0.25932174545E+02  0.38912584219E+02  0.00000000000E+00 0. -1.
<mgrwt>
<rscale>  0 0.91442718E+02</rscale>
<asrwt>0</asrwt>
<pdfrwt beam="1">  1        1 0.31157217E-01 0.91442718E+02</pdfrwt>
<pdfrwt beam="2">  1       -1 0.15880087E-02 0.91442718E+02</pdfrwt>
<totfact> 0.11777034E+05</totfact>
</mgrwt>
</event>
<event>
 7    1  0.2787125E-009  0.8908582E+02  0.7818608E-02  0.1305081E+00
          1   -1    0    0  501    0  0.00000000000E+00  0.00000000000E+00  0.22922428227E+03  0.22922428233E+03  0.50400000000E-02 0. -1.
         -1   -1    0    0    0  501 -0.00000000000E+00 -0.00000000000E+00 -0.86555857752E+01  0.86555872425E+01  0.50400000000E-02 0.  1.
         23    2    1    2    0    0  0.00000000000E+00  0.00000000000E+00  0.22056869650E+03  0.23787986957E+03  0.89085815214E+02 0.  0.
    9000005    2    3    3    0    0 -0.34246395791E+02  0.29347258203E+01  0.36456268392E+02  0.50586478275E+02  0.69644841044E+01 0.  0.
         22    1    3    3    0    0  0.34246395791E+02 -0.29347258203E+01  0.18411242810E+03  0.18729339130E+03  0.00000000000E+00 0. -1.
         22    1    4    4    0    0 -0.34309516629E+02  0.34589410058E+01  0.36213799664E+02  0.50005464604E+02  0.00000000000E+00 0. -1.
         22    1    4    4    0    0  0.63120837995E-01 -0.52421518548E+00  0.24246872795E+00  0.58101367016E+00  0.00000000000E+00 0. -1.
<mgrwt>
<rscale>  0 0.89085815E+02</rscale>
<asrwt>0</asrwt>
<pdfrwt beam="1">  1        1 0.35265273E-01 0.89085815E+02</pdfrwt>
<pdfrwt beam="2">  1       -1 0.13316287E-02 0.89085815E+02</pdfrwt>
<totfact> 0.12936601E+05</totfact>
</mgrwt>
</event>
<event>
 7    1  0.2787125E-009  0.9056926E+02  0.7818608E-02  0.1301479E+00
          1   -1    0    0  501    0  0.00000000000E+00  0.00000000000E+00  0.11501600496E+03  0.11501600507E+03  0.50400000000E-02 0. -1.
         -1   -1    0    0    0  501 -0.00000000000E+00 -0.00000000000E+00 -0.17829672762E+02  0.17829673474E+02  0.50400000000E-02 0.  1.
         23    2    1    2    0    0  0.11102230246E-15  0.71054273576E-14  0.97186332198E+02  0.13284567854E+03  0.90569261573E+02 0.  0.
    9000005    2    3    3    0    0  0.70117957467E+00  0.35131621880E+02  0.88723656632E+02  0.96702361231E+02  0.15644069573E+02 0.  0.
         22    1    3    3    0    0 -0.70117957467E+00 -0.35131621880E+02  0.84626755664E+01  0.36143317314E+02  0.00000000000E+00 0.  1.
         22    1    4    4    0    0 -0.33594902476E+01  0.19182320768E+01  0.18685123315E+02  0.19081394664E+02  0.00000000000E+00 0. -1.
         22    1    4    4    0    0  0.40606698222E+01  0.33213389803E+02  0.70038533317E+02  0.77620966567E+02  0.00000000000E+00 0. -1.
<mgrwt>
<rscale>  0 0.90569262E+02</rscale>
<asrwt>0</asrwt>
<pdfrwt beam="1">  1        1 0.17694770E-01 0.90569262E+02</pdfrwt>
<pdfrwt beam="2">  1       -1 0.27430266E-02 0.90569262E+02</pdfrwt>
<totfact> 0.10890928E+05</totfact>
</mgrwt>
</event>
<event>
 7    1  0.2787125E-009  0.9112375E+02  0.7818608E-02  0.1300153E+00
          1   -1    0    0  501    0  0.00000000000E+00  0.00000000000E+00  0.92181519000E+01  0.92181532778E+01  0.50400000000E-02 0. -1.
         -1   -1    0    0    0  501 -0.00000000000E+00 -0.00000000000E+00 -0.22519525984E+03  0.22519525990E+03  0.50400000000E-02 0.  1.
         23    2    1    2    0    0  0.00000000000E+00  0.00000000000E+00 -0.21597710794E+03  0.23441341318E+03  0.91123746203E+02 0.  0.
    9000005    2    3    3    0    0 -0.25419315176E+02 -0.32478007730E+02 -0.70367898309E+02  0.83076026850E+02  0.15780448493E+02 0.  0.
         22    1    3    3    0    0  0.25419315176E+02  0.32478007730E+02 -0.14560920964E+03  0.15133738633E+03  0.00000000000E+00 0.  1.
         22    1    4    4    0    0 -0.14451608765E+02 -0.29409105009E+02 -0.51905951042E+02  0.61383810625E+02  0.00000000000E+00 0. -1.
         22    1    4    4    0    0 -0.10967706412E+02 -0.30689027203E+01 -0.18461947267E+02  0.21692216224E+02  0.00000000000E+00 0. -1.
<mgrwt>
<rscale>  0 0.91123746E+02</rscale>
<asrwt>0</asrwt>
<pdfrwt beam="1">  1        1 0.14181775E-02 0.91123746E+02</pdfrwt>
<pdfrwt beam="2">  1       -1 0.34645421E-01 0.91123746E+02</pdfrwt>
<totfact> 0.67107114E+04</totfact>
</mgrwt>
</event>
<event>
 7    1  0.2787125E-009  0.8992261E+02  0.7818608E-02  0.1303039E+00
          1   -1    0    0  501    0  0.00000000000E+00  0.00000000000E+00  0.10292560366E+02  0.10292561600E+02  0.50400000000E-02 0. -1.
         -1   -1    0    0    0  501 -0.00000000000E+00 -0.00000000000E+00 -0.19640583795E+03  0.19640583801E+03  0.50400000000E-02 0.  1.
         23    2    1    2    0    0  0.00000000000E+00 -0.17763568394E-14 -0.18611327758E+03  0.20669839961E+03  0.89922612897E+02 0.  0.
    9000005    2    3    3    0    0  0.10905883741E+02 -0.15570154190E+02 -0.18653740552E+03  0.18768398702E+03  0.82284460945E+01 0.  0.
         22    1    3    3    0    0 -0.10905883741E+02  0.15570154190E+02  0.42412793680E+00  0.19014412591E+02  0.00000000000E+00 0. -1.
         22    1    4    4    0    0  0.23760313606E+01 -0.80538132624E+01 -0.52722983038E+02  0.53387473938E+02  0.00000000000E+00 0. -1.
         22    1    4    4    0    0  0.85298523803E+01 -0.75163409278E+01 -0.13381442248E+03  0.13429651308E+03  0.00000000000E+00 0. -1.
<mgrwt>
<rscale>  0 0.89922613E+02</rscale>
<asrwt>0</asrwt>
<pdfrwt beam="1">  1        1 0.15834711E-02 0.89922613E+02</pdfrwt>
<pdfrwt beam="2">  1       -1 0.30216280E-01 0.89922613E+02</pdfrwt>
<totfact> 0.72344391E+04</totfact>
</mgrwt>
</event>
<event>
 7    1  0.2787125E-009  0.9118036E+02  0.7818608E-02  0.1300018E+00
          1   -1    0    0  501    0  0.00000000000E+00  0.00000000000E+00  0.44966696006E+02  0.44966696288E+02  0.50400000000E-02 0. -1.
         -1   -1    0    0    0  501 -0.00000000000E+00 -0.00000000000E+00 -0.46222307910E+02  0.46222308185E+02  0.50400000000E-02 0.  1.
         23    2    1    2    0    0  0.00000000000E+00  0.00000000000E+00 -0.12556119040E+01  0.91189004473E+02  0.91180359593E+02 0.  0.
    9000005    2    3    3    0    0 -0.24333122169E+02  0.21559479029E+02  0.30129859578E+02  0.46000955272E+02  0.12303149079E+02 0.  0.
         22    1    3    3    0    0  0.24333122169E+02 -0.21559479029E+02 -0.31385471482E+02  0.45188049201E+02  0.00000000000E+00 0.  1.
         22    1    4    4    0    0 -0.10568583391E+01 -0.16036643117E+01  0.15535881781E+01  0.24702884448E+01  0.00000000000E+00 0. -1.
         22    1    4    4    0    0 -0.23276263830E+02  0.23163143341E+02  0.28576271400E+02  0.43530666827E+02  0.00000000000E+00 0. -1.
<mgrwt>
<rscale>  0 0.91180360E+02</rscale>
<asrwt>0</asrwt>
<pdfrwt beam="1">  1        1 0.69179533E-02 0.91180360E+02</pdfrwt>
<pdfrwt beam="2">  1       -1 0.71111243E-02 0.91180360E+02</pdfrwt>
<totfact> 0.92271481E+04</totfact>
</mgrwt>
</event>
<event>
 7    1  0.2787125E-009  0.9259783E+02  0.7818608E-02  0.1296680E+00
          1   -1    0    0  501    0  0.00000000000E+00  0.00000000000E+00  0.43273619371E+01  0.43273648721E+01  0.50400000000E-02 0. -1.
         -1   -1    0    0    0  501 -0.00000000000E+00 -0.00000000000E+00 -0.49535695339E+03  0.49535695342E+03  0.50400000000E-02 0.  1.
         23    2    1    2    0    0  0.22204460493E-15 -0.71054273576E-14 -0.49102959145E+03  0.49968431829E+03  0.92597830754E+02 0.  0.
    9000005    2    3    3    0    0 -0.81687734939E+00 -0.39828693195E+02 -0.37116525348E+03  0.37337338603E+03  0.75530069693E+01 0.  0.
         22    1    3    3    0    0  0.81687734939E+00  0.39828693195E+02 -0.11986433798E+03  0.12631093226E+03  0.00000000000E+00 0. -1.
         22    1    4    4    0    0 -0.26684102352E+01 -0.32569417771E+02 -0.27990054602E+03  0.28180170874E+03  0.00000000000E+00 0.  1.
         22    1    4    4    0    0  0.18515328858E+01 -0.72592754244E+01 -0.91264707460E+02  0.91571677288E+02  0.00000000000E+00 0.  1.
<mgrwt>
<rscale>  0 0.92597831E+02</rscale>
<asrwt>0</asrwt>
<pdfrwt beam="1">  1        1 0.66574861E-03 0.92597831E+02</pdfrwt>
<pdfrwt beam="2">  1       -1 0.76208717E-01 0.92597831E+02</pdfrwt>
<totfact> 0.45430381E+04</totfact>
</mgrwt>
</event>
<event>
 7    1  0.2787125E-009  0.9128759E+02  0.7818608E-02  0.1299763E+00
         -1   -1    0    0    0  501 -0.00000000000E+00  0.00000000000E+00  0.58888355595E+02  0.58888355811E+02  0.50400000000E-02 0.  1.
          1   -1    0    0  501    0  0.00000000000E+00 -0.00000000000E+00 -0.35378066653E+02  0.35378067012E+02  0.50400000000E-02 0. -1.
         23    2    1    2    0    0  0.00000000000E+00  0.00000000000E+00  0.23510288943E+02  0.94266422823E+02  0.91287593821E+02 0.  0.
    9000005    2    3    3    0    0 -0.57132218675E+01 -0.43711908949E+02  0.40510085150E+01  0.46078919434E+02  0.12786096280E+02 0.  0.
         22    1    3    3    0    0  0.57132218675E+01  0.43711908949E+02  0.19459280428E+02  0.48187503389E+02  0.00000000000E+00 0.  1.
         22    1    4    4    0    0 -0.82184516135E+01 -0.25396864279E+02  0.63851098551E+01  0.27446553335E+02  0.00000000000E+00 0.  1.
         22    1    4    4    0    0  0.25052297460E+01 -0.18315044670E+02 -0.23341013401E+01  0.18632366098E+02  0.00000000000E+00 0.  1.
<mgrwt>
<rscale>  0 0.91287594E+02</rscale>
<asrwt>0</asrwt>
<pdfrwt beam="2">  1        1 0.54427796E-02 0.91287594E+02</pdfrwt>
<pdfrwt beam="1">  1       -1 0.90597469E-02 0.91287594E+02</pdfrwt>
<totfact> 0.88665323E+04</totfact>
</mgrwt>
</event>
<event>
 7    1  0.2787125E-009  0.9154717E+02  0.7818608E-02  0.1299148E+00
          1   -1    0    0  501    0  0.00000000000E+00  0.00000000000E+00  0.20026140539E+02  0.20026141173E+02  0.50400000000E-02 0. -1.
         -1   -1    0    0    0  501 -0.00000000000E+00 -0.00000000000E+00 -0.10462430504E+03  0.10462430516E+03  0.50400000000E-02 0.  1.
         23    2    1    2    0    0  0.00000000000E+00  0.00000000000E+00 -0.84598164500E+02  0.12465044633E+03  0.91547169997E+02 0.  0.
    9000005    2    3    3    0    0 -0.24851500274E+02 -0.26729084260E+02 -0.78148009069E+02  0.87587722254E+02  0.15246532621E+02 0.  0.
         22    1    3    3    0    0  0.24851500274E+02  0.26729084260E+02 -0.64501554317E+01  0.37062724081E+02  0.00000000000E+00 0. -1.
         22    1    4    4    0    0 -0.63610950962E+01 -0.11731307167E+02 -0.43854531883E+02  0.45840015983E+02  0.00000000000E+00 0. -1.
         22    1    4    4    0    0 -0.18490405177E+02 -0.14997777093E+02 -0.34293477186E+02  0.41747706270E+02  0.00000000000E+00 0. -1.
<mgrwt>
<rscale>  0 0.91547170E+02</rscale>
<asrwt>0</asrwt>
<pdfrwt beam="1">  1        1 0.30809448E-02 0.91547170E+02</pdfrwt>
<pdfrwt beam="2">  1       -1 0.16096047E-01 0.91547170E+02</pdfrwt>
<totfact> 0.79842329E+04</totfact>
</mgrwt>
</event>
<event>
 7    1  0.2787125E-009  0.9172702E+02  0.7818608E-02  0.1298723E+00
         -1   -1    0    0    0  501 -0.00000000000E+00  0.00000000000E+00  0.52002454914E+01  0.52002479337E+01  0.50400000000E-02 0.  1.
          1   -1    0    0  501    0  0.00000000000E+00 -0.00000000000E+00 -0.40449264451E+03  0.40449264454E+03  0.50400000000E-02 0. -1.
         23    2    1    2    0    0  0.00000000000E+00 -0.71054273576E-14 -0.39929239902E+03  0.40969289247E+03  0.91727020177E+02 0.  0.
    9000005    2    3    3    0    0 -0.14689865735E+02 -0.35159012839E+02 -0.30844867360E+03  0.31118131555E+03  0.15533144135E+02 0.  0.
         22    1    3    3    0    0  0.14689865735E+02  0.35159012839E+02 -0.90843725420E+02  0.98511576920E+02  0.00000000000E+00 0.  1.
         22    1    4    4    0    0 -0.13450343983E+02 -0.16973747453E+02 -0.20482480821E+03  0.20596655533E+03  0.00000000000E+00 0.  1.
         22    1    4    4    0    0 -0.12395217513E+01 -0.18185265385E+02 -0.10362386538E+03  0.10521476022E+03  0.00000000000E+00 0.  1.
<mgrwt>
<rscale>  0 0.91727020E+02</rscale>
<asrwt>0</asrwt>
<pdfrwt beam="2">  1        1 0.62229613E-01 0.91727020E+02</pdfrwt>
<pdfrwt beam="1">  1       -1 0.80003827E-03 0.91727020E+02</pdfrwt>
<totfact> 0.13299410E+05</totfact>
</mgrwt>
</event>
<event>
 7    1  0.2787125E-009  0.8633545E+02  0.7818608E-02  0.1311977E+00
          1   -1    0    0  501    0  0.00000000000E+00  0.00000000000E+00  0.22371326208E+02  0.22371326775E+02  0.50400000000E-02 0. -1.
         -1   -1    0    0    0  501 -0.00000000000E+00 -0.00000000000E+00 -0.83296475475E+02  0.83296475628E+02  0.50400000000E-02 0.  1.
         23    2    1    2    0    0 -0.17763568394E-14  0.00000000000E+00 -0.60925149268E+02  0.10566780240E+03  0.86335454197E+02 0.  0.
    9000005    2    3    3    0    0 -0.81616938915E+01 -0.15867902991E+02 -0.78135508515E+02  0.80876673790E+02  0.10838592157E+02 0.  0.
         22    1    3    3    0    0  0.81616938915E+01  0.15867902991E+02  0.17210359247E+02  0.24791128613E+02  0.00000000000E+00 0. -1.
         22    1    4    4    0    0 -0.67520342741E+01 -0.35467160331E+01 -0.41610294969E+02  0.42303496414E+02  0.00000000000E+00 0.  1.
         22    1    4    4    0    0 -0.14096596175E+01 -0.12321186958E+02 -0.36525213546E+02  0.38573177376E+02  0.00000000000E+00 0.  1.
<mgrwt>
<rscale>  0 0.86335454E+02</rscale>
<asrwt>0</asrwt>
<pdfrwt beam="1">  1        1 0.34417426E-02 0.86335454E+02</pdfrwt>
<pdfrwt beam="2">  1       -1 0.12814842E-01 0.86335454E+02</pdfrwt>
<totfact> 0.96666530E+04</totfact>
</mgrwt>
</event>
<event>
 7    1  0.2787125E-009  0.9036556E+02  0.7818608E-02  0.1301969E+00
         -1   -1    0    0    0  501 -0.00000000000E+00  0.00000000000E+00  0.99941850765E+02  0.99941850892E+02  0.50400000000E-02 0.  1.
          1   -1    0    0  501    0  0.00000000000E+00 -0.00000000000E+00 -0.20426714971E+02  0.20426715593E+02  0.50400000000E-02 0. -1.
         23    2    1    2    0    0  0.00000000000E+00  0.44408920985E-15  0.79515135794E+02  0.12036856649E+03  0.90365563005E+02 0.  0.
    9000005    2    3    3    0    0 -0.20391694878E+02 -0.25270637073E+01  0.93043151475E+02  0.95767459209E+02  0.96005695698E+01 0.  0.
         22    1    3    3    0    0  0.20391694878E+02  0.25270637073E+01 -0.13528015680E+02  0.24601107276E+02  0.00000000000E+00 0. -1.
         22    1    4    4    0    0  0.47181950252E-01 -0.19979762484E+01  0.13080554519E+02  0.13232348308E+02  0.00000000000E+00 0. -1.
         22    1    4    4    0    0 -0.20438876828E+02 -0.52908745889E+00  0.79962596956E+02  0.82535110901E+02  0.00000000000E+00 0. -1.
<mgrwt>
<rscale>  0 0.90365563E+02</rscale>
<asrwt>0</asrwt>
<pdfrwt beam="2">  1        1 0.31425715E-02 0.90365563E+02</pdfrwt>
<pdfrwt beam="1">  1       -1 0.15375670E-01 0.90365563E+02</pdfrwt>
<totfact> 0.83272518E+04</totfact>
</mgrwt>
</event>
<event>
 7    1  0.2787125E-009  0.9065197E+02  0.7818608E-02  0.1301280E+00
         -1   -1    0    0    0  501 -0.00000000000E+00  0.00000000000E+00  0.11345233502E+03  0.11345233513E+03  0.50400000000E-02 0.  1.
          1   -1    0    0  501    0  0.00000000000E+00 -0.00000000000E+00 -0.18108442221E+02  0.18108442922E+02  0.50400000000E-02 0. -1.
         23    2    1    2    0    0  0.35527136788E-14  0.00000000000E+00  0.95343892795E+02  0.13156077805E+03  0.90651974208E+02 0.  0.
    9000005    2    3    3    0    0  0.22731985680E+02  0.35422035730E+02  0.71643979083E+02  0.83258089738E+02  0.52522356908E+01 0.  0.
         22    1    3    3    0    0 -0.22731985680E+02 -0.35422035730E+02  0.23699913712E+02  0.48302688312E+02  0.00000000000E+00 0.  1.
         22    1    4    4    0    0  0.15077014222E+01  0.53991676571E+01  0.82728631966E+01  0.99932197233E+01  0.00000000000E+00 0. -1.
         22    1    4    4    0    0  0.21224284257E+02  0.30022868073E+02  0.63371115886E+02  0.73264870014E+02  0.00000000000E+00 0. -1.
<mgrwt>
<rscale>  0 0.90651974E+02</rscale>
<asrwt>0</asrwt>
<pdfrwt beam="2">  1        1 0.27859143E-02 0.90651974E+02</pdfrwt>
<pdfrwt beam="1">  1       -1 0.17454205E-01 0.90651974E+02</pdfrwt>
<totfact> 0.80615224E+04</totfact>
</mgrwt>
</event>
<event>
 7    1  0.2787125E-009  0.8909776E+02  0.7818608E-02  0.1305051E+00
         -1   -1    0    0    0  501 -0.00000000000E+00  0.00000000000E+00  0.91833062071E+01  0.91833075901E+01  0.50400000000E-02 0.  1.
          1   -1    0    0  501    0  0.00000000000E+00 -0.00000000000E+00 -0.21610982827E+03  0.21610982833E+03  0.50400000000E-02 0. -1.
         23    2    1    2    0    0  0.00000000000E+00  0.00000000000E+00 -0.20692652206E+03  0.22529313592E+03  0.89097764052E+02 0.  0.
    9000005    2    3    3    0    0  0.93929207047E+01 -0.39937169009E+02 -0.14610706814E+03  0.15192958636E+03  0.72193783998E+01 0.  0.
         22    1    3    3    0    0 -0.93929207047E+01  0.39937169009E+02 -0.60819453925E+02  0.73363549557E+02  0.00000000000E+00 0.  1.
         22    1    4    4    0    0  0.97871800437E+01 -0.39818705835E+02 -0.14199066550E+03  0.14779264974E+03  0.00000000000E+00 0. -1.
         22    1    4    4    0    0 -0.39425933896E+00 -0.11846317399E+00 -0.41164026398E+01  0.41369366254E+01  0.00000000000E+00 0. -1.
<mgrwt>
<rscale>  0 0.89097764E+02</rscale>
<asrwt>0</asrwt>
<pdfrwt beam="2">  1        1 0.33247662E-01 0.89097764E+02</pdfrwt>
<pdfrwt beam="1">  1       -1 0.14128166E-02 0.89097764E+02</pdfrwt>
<totfact> 0.12784924E+05</totfact>
</mgrwt>
</event>
<event>
 6    1  0.2787125E-009  0.1933242E+03  0.7818608E-02  0.1155497E+00
         -1   -1    0    0    0  501 -0.00000000000E+00  0.00000000000E+00  0.74500468846E+01  0.74500485894E+01  0.50400000000E-02 0.  1.
          1   -1    0    0  501    0  0.00000000000E+00 -0.00000000000E+00 -0.12541616738E+04  0.12541616738E+04  0.50400000000E-02 0. -1.
    9000005    2    1    2    0    0  0.22629254408E+02 -0.24040782997E+02 -0.12160943754E+04  0.12165844141E+04  0.10102688202E+02 0.  0.
         22    1    1    2    0    0 -0.22629254408E+02  0.24040782997E+02 -0.30617251457E+02  0.45027308258E+02  0.00000000000E+00 0.  1.
         22    1    3    3    0    0  0.18604756861E+02 -0.15132839074E+02 -0.96909818807E+03  0.96939488234E+03  0.00000000000E+00 0.  1.
         22    1    3    3    0    0  0.40244975467E+01 -0.89079439228E+01 -0.24699618735E+03  0.24718953176E+03  0.00000000000E+00 0.  1.
<mgrwt>
<rscale>  0 0.19332423E+03</rscale>
<asrwt>0</asrwt>
<pdfrwt beam="2">  1        1 0.19294778E+00 0.19332423E+03</pdfrwt>
<pdfrwt beam="1">  1       -1 0.11461622E-02 0.19332423E+03</pdfrwt>
<totfact> 0.15926861E+04</totfact>
</mgrwt>
</event>
<event>
 7    1  0.2787125E-009  0.9021954E+02  0.7818608E-02  0.1302321E+00
         -1   -1    0    0    0  501 -0.00000000000E+00  0.00000000000E+00  0.28284564243E+02  0.28284564692E+02  0.50400000000E-02 0.  1.
          1   -1    0    0  501    0  0.00000000000E+00 -0.00000000000E+00 -0.71943521671E+02  0.71943521847E+02  0.50400000000E-02 0. -1.
         23    2    1    2    0    0  0.71054273576E-14  0.00000000000E+00 -0.43658957428E+02  0.10022808654E+03  0.90219536508E+02 0.  0.
    9000005    2    3    3    0    0  0.43930482988E+02 -0.44052332598E+01 -0.23966266175E+02  0.51884570900E+02  0.12974334953E+02 0.  0.
         22    1    3    3    0    0 -0.43930482988E+02  0.44052332598E+01 -0.19692691252E+02  0.48343515640E+02  0.00000000000E+00 0.  1.
         22    1    4    4    0    0  0.43568462662E+02 -0.42340055573E+01 -0.20396462539E+02  0.48292374408E+02  0.00000000000E+00 0. -1.
         22    1    4    4    0    0  0.36202032582E+00 -0.17122770255E+00 -0.35698036359E+01  0.35921964926E+01  0.00000000000E+00 0. -1.
<mgrwt>
<rscale>  0 0.90219537E+02</rscale>
<asrwt>0</asrwt>
<pdfrwt beam="2">  1        1 0.11068234E-01 0.90219537E+02</pdfrwt>
<pdfrwt beam="1">  1       -1 0.43514715E-02 0.90219537E+02</pdfrwt>
<totfact> 0.10200533E+05</totfact>
</mgrwt>
</event>
<event>
 7    1  0.2787125E-009  0.9318847E+02  0.7818608E-02  0.1295309E+00
          1   -1    0    0  501    0  0.00000000000E+00  0.00000000000E+00  0.14552070335E+03  0.14552070343E+03  0.50400000000E-02 0. -1.
         -1   -1    0    0    0  501 -0.00000000000E+00 -0.00000000000E+00 -0.14918996376E+02  0.14918997227E+02  0.50400000000E-02 0.  1.
         23    2    1    2    0    0  0.00000000000E+00  0.00000000000E+00  0.13060170697E+03  0.16043970066E+03  0.93188473990E+02 0.  0.
    9000005    2    3    3    0    0  0.54025768202E+01  0.42747968207E+02  0.40908300988E+02  0.60933501363E+02  0.13521311936E+02 0.  0.
         22    1    3    3    0    0 -0.54025768202E+01 -0.42747968207E+02  0.89693405983E+02  0.99506199299E+02  0.00000000000E+00 0. -1.
         22    1    4    4    0    0  0.49581002981E+01  0.44091321115E+01  0.41988197484E+01  0.78519610176E+01  0.00000000000E+00 0. -1.
         22    1    4    4    0    0  0.44447652206E+00  0.38338836095E+02  0.36709481240E+02  0.53081540345E+02  0.00000000000E+00 0. -1.
<mgrwt>
<rscale>  0 0.93188474E+02</rscale>
<asrwt>0</asrwt>
<pdfrwt beam="1">  1        1 0.22387801E-01 0.93188474E+02</pdfrwt>
<pdfrwt beam="2">  1       -1 0.22952302E-02 0.93188474E+02</pdfrwt>
<totfact> 0.10511857E+05</totfact>
</mgrwt>
</event>
<event>
 7    1  0.2787125E-009  0.9356716E+02  0.7818608E-02  0.1294436E+00
         -1   -1    0    0    0  501 -0.00000000000E+00  0.00000000000E+00  0.18574621085E+02  0.18574621769E+02  0.50400000000E-02 0.  1.
          1   -1    0    0  501    0  0.00000000000E+00 -0.00000000000E+00 -0.11783299545E+03  0.11783299556E+03  0.50400000000E-02 0. -1.
         23    2    1    2    0    0  0.00000000000E+00 -0.17763568394E-14 -0.99258374366E+02  0.13640761733E+03  0.93567158678E+02 0.  0.
    9000005    2    3    3    0    0 -0.40195943517E+02 -0.12983596509E+02 -0.75964520204E+02  0.88169755691E+02  0.14798980884E+02 0.  0.
         22    1    3    3    0    0  0.40195943517E+02  0.12983596509E+02 -0.23293854162E+02  0.48237861637E+02  0.00000000000E+00 0.  1.
         22    1    4    4    0    0 -0.24801439493E+02 -0.48154115628E+00 -0.45405062159E+02  0.51739375262E+02  0.00000000000E+00 0. -1.
         22    1    4    4    0    0 -0.15394504024E+02 -0.12502055353E+02 -0.30559458045E+02  0.36430380429E+02  0.00000000000E+00 0. -1.
<mgrwt>
<rscale>  0 0.93567159E+02</rscale>
<asrwt>0</asrwt>
<pdfrwt beam="2">  1        1 0.18128153E-01 0.93567159E+02</pdfrwt>
<pdfrwt beam="1">  1       -1 0.28576341E-02 0.93567159E+02</pdfrwt>
<totfact> 0.10009890E+05</totfact>
</mgrwt>
</event>
<event>
 7    1  0.2787125E-009  0.9456877E+02  0.7818608E-02  0.1292150E+00
         -1   -1    0    0    0  501 -0.00000000000E+00  0.00000000000E+00  0.24429899038E+03  0.24429899044E+03  0.50400000000E-02 0.  1.
          1   -1    0    0  501    0  0.00000000000E+00 -0.00000000000E+00 -0.91519525044E+01  0.91519538922E+01  0.50400000000E-02 0. -1.
         23    2    1    2    0    0  0.00000000000E+00 -0.35527136788E-14  0.23514703788E+03  0.25345094433E+03  0.94568767346E+02 0.  0.
    9000005    2    3    3    0    0 -0.32373579322E+02 -0.28825070594E+02  0.16812378965E+03  0.17363209232E+03  0.18871946672E+01 0.  0.
         22    1    3    3    0    0  0.32373579322E+02  0.28825070594E+02  0.67023248226E+02  0.79818852006E+02  0.00000000000E+00 0. -1.
         22    1    4    4    0    0 -0.23023090546E+02 -0.21043643537E+02  0.11791965785E+03  0.12197517509E+03  0.00000000000E+00 0.  1.
         22    1    4    4    0    0 -0.93504887762E+01 -0.77814270566E+01  0.50204131807E+02  0.51656917232E+02  0.00000000000E+00 0.  1.
<mgrwt>
<rscale>  0 0.94568767E+02</rscale>
<asrwt>0</asrwt>
<pdfrwt beam="2">  1        1 0.14079928E-02 0.94568767E+02</pdfrwt>
<pdfrwt beam="1">  1       -1 0.37584461E-01 0.94568767E+02</pdfrwt>
<totfact> 0.59321847E+04</totfact>
</mgrwt>
</event>
<event>
 7    1  0.2787125E-009  0.9563919E+02  0.7818608E-02  0.1289743E+00
         -1   -1    0    0    0  501 -0.00000000000E+00  0.00000000000E+00  0.26908722610E+02  0.26908723082E+02  0.50400000000E-02 0.  1.
          1   -1    0    0  501    0  0.00000000000E+00 -0.00000000000E+00 -0.84980381169E+02  0.84980381318E+02  0.50400000000E-02 0. -1.
         23    2    1    2    0    0 -0.35527136788E-14  0.00000000000E+00 -0.58071658559E+02  0.11188910440E+03  0.95639187343E+02 0.  0.
    9000005    2    3    3    0    0  0.22836677988E+02 -0.37438473627E+02 -0.11502872006E+02  0.47921885841E+02  0.15525395617E+02 0.  0.
         22    1    3    3    0    0 -0.22836677988E+02  0.37438473627E+02 -0.46568786554E+02  0.63967218559E+02  0.00000000000E+00 0. -1.
         22    1    4    4    0    0  0.20629876415E+02 -0.22754566734E+02 -0.12219764556E+02  0.33055782459E+02  0.00000000000E+00 0. -1.
         22    1    4    4    0    0  0.22068015733E+01 -0.14683906893E+02  0.71689255087E+00  0.14866103382E+02  0.00000000000E+00 0. -1.
<mgrwt>
<rscale>  0 0.95639187E+02</rscale>
<asrwt>0</asrwt>
<pdfrwt beam="2">  1        1 0.13073905E-01 0.95639187E+02</pdfrwt>
<pdfrwt beam="1">  1       -1 0.41398036E-02 0.95639187E+02</pdfrwt>
<totfact> 0.89188293E+04</totfact>
</mgrwt>
</event>
<event>
 7    1  0.2787125E-009  0.9179916E+02  0.7818608E-02  0.1298552E+00
         -1   -1    0    0    0  501 -0.00000000000E+00  0.00000000000E+00  0.11490530074E+03  0.11490530085E+03  0.50400000000E-02 0.  1.
          1   -1    0    0  501    0  0.00000000000E+00 -0.00000000000E+00 -0.18334849742E+02  0.18334850435E+02  0.50400000000E-02 0. -1.
         23    2    1    2    0    0  0.00000000000E+00  0.00000000000E+00  0.96570450999E+02  0.13324015129E+03  0.91799160718E+02 0.  0.
    9000005    2    3    3    0    0  0.28041979062E+02 -0.32774153550E+02  0.67442286575E+02  0.81192599054E+02  0.13538035012E+02 0.  0.
         22    1    3    3    0    0 -0.28041979062E+02  0.32774153550E+02  0.29128164424E+02  0.52047552232E+02  0.00000000000E+00 0. -1.
         22    1    4    4    0    0  0.17388373290E+02 -0.11212547400E+02  0.25429898979E+02  0.32783479177E+02  0.00000000000E+00 0.  1.
         22    1    4    4    0    0  0.10653605773E+02 -0.21561606150E+02  0.42012387597E+02  0.48409119877E+02  0.00000000000E+00 0.  1.
<mgrwt>
<rscale>  0 0.91799161E+02</rscale>
<asrwt>0</asrwt>
<pdfrwt beam="2">  1        1 0.28207462E-02 0.91799161E+02</pdfrwt>
<pdfrwt beam="1">  1       -1 0.17677739E-01 0.91799161E+02</pdfrwt>
<totfact> 0.77840895E+04</totfact>
</mgrwt>
</event>
<event>
 7    1  0.2787125E-009  0.9248320E+02  0.7818608E-02  0.1296947E+00
         -1   -1    0    0    0  501 -0.00000000000E+00  0.00000000000E+00  0.72337792408E+02  0.72337792584E+02  0.50400000000E-02 0.  1.
          1   -1    0    0  501    0  0.00000000000E+00 -0.00000000000E+00 -0.29559727046E+02  0.29559727475E+02  0.50400000000E-02 0. -1.
         23    2    1    2    0    0  0.00000000000E+00  0.00000000000E+00  0.42778065363E+02  0.10189752006E+03  0.92483196950E+02 0.  0.
    9000005    2    3    3    0    0  0.84390345014E+01 -0.32123517890E+02 -0.12297664087E+02  0.37582096719E+02  0.12571545127E+02 0.  0.
         22    1    3    3    0    0 -0.84390345014E+01  0.32123517890E+02  0.55075729450E+02  0.64315423340E+02  0.00000000000E+00 0.  1.
         22    1    4    4    0    0  0.65882602338E+00 -0.23749884895E+02 -0.58893717342E+01  0.24478067401E+02  0.00000000000E+00 0. -1.
         22    1    4    4    0    0  0.77802084781E+01 -0.83736329950E+01 -0.64082923531E+01  0.13104029319E+02  0.00000000000E+00 0. -1.
<mgrwt>
<rscale>  0 0.92483197E+02</rscale>
<asrwt>0</asrwt>
<pdfrwt beam="2">  1        1 0.45476504E-02 0.92483197E+02</pdfrwt>
<pdfrwt beam="1">  1       -1 0.11128891E-01 0.92483197E+02</pdfrwt>
<totfact> 0.83005813E+04</totfact>
</mgrwt>
</event>
<event>
 7    1  0.2787125E-009  0.9926548E+02  0.7818608E-02  0.1281848E+00
         -1   -1    0    0    0  501 -0.00000000000E+00  0.00000000000E+00  0.80110219272E+01  0.80110235127E+01  0.50400000000E-02 0.  1.
          1   -1    0    0  501    0  0.00000000000E+00 -0.00000000000E+00 -0.30750242724E+03  0.30750242728E+03  0.50400000000E-02 0. -1.
         23    2    1    2    0    0  0.00000000000E+00  0.00000000000E+00 -0.29949140531E+03  0.31551345079E+03  0.99265481289E+02 0.  0.
    9000005    2    3    3    0    0  0.47934695218E+02 -0.86449228127E+01 -0.15914550991E+03  0.16695558310E+03  0.13206199645E+02 0.  0.
         22    1    3    3    0    0 -0.47934695218E+02  0.86449228127E+01 -0.14034589540E+03  0.14855786769E+03  0.00000000000E+00 0.  1.
         22    1    4    4    0    0  0.68933845148E+01  0.90678199567E+00 -0.39483801108E+02  0.40091290246E+02  0.00000000000E+00 0.  1.
         22    1    4    4    0    0  0.41041310703E+02 -0.95517048084E+01 -0.11966170880E+03  0.12686429286E+03  0.00000000000E+00 0.  1.
<mgrwt>
<rscale>  0 0.99265481E+02</rscale>
<asrwt>0</asrwt>
<pdfrwt beam="2">  1        1 0.47308057E-01 0.99265481E+02</pdfrwt>
<pdfrwt beam="1">  1       -1 0.12324653E-02 0.99265481E+02</pdfrwt>
<totfact> 0.10253211E+05</totfact>
</mgrwt>
</event>
<event>
 7    1  0.2787125E-009  0.9314786E+02  0.7818608E-02  0.1295403E+00
          1   -1    0    0  501    0  0.00000000000E+00  0.00000000000E+00  0.16019985640E+03  0.16019985648E+03  0.50400000000E-02 0. -1.
         -1   -1    0    0    0  501 -0.00000000000E+00 -0.00000000000E+00 -0.13540154391E+02  0.13540155329E+02  0.50400000000E-02 0.  1.
         23    2    1    2    0    0  0.00000000000E+00  0.00000000000E+00  0.14665970201E+03  0.17374001181E+03  0.93147858322E+02 0.  0.
    9000005    2    3    3    0    0 -0.45383902538E+01  0.10193176739E+02  0.15751595874E+03  0.15817221979E+03  0.90926353566E+01 0.  0.
         22    1    3    3    0    0  0.45383902538E+01 -0.10193176739E+02 -0.10856256731E+02  0.15567792018E+02  0.00000000000E+00 0.  1.
         22    1    4    4    0    0 -0.28865435831E+01  0.24244687908E+00  0.72841268126E+02  0.72898842628E+02  0.00000000000E+00 0. -1.
         22    1    4    4    0    0 -0.16518466707E+01  0.99507298594E+01  0.84674690614E+02  0.85273377163E+02  0.00000000000E+00 0. -1.
<mgrwt>
<rscale>  0 0.93147858E+02</rscale>
<asrwt>0</asrwt>
<pdfrwt beam="1">  1        1 0.24646129E-01 0.93147858E+02</pdfrwt>
<pdfrwt beam="2">  1       -1 0.20831010E-02 0.93147858E+02</pdfrwt>
<totfact> 0.10713912E+05</totfact>
</mgrwt>
</event>
<event>
 7    1  0.3071561E-009  0.8832635E+02  0.7818608E-02  0.1306956E+00
          1   -1    0    0  501    0  0.00000000000E+00  0.00000000000E+00  0.16817505753E+03  0.16817505760E+03  0.50400000000E-02 0. -1.
         -1   -1    0    0    0  501 -0.00000000000E+00 -0.00000000000E+00 -0.11597355433E+02  0.11597356528E+02  0.50400000000E-02 0.  1.
         23    2    1    2    0    0  0.88817841970E-15  0.00000000000E+00  0.15657770209E+03  0.17977241413E+03  0.88326349913E+02 0.  0.
    9000005    2    3    3    0    0  0.70453012757E+01 -0.41598613998E+02  0.96726115888E+02  0.10654473270E+03  0.14688690010E+02 0.  0.
         22    1    3    3    0    0 -0.70453012757E+01  0.41598613998E+02  0.59851586206E+02  0.73227681433E+02  0.00000000000E+00 0.  1.
         22    1    4    4    0    0  0.42720135001E+01 -0.36601975616E+02  0.68876386560E+02  0.78114731927E+02  0.00000000000E+00 0.  1.
         22    1    4    4    0    0  0.27732877756E+01 -0.49966383811E+01  0.27849729328E+02  0.28430000771E+02  0.00000000000E+00 0.  1.
<mgrwt>
<rscale>  0 0.88326350E+02</rscale>
<asrwt>0</asrwt>
<pdfrwt beam="1">  1        1 0.25873082E-01 0.88326350E+02</pdfrwt>
<pdfrwt beam="2">  1       -1 0.17842089E-02 0.88326350E+02</pdfrwt>
<totfact> 0.12473611E+05</totfact>
</mgrwt>
</event>
<event>
 7    1  0.2787125E-009  0.9137539E+02  0.7818608E-02  0.1299555E+00
          1   -1    0    0  501    0  0.00000000000E+00  0.00000000000E+00  0.17371478899E+02  0.17371479630E+02  0.50400000000E-02 0. -1.
         -1   -1    0    0    0  501 -0.00000000000E+00 -0.00000000000E+00 -0.12016048863E+03  0.12016048873E+03  0.50400000000E-02 0.  1.
         23    2    1    2    0    0  0.71054273576E-14 -0.17763568394E-14 -0.10278900973E+03  0.13753196836E+03  0.91375389469E+02 0.  0.
    9000005    2    3    3    0    0 -0.33574567683E+02  0.14561823833E+02 -0.14992709116E+02  0.42413680375E+02  0.15324511343E+02 0.  0.
         22    1    3    3    0    0  0.33574567683E+02 -0.14561823833E+02 -0.87796300611E+02  0.95118287986E+02  0.00000000000E+00 0. -1.
         22    1    4    4    0    0 -0.34228322599E+02  0.14682328476E+02 -0.11677095602E+02  0.39032081665E+02  0.00000000000E+00 0.  1.
         22    1    4    4    0    0  0.65375491629E+00 -0.12050464316E+00 -0.33156135141E+01  0.33815987098E+01  0.00000000000E+00 0.  1.
<mgrwt>
<rscale>  0 0.91375389E+02</rscale>
<asrwt>0</asrwt>
<pdfrwt beam="1">  1        1 0.26725354E-02 0.91375389E+02</pdfrwt>
<pdfrwt beam="2">  1       -1 0.18486229E-01 0.91375389E+02</pdfrwt>
<totfact> 0.78068505E+04</totfact>
</mgrwt>
</event>
<event>
 7    1  0.2787125E-009  0.9155230E+02  0.7818608E-02  0.1299136E+00
          1   -1    0    0  501    0  0.00000000000E+00  0.00000000000E+00  0.59376903936E+02  0.59376904150E+02  0.50400000000E-02 0. -1.
         -1   -1    0    0    0  501 -0.00000000000E+00 -0.00000000000E+00 -0.35290754627E+02  0.35290754987E+02  0.50400000000E-02 0.  1.
         23    2    1    2    0    0  0.22204460493E-15 -0.71054273576E-14  0.24086149309E+02  0.94667659137E+02  0.91552297065E+02 0.  0.
    9000005    2    3    3    0    0  0.19481149604E+01  0.41178476046E+02  0.32453190123E+02  0.52602597466E+02  0.37896793703E+01 0.  0.
         22    1    3    3    0    0 -0.19481149604E+01 -0.41178476046E+02 -0.83670408135E+01  0.42065061670E+02  0.00000000000E+00 0.  1.
         22    1    4    4    0    0 -0.20845275674E+00  0.30019638258E+02  0.24117386166E+02  0.38508056939E+02  0.00000000000E+00 0. -1.
         22    1    4    4    0    0  0.21565677171E+01  0.11158837788E+02  0.83358039566E+01  0.14094540528E+02  0.00000000000E+00 0. -1.
<mgrwt>
<rscale>  0 0.91552297E+02</rscale>
<asrwt>0</asrwt>
<pdfrwt beam="1">  1        1 0.91349083E-02 0.91552297E+02</pdfrwt>
<pdfrwt beam="2">  1       -1 0.54293469E-02 0.91552297E+02</pdfrwt>
<totfact> 0.95126776E+04</totfact>
</mgrwt>
</event>
<event>
 7    1  0.2787125E-009  0.9279309E+02  0.7818608E-02  0.1296225E+00
         -1   -1    0    0    0  501 -0.00000000000E+00  0.00000000000E+00  0.34538394708E+03  0.34538394711E+03  0.50400000000E-02 0.  1.
          1   -1    0    0  501    0  0.00000000000E+00 -0.00000000000E+00 -0.62325971044E+01  0.62325991422E+01  0.50400000000E-02 0. -1.
         23    2    1    2    0    0  0.00000000000E+00  0.00000000000E+00  0.33915134997E+03  0.35161654625E+03  0.92793089251E+02 0.  0.
    9000005    2    3    3    0    0  0.25611430525E+02 -0.17337337467E+02  0.29936390211E+03  0.30122240323E+03  0.12635730142E+02 0.  0.
         22    1    3    3    0    0 -0.25611430525E+02  0.17337337467E+02  0.39787447861E+02  0.50394143026E+02  0.00000000000E+00 0. -1.
         22    1    4    4    0    0  0.59824837475E+01 -0.10598693865E+02  0.87064499209E+02  0.87911031424E+02  0.00000000000E+00 0. -1.
         22    1    4    4    0    0  0.19628946778E+02 -0.67386436026E+01  0.21229940290E+03  0.21331137180E+03  0.00000000000E+00 0. -1.
<mgrwt>
<rscale>  0 0.92793089E+02</rscale>
<asrwt>0</asrwt>
<pdfrwt beam="2">  1        1 0.95886109E-03 0.92793089E+02</pdfrwt>
<pdfrwt beam="1">  1       -1 0.53136001E-01 0.92793089E+02</pdfrwt>
<totfact> 0.54553009E+04</totfact>
</mgrwt>
</event>
<event>
 7    1  0.2787125E-009  0.9897556E+02  0.7818608E-02  0.1282465E+00
          1   -1    0    0  501    0  0.00000000000E+00  0.00000000000E+00  0.43203205954E+02  0.43203206248E+02  0.50400000000E-02 0. -1.
         -1   -1    0    0    0  501 -0.00000000000E+00 -0.00000000000E+00 -0.56686539759E+02  0.56686539983E+02  0.50400000000E-02 0.  1.
         23    2    1    2    0    0  0.00000000000E+00  0.17763568394E-14 -0.13483333806E+02  0.99889746231E+02  0.98975558152E+02 0.  0.
    9000005    2    3    3    0    0  0.47490561660E+02  0.59181123728E+01 -0.16300646137E+02  0.51949004167E+02  0.11941962511E+02 0.  0.
         22    1    3    3    0    0 -0.47490561660E+02 -0.59181123728E+01  0.28173123314E+01  0.47940742064E+02  0.00000000000E+00 0. -1.
         22    1    4    4    0    0  0.34904078764E+02  0.80709118659E+01 -0.79648970291E+01  0.36699780890E+02  0.00000000000E+00 0.  1.
         22    1    4    4    0    0  0.12586482896E+02 -0.21527994931E+01 -0.83357491079E+01  0.15249223277E+02  0.00000000000E+00 0.  1.
<mgrwt>
<rscale>  0 0.98975558E+02</rscale>
<asrwt>0</asrwt>
<pdfrwt beam="1">  1        1 0.66466471E-02 0.98975558E+02</pdfrwt>
<pdfrwt beam="2">  1       -1 0.87210061E-02 0.98975558E+02</pdfrwt>
<totfact> 0.72680707E+04</totfact>
</mgrwt>
</event>
<event>
 7    1  0.3427701E-009  0.9103271E+02  0.7818608E-02  0.1300370E+00
          1   -1    0    0  501    0  0.00000000000E+00  0.00000000000E+00  0.26283370313E+02  0.26283370796E+02  0.50400000000E-02 0. -1.
         -1   -1    0    0    0  501 -0.00000000000E+00 -0.00000000000E+00 -0.78823162691E+02  0.78823162852E+02  0.50400000000E-02 0.  1.
         23    2    1    2    0    0  0.11102230246E-15  0.00000000000E+00 -0.52539792379E+02  0.10510653365E+03  0.91032706388E+02 0.  0.
    9000005    2    3    3    0    0  0.91141689097E+00 -0.28625854625E+02  0.12350678453E+02  0.34176684935E+02  0.13972698420E+02 0.  0.
         22    1    3    3    0    0 -0.91141689097E+00  0.28625854625E+02 -0.64890470831E+02  0.70929848713E+02  0.00000000000E+00 0.  1.
         22    1    4    4    0    0 -0.11572657363E+00 -0.37946502419E+01 -0.31100158721E+01  0.49076432045E+01  0.00000000000E+00 0. -1.
         22    1    4    4    0    0  0.10271434646E+01 -0.24831204383E+02  0.15460694325E+02  0.29269041730E+02  0.00000000000E+00 0. -1.
<mgrwt>
<rscale>  0 0.91032706E+02</rscale>
<asrwt>0</asrwt>
<pdfrwt beam="1">  1        1 0.40435955E-02 0.91032706E+02</pdfrwt>
<pdfrwt beam="2">  1       -1 0.12126640E-01 0.91032706E+02</pdfrwt>
<totfact> 0.85207031E+04</totfact>
</mgrwt>
</event>
<event>
 7    1  0.2787125E-009  0.8826700E+02  0.7818608E-02  0.1307104E+00
         -1   -1    0    0    0  501 -0.00000000000E+00  0.00000000000E+00  0.89759053002E+01  0.89759067152E+01  0.50400000000E-02 0.  1.
          1   -1    0    0  501    0  0.00000000000E+00 -0.00000000000E+00 -0.21699935347E+03  0.21699935353E+03  0.50400000000E-02 0. -1.
         23    2    1    2    0    0  0.00000000000E+00  0.00000000000E+00 -0.20802344817E+03  0.22597526024E+03  0.88266999801E+02 0.  0.
    9000005    2    3    3    0    0 -0.33568237852E+02  0.21541511782E+02 -0.14912965577E+03  0.15484620778E+03  0.12117363942E+02 0.  0.
         22    1    3    3    0    0  0.33568237852E+02 -0.21541511782E+02 -0.58893792397E+02  0.71129052469E+02  0.00000000000E+00 0.  1.
         22    1    4    4    0    0 -0.33355332854E+02  0.20458711071E+02 -0.13191362965E+03  0.13759485011E+03  0.00000000000E+00 0.  1.
         22    1    4    4    0    0 -0.21290499790E+00  0.10828007106E+01 -0.17216026122E+02  0.17251357667E+02  0.00000000000E+00 0.  1.
<mgrwt>
<rscale>  0 0.88267000E+02</rscale>
<asrwt>0</asrwt>
<pdfrwt beam="2">  1        1 0.33384512E-01 0.88267000E+02</pdfrwt>
<pdfrwt beam="1">  1       -1 0.13809088E-02 0.88267000E+02</pdfrwt>
<totfact> 0.13118963E+05</totfact>
</mgrwt>
</event>
<event>
 7    1  0.2787125E-009  0.9137672E+02  0.7818608E-02  0.1299552E+00
         -1   -1    0    0    0  501 -0.00000000000E+00  0.00000000000E+00  0.11753352565E+02  0.11753353646E+02  0.50400000000E-02 0.  1.
          1   -1    0    0  501    0  0.00000000000E+00 -0.00000000000E+00 -0.17760259896E+03  0.17760259903E+03  0.50400000000E-02 0. -1.
         23    2    1    2    0    0  0.88817841970E-15  0.00000000000E+00 -0.16584924639E+03  0.18935595267E+03  0.91376716315E+02 0.  0.
    9000005    2    3    3    0    0  0.70886004735E+01  0.26395842408E+02 -0.15878730739E+03  0.16112724857E+03  0.12619388231E+01 0.  0.
         22    1    3    3    0    0 -0.70886004735E+01 -0.26395842408E+02 -0.70619390014E+01  0.28228704107E+02  0.00000000000E+00 0.  1.
         22    1    4    4    0    0  0.98270502331E+00  0.56361926221E+01 -0.33285412146E+02  0.33773525699E+02  0.00000000000E+00 0. -1.
         22    1    4    4    0    0  0.61058954502E+01  0.20759649786E+02 -0.12550189524E+03  0.12735372287E+03  0.00000000000E+00 0. -1.
<mgrwt>
<rscale>  0 0.91376716E+02</rscale>
<asrwt>0</asrwt>
<pdfrwt beam="2">  1        1 0.27323475E-01 0.91376716E+02</pdfrwt>
<pdfrwt beam="1">  1       -1 0.18082083E-02 0.91376716E+02</pdfrwt>
<totfact> 0.11504948E+05</totfact>
</mgrwt>
</event>
<event>
 7    1  0.2787125E-009  0.9084332E+02  0.7818608E-02  0.1300822E+00
         -1   -1    0    0    0  501 -0.00000000000E+00  0.00000000000E+00  0.18106389951E+01  0.18106460097E+01  0.50400000000E-02 0.  1.
          1   -1    0    0  501    0  0.00000000000E+00 -0.00000000000E+00 -0.11394448750E+04  0.11394448750E+04  0.50400000000E-02 0. -1.
         23    2    1    2    0    0 -0.88817841970E-15 -0.17763568394E-14 -0.11376342360E+04  0.11412555210E+04  0.90843322979E+02 0.  0.
    9000005    2    3    3    0    0 -0.70222286562E+01 -0.13875892882E+02 -0.11043022131E+04  0.11044740604E+04  0.11735416561E+02 0.  0.
         22    1    3    3    0    0  0.70222286562E+01  0.13875892882E+02 -0.33332022832E+02  0.36781460611E+02  0.00000000000E+00 0.  1.
         22    1    4    4    0    0 -0.18351610945E+01 -0.16115915578E+01 -0.33445311823E+02  0.33534369333E+02  0.00000000000E+00 0. -1.
         22    1    4    4    0    0 -0.51870675617E+01 -0.12264301324E+02 -0.10708569013E+04  0.10709396911E+04  0.00000000000E+00 0. -1.
<mgrwt>
<rscale>  0 0.90843323E+02</rscale>
<asrwt>0</asrwt>
<pdfrwt beam="2">  1        1 0.17529864E+00 0.90843323E+02</pdfrwt>
<pdfrwt beam="1">  1       -1 0.27856130E-03 0.90843323E+02</pdfrwt>
<totfact> 0.13148826E+05</totfact>
</mgrwt>
</event>
<event>
 7    1  0.2787125E-009  0.9387169E+02  0.7818608E-02  0.1293738E+00
         -1   -1    0    0    0  501 -0.00000000000E+00  0.00000000000E+00  0.12114800057E+03  0.12114800068E+03  0.50400000000E-02 0.  1.
          1   -1    0    0  501    0  0.00000000000E+00 -0.00000000000E+00 -0.18184150890E+02  0.18184151588E+02  0.50400000000E-02 0. -1.
         23    2    1    2    0    0  0.00000000000E+00  0.71054273576E-14  0.10296384968E+03  0.13933215227E+03  0.93871690693E+02 0.  0.
    9000005    2    3    3    0    0  0.11413466361E+02  0.42485815405E+02  0.29011060968E+02  0.53283754932E+02  0.78870245461E+01 0.  0.
         22    1    3    3    0    0 -0.11413466361E+02 -0.42485815405E+02  0.73952788716E+02  0.86048397335E+02  0.00000000000E+00 0.  1.
         22    1    4    4    0    0  0.26683433784E+01  0.22411873043E+01  0.27563627509E+01  0.44430296570E+01  0.00000000000E+00 0.  1.
         22    1    4    4    0    0  0.87451229823E+01  0.40244628101E+02  0.26254698217E+02  0.48840725275E+02  0.00000000000E+00 0.  1.
<mgrwt>
<rscale>  0 0.93871691E+02</rscale>
<asrwt>0</asrwt>
<pdfrwt beam="2">  1        1 0.27975618E-02 0.93871691E+02</pdfrwt>
<pdfrwt beam="1">  1       -1 0.18638154E-01 0.93871691E+02</pdfrwt>
<totfact> 0.72683260E+04</totfact>
</mgrwt>
</event>
<event>
 7    1  0.2787125E-009  0.1263974E+03  0.7818608E-02  0.1232901E+00
         -1   -1    0    0    0  501 -0.00000000000E+00  0.00000000000E+00  0.11788406327E+03  0.11788406338E+03  0.50400000000E-02 0.  1.
          1   -1    0    0  501    0  0.00000000000E+00 -0.00000000000E+00 -0.33881366649E+02  0.33881367024E+02  0.50400000000E-02 0. -1.
         23    2    1    2    0    0  0.00000000000E+00  0.00000000000E+00  0.84002696624E+02  0.15176543040E+03  0.12639736083E+03 0.  0.
    9000005    2    3    3    0    0  0.50514666853E+02 -0.24740410696E+02  0.75551714264E+02  0.94886272609E+02  0.11468378816E+02 0.  0.
         22    1    3    3    0    0 -0.50514666853E+02  0.24740410696E+02  0.84509823598E+01  0.56879157796E+02  0.00000000000E+00 0. -1.
         22    1    4    4    0    0  0.31771096285E+02 -0.20129634623E+02  0.43849519296E+02  0.57770105519E+02  0.00000000000E+00 0.  1.
         22    1    4    4    0    0  0.18743570568E+02 -0.46107760734E+01  0.31702194968E+02  0.37116167089E+02  0.00000000000E+00 0.  1.
<mgrwt>
<rscale>  0 0.12639736E+03</rscale>
<asrwt>0</asrwt>
<pdfrwt beam="2">  1        1 0.52125180E-02 0.12639736E+03</pdfrwt>
<pdfrwt beam="1">  1       -1 0.18136010E-01 0.12639736E+03</pdfrwt>
<totfact> 0.33740089E+04</totfact>
</mgrwt>
</event>
<event>
 7    1  0.2787125E-009  0.9016100E+02  0.7818608E-02  0.1302462E+00
         -1   -1    0    0    0  501 -0.00000000000E+00  0.00000000000E+00  0.10240557368E+02  0.10240558609E+02  0.50400000000E-02 0.  1.
          1   -1    0    0  501    0  0.00000000000E+00 -0.00000000000E+00 -0.19845124658E+03  0.19845124664E+03  0.50400000000E-02 0. -1.
         23    2    1    2    0    0 -0.88817841970E-15  0.00000000000E+00 -0.18821068921E+03  0.20869180525E+03  0.90161000692E+02 0.  0.
    9000005    2    3    3    0    0 -0.65084408603E+01 -0.27793474227E+02 -0.17451112485E+03  0.17702928678E+03  0.83903915425E+01 0.  0.
         22    1    3    3    0    0  0.65084408603E+01  0.27793474227E+02 -0.13699564357E+02  0.31662518466E+02  0.00000000000E+00 0.  1.
         22    1    4    4    0    0 -0.26600872306E+00 -0.18249928318E+02 -0.10031531341E+03  0.10196221236E+03  0.00000000000E+00 0. -1.
         22    1    4    4    0    0 -0.62424321372E+01 -0.95435459091E+01 -0.74195811437E+02  0.75067074422E+02  0.00000000000E+00 0. -1.
<mgrwt>
<rscale>  0 0.90161001E+02</rscale>
<asrwt>0</asrwt>
<pdfrwt beam="2">  1        1 0.30530958E-01 0.90161001E+02</pdfrwt>
<pdfrwt beam="1">  1       -1 0.15754706E-02 0.90161001E+02</pdfrwt>
<totfact> 0.12183023E+05</totfact>
</mgrwt>
</event>
<event>
 7    1  0.2787125E-009  0.1091816E+03  0.7818608E-02  0.1262093E+00
          1   -1    0    0  501    0  0.00000000000E+00  0.00000000000E+00  0.51639563845E+03  0.51639563847E+03  0.50400000000E-02 0. -1.
         -1   -1    0    0    0  501 -0.00000000000E+00 -0.00000000000E+00 -0.57710704623E+01  0.57710726631E+01  0.50400000000E-02 0.  1.
         23    2    1    2    0    0 -0.35527136788E-14  0.00000000000E+00  0.51062456798E+03  0.52216671113E+03  0.10918161378E+03 0.  0.
    9000005    2    3    3    0    0  0.27567430019E+02 -0.55432487329E+01  0.47822495134E+03  0.47926652509E+03  0.14373836587E+02 0.  0.
         22    1    3    3    0    0 -0.27567430019E+02  0.55432487329E+01  0.32399616642E+02  0.42900186048E+02  0.00000000000E+00 0.  1.
         22    1    4    4    0    0 -0.85125107180E-01  0.18621502717E+01  0.76578864732E+02  0.76601549420E+02  0.00000000000E+00 0. -1.
         22    1    4    4    0    0  0.27652555126E+02 -0.74053990047E+01  0.40164608661E+03  0.40266497567E+03  0.00000000000E+00 0. -1.
<mgrwt>
<rscale>  0 0.10918161E+03</rscale>
<asrwt>0</asrwt>
<pdfrwt beam="1">  1        1 0.79445508E-01 0.10918161E+03</pdfrwt>
<pdfrwt beam="2">  1       -1 0.88785689E-03 0.10918161E+03</pdfrwt>
<totfact> 0.86344407E+04</totfact>
</mgrwt>
</event>
<event>
 7    1  0.2787125E-009  0.9030472E+02  0.7818608E-02  0.1302115E+00
         -1   -1    0    0    0  501 -0.00000000000E+00  0.00000000000E+00  0.35994159703E+02  0.35994160055E+02  0.50400000000E-02 0.  1.
          1   -1    0    0  501    0  0.00000000000E+00 -0.00000000000E+00 -0.56640738221E+02  0.56640738446E+02  0.50400000000E-02 0. -1.
         23    2    1    2    0    0  0.00000000000E+00  0.00000000000E+00 -0.20646578519E+02  0.92634898501E+02  0.90304724216E+02 0.  0.
    9000005    2    3    3    0    0 -0.12739750311E+02  0.40333253313E+02  0.57899672661E+01  0.42755408590E+02  0.23299532116E+01 0.  0.
         22    1    3    3    0    0  0.12739750311E+02 -0.40333253313E+02 -0.26436545785E+02  0.49879489911E+02  0.00000000000E+00 0. -1.
         22    1    4    4    0    0 -0.91579721881E+01  0.31282688305E+02  0.37526270202E+01  0.32810931894E+02  0.00000000000E+00 0.  1.
         22    1    4    4    0    0 -0.35817781231E+01  0.90505650073E+01  0.20373402459E+01  0.99444766957E+01  0.00000000000E+00 0.  1.
<mgrwt>
<rscale>  0 0.90304724E+02</rscale>
<asrwt>0</asrwt>
<pdfrwt beam="2">  1        1 0.87139598E-02 0.90304724E+02</pdfrwt>
<pdfrwt beam="1">  1       -1 0.55375631E-02 0.90304724E+02</pdfrwt>
<totfact> 0.98120223E+04</totfact>
</mgrwt>
</event>
<event>
 7    1  0.2787125E-009  0.8695268E+02  0.7818608E-02  0.1310404E+00
          1   -1    0    0  501    0  0.00000000000E+00  0.00000000000E+00  0.31063749700E+03  0.31063749704E+03  0.50400000000E-02 0. -1.
         -1   -1    0    0    0  501 -0.00000000000E+00 -0.00000000000E+00 -0.60848798478E+01  0.60848819351E+01  0.50400000000E-02 0.  1.
         23    2    1    2    0    0 -0.88817841970E-15  0.00000000000E+00  0.30455261715E+03  0.31672237897E+03  0.86952680982E+02 0.  0.
    9000005    2    3    3    0    0  0.63751224365E+01  0.41959559895E+02  0.11947728747E+03  0.12684314233E+03  0.36212818195E+01 0.  0.
         22    1    3    3    0    0 -0.63751224365E+01 -0.41959559895E+02  0.18507532968E+03  0.18987923664E+03  0.00000000000E+00 0. -1.
         22    1    4    4    0    0  0.31186437333E+01  0.21008785304E+02  0.54402334227E+02  0.58401275397E+02  0.00000000000E+00 0.  1.
         22    1    4    4    0    0  0.32564787032E+01  0.20950774591E+02  0.65074953241E+02  0.68441866930E+02  0.00000000000E+00 0.  1.
<mgrwt>
<rscale>  0 0.86952681E+02</rscale>
<asrwt>0</asrwt>
<pdfrwt beam="1">  1        1 0.47790403E-01 0.86952681E+02</pdfrwt>
<pdfrwt beam="2">  1       -1 0.93613515E-03 0.86952681E+02</pdfrwt>
<totfact> 0.14628477E+05</totfact>
</mgrwt>
</event>
<event>
 7    1  0.2787125E-009  0.9110379E+02  0.7818608E-02  0.1300201E+00
         -1   -1    0    0    0  501 -0.00000000000E+00  0.00000000000E+00  0.32610866694E+02  0.32610867084E+02  0.50400000000E-02 0.  1.
          1   -1    0    0  501    0  0.00000000000E+00 -0.00000000000E+00 -0.63628339078E+02  0.63628339278E+02  0.50400000000E-02 0. -1.
         23    2    1    2    0    0  0.35527136788E-14  0.00000000000E+00 -0.31017472384E+02  0.96239206362E+02  0.91103793818E+02 0.  0.
    9000005    2    3    3    0    0  0.26168243135E+02  0.15153444567E+02 -0.50671569119E+02  0.60174163045E+02  0.11786354406E+02 0.  0.
         22    1    3    3    0    0 -0.26168243135E+02 -0.15153444567E+02  0.19654096735E+02  0.36065043317E+02  0.00000000000E+00 0.  1.
         22    1    4    4    0    0 -0.47632738656E+00  0.25981445087E+01 -0.71500576361E+01  0.76223727846E+01  0.00000000000E+00 0. -1.
         22    1    4    4    0    0  0.26644570521E+02  0.12555300058E+02 -0.43521511483E+02  0.52551790260E+02  0.00000000000E+00 0. -1.
<mgrwt>
<rscale>  0 0.91103794E+02</rscale>
<asrwt>0</asrwt>
<pdfrwt beam="2">  1        1 0.97889753E-02 0.91103794E+02</pdfrwt>
<pdfrwt beam="1">  1       -1 0.50170565E-02 0.91103794E+02</pdfrwt>
<totfact> 0.97450220E+04</totfact>
</mgrwt>
</event>
<event>
 7    1  0.2787125E-009  0.8925330E+02  0.7818608E-02  0.1304670E+00
          1   -1    0    0  501    0  0.00000000000E+00  0.00000000000E+00  0.47371945290E+03  0.47371945293E+03  0.50400000000E-02 0. -1.
         -1   -1    0    0    0  501 -0.00000000000E+00 -0.00000000000E+00 -0.42040433374E+01  0.42040463585E+01  0.50400000000E-02 0.  1.
         23    2    1    2    0    0  0.00000000000E+00  0.71054273576E-14  0.46951540957E+03  0.47792349929E+03  0.89253298833E+02 0.  0.
    9000005    2    3    3    0    0  0.69022295073E+01 -0.32458872196E+02  0.39117795562E+03  0.39284720501E+03  0.14405359066E+02 0.  0.
         22    1    3    3    0    0 -0.69022295073E+01  0.32458872196E+02  0.78337453951E+02  0.85076294278E+02  0.00000000000E+00 0.  1.
         22    1    4    4    0    0 -0.13189809399E+01 -0.76735960461E+01  0.43605442358E+02  0.44295128290E+02  0.00000000000E+00 0.  1.
         22    1    4    4    0    0  0.82212104472E+01 -0.24785276150E+02  0.34757251326E+03  0.34855207672E+03  0.00000000000E+00 0.  1.
<mgrwt>
<rscale>  0 0.89253299E+02</rscale>
<asrwt>0</asrwt>
<pdfrwt beam="1">  1        1 0.72879889E-01 0.89253299E+02</pdfrwt>
<pdfrwt beam="2">  1       -1 0.64677637E-03 0.89253299E+02</pdfrwt>
<totfact> 0.14636249E+05</totfact>
</mgrwt>
</event>
<event>
 7    1  0.2787125E-009  0.9266900E+02  0.7818608E-02  0.1296514E+00
          1   -1    0    0  501    0  0.00000000000E+00  0.00000000000E+00  0.21534307082E+02  0.21534307672E+02  0.50400000000E-02 0. -1.
         -1   -1    0    0    0  501 -0.00000000000E+00 -0.00000000000E+00 -0.99696074170E+02  0.99696074298E+02  0.50400000000E-02 0.  1.
         23    2    1    2    0    0  0.00000000000E+00  0.00000000000E+00 -0.78161767088E+02  0.12123038197E+03  0.92669000633E+02 0.  0.
    9000005    2    3    3    0    0  0.32239248880E+02 -0.53910006632E+01  0.97622073180E+00  0.35607644495E+02  0.14089687116E+02 0.  0.
         22    1    3    3    0    0 -0.32239248880E+02  0.53910006632E+01 -0.79137987820E+02  0.85622737475E+02  0.00000000000E+00 0.  1.
         22    1    4    4    0    0  0.14355301335E+02 -0.30646811968E+01 -0.65395590643E+01  0.16069622896E+02  0.00000000000E+00 0.  1.
         22    1    4    4    0    0  0.17883947545E+02 -0.23263194664E+01  0.75157797961E+01  0.19538021599E+02  0.00000000000E+00 0.  1.
<mgrwt>
<rscale>  0 0.92669001E+02</rscale>
<asrwt>0</asrwt>
<pdfrwt beam="1">  1        1 0.33129704E-02 0.92669001E+02</pdfrwt>
<pdfrwt beam="2">  1       -1 0.15337857E-01 0.92669001E+02</pdfrwt>
<totfact> 0.78079499E+04</totfact>
</mgrwt>
</event>
<event>
 7    1  0.2787125E-009  0.8877226E+02  0.7818608E-02  0.1305852E+00
          1   -1    0    0  501    0  0.00000000000E+00  0.00000000000E+00  0.34725958492E+01  0.34725995067E+01  0.50400000000E-02 0. -1.
         -1   -1    0    0    0  501 -0.00000000000E+00 -0.00000000000E+00 -0.56733560733E+03  0.56733560735E+03  0.50400000000E-02 0.  1.
         23    2    1    2    0    0  0.35527136788E-14  0.00000000000E+00 -0.56386301148E+03  0.57080820685E+03  0.88772255246E+02 0.  0.
    9000005    2    3    3    0    0  0.31666761556E+02 -0.24815200896E+02 -0.39982864302E+03  0.40191222698E+03  0.72053059357E+01 0.  0.
         22    1    3    3    0    0 -0.31666761556E+02  0.24815200896E+02 -0.16403436845E+03  0.16889597987E+03  0.00000000000E+00 0.  1.
         22    1    4    4    0    0  0.28060070331E+02 -0.19080377417E+02 -0.34566913951E+03  0.34733065277E+03  0.00000000000E+00 0. -1.
         22    1    4    4    0    0  0.36066912251E+01 -0.57348234793E+01 -0.54159503516E+02  0.54581574208E+02  0.00000000000E+00 0. -1.
<mgrwt>
<rscale>  0 0.88772255E+02</rscale>
<asrwt>0</asrwt>
<pdfrwt beam="1">  1        1 0.53424625E-03 0.88772255E+02</pdfrwt>
<pdfrwt beam="2">  1       -1 0.87282328E-01 0.88772255E+02</pdfrwt>
<totfact> 0.46451622E+04</totfact>
</mgrwt>
</event>
<event>
 7    1  0.2787125E-009  0.9192016E+02  0.7818608E-02  0.1298267E+00
          1   -1    0    0  501    0  0.00000000000E+00  0.00000000000E+00  0.15615899912E+03  0.15615899920E+03  0.50400000000E-02 0. -1.
         -1   -1    0    0    0  501 -0.00000000000E+00 -0.00000000000E+00 -0.13526782885E+02  0.13526783824E+02  0.50400000000E-02 0.  1.
         23    2    1    2    0    0  0.00000000000E+00  0.17763568394E-14  0.14263221624E+03  0.16968578303E+03  0.91920160208E+02 0.  0.
    9000005    2    3    3    0    0  0.19447592068E+02 -0.15457593540E+02  0.25596446883E+01  0.27427316370E+02  0.11338424363E+02 0.  0.
         22    1    3    3    0    0 -0.19447592068E+02  0.15457593540E+02  0.14007257155E+03  0.14225846666E+03  0.00000000000E+00 0. -1.
         22    1    4    4    0    0  0.94273357583E+01 -0.14176481346E+01  0.34931311635E+01  0.10153144885E+02  0.00000000000E+00 0.  1.
         22    1    4    4    0    0  0.10020256310E+02 -0.14039945405E+02 -0.93348647515E+00  0.17274171485E+02  0.00000000000E+00 0.  1.
<mgrwt>
<rscale>  0 0.91920160E+02</rscale>
<asrwt>0</asrwt>
<pdfrwt beam="1">  1        1 0.24024460E-01 0.91920160E+02</pdfrwt>
<pdfrwt beam="2">  1       -1 0.20810438E-02 0.91920160E+02</pdfrwt>
<totfact> 0.11052020E+05</totfact>
</mgrwt>
</event>
<event>
 7    1  0.2787125E-009  0.8994187E+02  0.7818608E-02  0.1302993E+00
          1   -1    0    0  501    0  0.00000000000E+00  0.00000000000E+00  0.72875189404E+02  0.72875189579E+02  0.50400000000E-02 0. -1.
         -1   -1    0    0    0  501 -0.00000000000E+00 -0.00000000000E+00 -0.27751351236E+02  0.27751351694E+02  0.50400000000E-02 0.  1.
         23    2    1    2    0    0 -0.71054273576E-14  0.44408920985E-15  0.45123838168E+02  0.10062654127E+03  0.89941870324E+02 0.  0.
    9000005    2    3    3    0    0  0.39137515000E+02 -0.24973446887E+01  0.73456952056E+00  0.41394886037E+02  0.13229330547E+02 0.  0.
         22    1    3    3    0    0 -0.39137515000E+02  0.24973446887E+01  0.44389268648E+02  0.59231655236E+02  0.00000000000E+00 0. -1.
         22    1    4    4    0    0  0.29618469376E+02 -0.70477412063E+01  0.30347661977E+01  0.30596310075E+02  0.00000000000E+00 0. -1.
         22    1    4    4    0    0  0.95190456239E+01  0.45503965175E+01 -0.23001966772E+01  0.10798575962E+02  0.00000000000E+00 0. -1.
<mgrwt>
<rscale>  0 0.89941870E+02</rscale>
<asrwt>0</asrwt>
<pdfrwt beam="1">  1        1 0.11211568E-01 0.89941870E+02</pdfrwt>
<pdfrwt beam="2">  1       -1 0.42694387E-02 0.89941870E+02</pdfrwt>
<totfact> 0.10307686E+05</totfact>
</mgrwt>
</event>
<event>
 7    1  0.2787125E-009  0.9042697E+02  0.7818608E-02  0.1301821E+00
          1   -1    0    0  501    0  0.00000000000E+00  0.00000000000E+00  0.26469866854E+02  0.26469867333E+02  0.50400000000E-02 0. -1.
         -1   -1    0    0    0  501 -0.00000000000E+00 -0.00000000000E+00 -0.77229680544E+02  0.77229680709E+02  0.50400000000E-02 0.  1.
         23    2    1    2    0    0  0.00000000000E+00  0.00000000000E+00 -0.50759813691E+02  0.10369954804E+03  0.90426973732E+02 0.  0.
    9000005    2    3    3    0    0  0.20394172775E+02 -0.38950653511E+02 -0.23876192443E+02  0.52165047137E+02  0.14766309123E+02 0.  0.
         22    1    3    3    0    0 -0.20394172775E+02  0.38950653511E+02 -0.26883621248E+02  0.51534500905E+02  0.00000000000E+00 0. -1.
         22    1    4    4    0    0  0.12475519153E+02 -0.23322498648E+02 -0.59726931773E+01  0.27115504515E+02  0.00000000000E+00 0. -1.
         22    1    4    4    0    0  0.79186536225E+01 -0.15628154863E+02 -0.17903499266E+02  0.25049542622E+02  0.00000000000E+00 0. -1.
<mgrwt>
<rscale>  0 0.90426974E+02</rscale>
<asrwt>0</asrwt>
<pdfrwt beam="1">  1        1 0.40722873E-02 0.90426974E+02</pdfrwt>
<pdfrwt beam="2">  1       -1 0.11881489E-01 0.90426974E+02</pdfrwt>
<totfact> 0.86969328E+04</totfact>
</mgrwt>
</event>
<event>
 7    1  0.2787125E-009  0.8964840E+02  0.7818608E-02  0.1303705E+00
         -1   -1    0    0    0  501 -0.00000000000E+00  0.00000000000E+00  0.26272366395E+02  0.26272366879E+02  0.50400000000E-02 0.  1.
          1   -1    0    0  501    0  0.00000000000E+00 -0.00000000000E+00 -0.76476129361E+02  0.76476129527E+02  0.50400000000E-02 0. -1.
         23    2    1    2    0    0  0.00000000000E+00  0.00000000000E+00 -0.50203762966E+02  0.10274849641E+03  0.89648400419E+02 0.  0.
    9000005    2    3    3    0    0 -0.37211903166E+02 -0.92104068271E+01  0.82563458656E+00  0.38924075173E+02  0.66966129106E+01 0.  0.
         22    1    3    3    0    0  0.37211903166E+02  0.92104068271E+01 -0.51029397553E+02  0.63824421233E+02  0.00000000000E+00 0. -1.
         22    1    4    4    0    0 -0.71167760737E+01 -0.13942971712E+01 -0.24587646569E+01  0.76575511701E+01  0.00000000000E+00 0. -1.
         22    1    4    4    0    0 -0.30095127092E+02 -0.78161096559E+01  0.32843992435E+01  0.31266524003E+02  0.00000000000E+00 0. -1.
<mgrwt>
<rscale>  0 0.89648400E+02</rscale>
<asrwt>0</asrwt>
<pdfrwt beam="2">  1        1 0.11765558E-01 0.89648400E+02</pdfrwt>
<pdfrwt beam="1">  1       -1 0.40419026E-02 0.89648400E+02</pdfrwt>
<totfact> 0.10478238E+05</totfact>
</mgrwt>
</event>
<event>
 7    1  0.2787125E-009  0.9082530E+02  0.7818608E-02  0.1300865E+00
         -1   -1    0    0    0  501 -0.00000000000E+00  0.00000000000E+00  0.34196394970E+02  0.34196395342E+02  0.50400000000E-02 0.  1.
          1   -1    0    0  501    0  0.00000000000E+00 -0.00000000000E+00 -0.60307783679E+02  0.60307783890E+02  0.50400000000E-02 0. -1.
         23    2    1    2    0    0  0.00000000000E+00  0.44408920985E-15 -0.26111388709E+02  0.94504179231E+02  0.90825300836E+02 0.  0.
    9000005    2    3    3    0    0  0.38692757153E+02  0.33538374490E+01 -0.35786860657E+02  0.54479281491E+02  0.13375912471E+02 0.  0.
         22    1    3    3    0    0 -0.38692757153E+02 -0.33538374490E+01  0.96754719478E+01  0.40024897740E+02  0.00000000000E+00 0.  1.
         22    1    4    4    0    0  0.35267890105E+02  0.68273617824E+01 -0.29261646486E+02  0.46332287839E+02  0.00000000000E+00 0.  1.
         22    1    4    4    0    0  0.34248670479E+01 -0.34735243334E+01 -0.65252141706E+01  0.81469936518E+01  0.00000000000E+00 0.  1.
<mgrwt>
<rscale>  0 0.90825301E+02</rscale>
<asrwt>0</asrwt>
<pdfrwt beam="2">  1        1 0.92781206E-02 0.90825301E+02</pdfrwt>
<pdfrwt beam="1">  1       -1 0.52609839E-02 0.90825301E+02</pdfrwt>
<totfact> 0.97484236E+04</totfact>
</mgrwt>
</event>
<event>
 7    1  0.2787125E-009  0.8796947E+02  0.7818608E-02  0.1307845E+00
         -1   -1    0    0    0  501 -0.00000000000E+00  0.00000000000E+00  0.12598498322E+03  0.12598498332E+03  0.50400000000E-02 0.  1.
          1   -1    0    0  501    0  0.00000000000E+00 -0.00000000000E+00 -0.15356250555E+02  0.15356251383E+02  0.50400000000E-02 0. -1.
         23    2    1    2    0    0  0.00000000000E+00  0.00000000000E+00  0.11062873267E+03  0.14134123470E+03  0.87969472754E+02 0.  0.
    9000005    2    3    3    0    0 -0.17665376287E+02 -0.16269678681E+02  0.11358250499E+03  0.11714427757E+03  0.15653381864E+02 0.  0.
         22    1    3    3    0    0  0.17665376287E+02  0.16269678681E+02 -0.29537723222E+01  0.24196957137E+02  0.00000000000E+00 0. -1.
         22    1    4    4    0    0 -0.58817435224E+01 -0.11113124700E+02  0.83295449169E+02  0.84239113835E+02  0.00000000000E+00 0.  1.
         22    1    4    4    0    0 -0.11783632765E+02 -0.51565539807E+01  0.30287055819E+02  0.32905163732E+02  0.00000000000E+00 0.  1.
<mgrwt>
<rscale>  0 0.87969473E+02</rscale>
<asrwt>0</asrwt>
<pdfrwt beam="2">  1        1 0.23625001E-02 0.87969473E+02</pdfrwt>
<pdfrwt beam="1">  1       -1 0.19382305E-01 0.87969473E+02</pdfrwt>
<totfact> 0.85276957E+04</totfact>
</mgrwt>
</event>
<event>
 7    1  0.2787125E-009  0.8732388E+02  0.7818608E-02  0.1309465E+00
          1   -1    0    0  501    0  0.00000000000E+00  0.00000000000E+00  0.43441419223E+02  0.43441419516E+02  0.50400000000E-02 0. -1.
         -1   -1    0    0    0  501 -0.00000000000E+00 -0.00000000000E+00 -0.43883584399E+02  0.43883584689E+02  0.50400000000E-02 0.  1.
         23    2    1    2    0    0  0.00000000000E+00  0.00000000000E+00 -0.44216517610E+00  0.87325004205E+02  0.87323884758E+02 0.  0.
    9000005    2    3    3    0    0 -0.19034702700E+02 -0.14046362867E+02  0.35013929150E+02  0.44701597002E+02  0.14582089127E+02 0.  0.
         22    1    3    3    0    0  0.19034702700E+02  0.14046362867E+02 -0.35456094326E+02  0.42623407203E+02  0.00000000000E+00 0.  1.
         22    1    4    4    0    0 -0.76723858286E+00 -0.86557772651E+01  0.97077349904E+01  0.13028862335E+02  0.00000000000E+00 0. -1.
         22    1    4    4    0    0 -0.18267464118E+02 -0.53905856019E+01  0.25306194160E+02  0.31672734667E+02  0.00000000000E+00 0. -1.
<mgrwt>
<rscale>  0 0.87323885E+02</rscale>
<asrwt>0</asrwt>
<pdfrwt beam="1">  1        1 0.66832954E-02 0.87323885E+02</pdfrwt>
<pdfrwt beam="2">  1       -1 0.67513207E-02 0.87323885E+02</pdfrwt>
<totfact> 0.10360445E+05</totfact>
</mgrwt>
</event>
<event>
 7    1  0.2787125E-009  0.9115799E+02  0.7818608E-02  0.1300071E+00
          1   -1    0    0  501    0  0.00000000000E+00  0.00000000000E+00  0.14960938228E+03  0.14960938237E+03  0.50400000000E-02 0. -1.
         -1   -1    0    0    0  501 -0.00000000000E+00 -0.00000000000E+00 -0.13885790905E+02  0.13885791819E+02  0.50400000000E-02 0.  1.
         23    2    1    2    0    0  0.00000000000E+00  0.00000000000E+00  0.13572359138E+03  0.16349517419E+03  0.91157987724E+02 0.  0.
    9000005    2    3    3    0    0  0.11777411527E+02 -0.40049853233E+02  0.35237908334E+02  0.54683085414E+02  0.24148458358E+01 0.  0.
         22    1    3    3    0    0 -0.11777411527E+02  0.40049853233E+02  0.10048568304E+03  0.10881208877E+03  0.00000000000E+00 0. -1.
         22    1    4    4    0    0  0.75476586246E+01 -0.29090450138E+02  0.24683040314E+02  0.38890537655E+02  0.00000000000E+00 0.  1.
         22    1    4    4    0    0  0.42297529020E+01 -0.10959403095E+02  0.10554868019E+02  0.15792547759E+02  0.00000000000E+00 0.  1.
<mgrwt>
<rscale>  0 0.91157988E+02</rscale>
<asrwt>0</asrwt>
<pdfrwt beam="1">  1        1 0.23016828E-01 0.91157988E+02</pdfrwt>
<pdfrwt beam="2">  1       -1 0.21362756E-02 0.91157988E+02</pdfrwt>
<totfact> 0.11214158E+05</totfact>
</mgrwt>
</event>
<event>
 7    1  0.2787125E-009  0.9371169E+02  0.7818608E-02  0.1294104E+00
         -1   -1    0    0    0  501 -0.00000000000E+00  0.00000000000E+00  0.14216356657E+03  0.14216356666E+03  0.50400000000E-02 0.  1.
          1   -1    0    0  501    0  0.00000000000E+00 -0.00000000000E+00 -0.15443269934E+02  0.15443270756E+02  0.50400000000E-02 0. -1.
         23    2    1    2    0    0  0.00000000000E+00  0.00000000000E+00  0.12672029663E+03  0.15760683741E+03  0.93711694149E+02 0.  0.
    9000005    2    3    3    0    0  0.23111699132E+02 -0.18303132259E+02  0.28034758948E+01  0.30231275591E+02  0.60757929126E+01 0.  0.
         22    1    3    3    0    0 -0.23111699132E+02  0.18303132259E+02  0.12391682074E+03  0.12737556182E+03  0.00000000000E+00 0.  1.
         22    1    4    4    0    0  0.20056085063E+01 -0.63623587582E+00 -0.11923405979E+01  0.24184577052E+01  0.00000000000E+00 0. -1.
         22    1    4    4    0    0  0.21106090626E+02 -0.17666896383E+02  0.39958164927E+01  0.27812817886E+02  0.00000000000E+00 0. -1.
<mgrwt>
<rscale>  0 0.93711694E+02</rscale>
<asrwt>0</asrwt>
<pdfrwt beam="2">  1        1 0.23758878E-02 0.93711694E+02</pdfrwt>
<pdfrwt beam="1">  1       -1 0.21871318E-01 0.93711694E+02</pdfrwt>
<totfact> 0.70512978E+04</totfact>
</mgrwt>
</event>
<event>
 7    1  0.2787125E-009  0.9210212E+02  0.7818608E-02  0.1297839E+00
          1   -1    0    0  501    0  0.00000000000E+00  0.00000000000E+00  0.39264106196E+02  0.39264106520E+02  0.50400000000E-02 0. -1.
         -1   -1    0    0    0  501 -0.00000000000E+00 -0.00000000000E+00 -0.54011164750E+02  0.54011164985E+02  0.50400000000E-02 0.  1.
         23    2    1    2    0    0  0.00000000000E+00  0.00000000000E+00 -0.14747058554E+02  0.93275271504E+02  0.92102120161E+02 0.  0.
    9000005    2    3    3    0    0 -0.11957868743E+02 -0.43303551020E+02 -0.14232315245E+02  0.48348073544E+02  0.10806908085E+02 0.  0.
         22    1    3    3    0    0  0.11957868743E+02  0.43303551020E+02 -0.51474330837E+00  0.44927197960E+02  0.00000000000E+00 0. -1.
         22    1    4    4    0    0 -0.39799849461E+01 -0.32470618581E+02 -0.10977921242E+02  0.34506464698E+02  0.00000000000E+00 0. -1.
         22    1    4    4    0    0 -0.79778837966E+01 -0.10832932440E+02 -0.32543940028E+01  0.13841608846E+02  0.00000000000E+00 0. -1.
<mgrwt>
<rscale>  0 0.92102120E+02</rscale>
<asrwt>0</asrwt>
<pdfrwt beam="1">  1        1 0.60406318E-02 0.92102120E+02</pdfrwt>
<pdfrwt beam="2">  1       -1 0.83094100E-02 0.92102120E+02</pdfrwt>
<totfact> 0.87858695E+04</totfact>
</mgrwt>
</event>
<event>
 7    1  0.2787125E-009  0.9146934E+02  0.7818608E-02  0.1299332E+00
         -1   -1    0    0    0  501 -0.00000000000E+00  0.00000000000E+00  0.32255584426E+03  0.32255584430E+03  0.50400000000E-02 0.  1.
          1   -1    0    0  501    0  0.00000000000E+00 -0.00000000000E+00 -0.64846432756E+01  0.64846452342E+01  0.50400000000E-02 0. -1.
         23    2    1    2    0    0  0.00000000000E+00 -0.88817841970E-15  0.31607120099E+03  0.32904048954E+03  0.91469337271E+02 0.  0.
    9000005    2    3    3    0    0 -0.44088866040E+02 -0.61785014903E+01  0.17836018568E+03  0.18431203440E+03  0.13287896721E+02 0.  0.
         22    1    3    3    0    0  0.44088866040E+02  0.61785014903E+01  0.13771101531E+03  0.14472845514E+03  0.00000000000E+00 0. -1.
         22    1    4    4    0    0  0.53990403837E+00 -0.74943101430E+00  0.10336167837E+02  0.10377355577E+02  0.00000000000E+00 0. -1.
         22    1    4    4    0    0 -0.44628770079E+02 -0.54290704760E+01  0.16802401784E+03  0.17393467882E+03  0.00000000000E+00 0. -1.
<mgrwt>
<rscale>  0 0.91469337E+02</rscale>
<asrwt>0</asrwt>
<pdfrwt beam="2">  1        1 0.99763777E-03 0.91469337E+02</pdfrwt>
<pdfrwt beam="1">  1       -1 0.49623967E-01 0.91469337E+02</pdfrwt>
<totfact> 0.58338885E+04</totfact>
</mgrwt>
</event>
<event>
 7    1  0.2787125E-009  0.8991706E+02  0.7818608E-02  0.1303053E+00
         -1   -1    0    0    0  501 -0.00000000000E+00  0.00000000000E+00  0.10416549948E+02  0.10416551167E+02  0.50400000000E-02 0.  1.
          1   -1    0    0  501    0  0.00000000000E+00 -0.00000000000E+00 -0.19404402138E+03  0.19404402145E+03  0.50400000000E-02 0. -1.
         23    2    1    2    0    0  0.00000000000E+00  0.00000000000E+00 -0.18362747143E+03  0.20446057261E+03  0.89917058939E+02 0.  0.
    9000005    2    3    3    0    0  0.24789777870E+01  0.42773797192E+02 -0.61350737933E+02  0.74894594778E+02  0.30893728923E+01 0.  0.
         22    1    3    3    0    0 -0.24789777870E+01 -0.42773797192E+02 -0.12227673350E+03  0.12956597783E+03  0.00000000000E+00 0. -1.
         22    1    4    4    0    0  0.14900059263E+01  0.19081584053E+02 -0.30010622943E+02  0.35594444188E+02  0.00000000000E+00 0.  1.
         22    1    4    4    0    0  0.98897186064E+00  0.23692213139E+02 -0.31340114991E+02  0.39300150590E+02  0.00000000000E+00 0.  1.
<mgrwt>
<rscale>  0 0.89917059E+02</rscale>
<asrwt>0</asrwt>
<pdfrwt beam="2">  1        1 0.29852924E-01 0.89917059E+02</pdfrwt>
<pdfrwt beam="1">  1       -1 0.16025464E-02 0.89917059E+02</pdfrwt>
<totfact> 0.12218645E+05</totfact>
</mgrwt>
</event>
<event>
 7    1  0.2787125E-009  0.9455867E+02  0.7818608E-02  0.1292173E+00
         -1   -1    0    0    0  501 -0.00000000000E+00  0.00000000000E+00  0.41374068077E+02  0.41374068384E+02  0.50400000000E-02 0.  1.
          1   -1    0    0  501    0  0.00000000000E+00 -0.00000000000E+00 -0.54027449704E+02  0.54027449939E+02  0.50400000000E-02 0. -1.
         23    2    1    2    0    0  0.00000000000E+00  0.00000000000E+00 -0.12653381627E+02  0.95401518324E+02  0.94558667672E+02 0.  0.
    9000005    2    3    3    0    0  0.17031063773E+02  0.40152668866E+02 -0.22865875971E+02  0.50606552189E+02  0.11656795880E+02 0.  0.
         22    1    3    3    0    0 -0.17031063773E+02 -0.40152668866E+02  0.10212494344E+02  0.44794966135E+02  0.00000000000E+00 0.  1.
         22    1    4    4    0    0  0.69117193777E+01  0.86297038476E+01 -0.13891755657E+01  0.11143314678E+02  0.00000000000E+00 0. -1.
         22    1    4    4    0    0  0.10119344395E+02  0.31522965019E+02 -0.21476700405E+02  0.39463237511E+02  0.00000000000E+00 0. -1.
<mgrwt>
<rscale>  0 0.94558668E+02</rscale>
<asrwt>0</asrwt>
<pdfrwt beam="2">  1        1 0.83119154E-02 0.94558668E+02</pdfrwt>
<pdfrwt beam="1">  1       -1 0.63652413E-02 0.94558668E+02</pdfrwt>
<totfact> 0.85675993E+04</totfact>
</mgrwt>
</event>
<event>
 7    1  0.2787125E-009  0.9228251E+02  0.7818608E-02  0.1297417E+00
         -1   -1    0    0    0  501 -0.00000000000E+00  0.00000000000E+00  0.17580354759E+01  0.17580427003E+01  0.50400000000E-02 0.  1.
          1   -1    0    0  501    0  0.00000000000E+00 -0.00000000000E+00 -0.12110170048E+04  0.12110170048E+04  0.50400000000E-02 0. -1.
         23    2    1    2    0    0 -0.35527136788E-14  0.88817841970E-15 -0.12092589693E+04  0.12127750475E+04  0.92282506326E+02 0.  0.
    9000005    2    3    3    0    0 -0.27568009741E+02  0.51786253940E+01 -0.10840998801E+04  0.10845112142E+04  0.10257209760E+02 0.  0.
         22    1    3    3    0    0  0.27568009741E+02 -0.51786253940E+01 -0.12515908917E+03  0.12826383326E+03  0.00000000000E+00 0.  1.
         22    1    4    4    0    0 -0.12469756524E+02 -0.87893849865E+00 -0.62070215519E+03  0.62082802193E+03  0.00000000000E+00 0.  1.
         22    1    4    4    0    0 -0.15098253217E+02  0.60575638927E+01 -0.46339772493E+03  0.46368319228E+03  0.00000000000E+00 0.  1.
<mgrwt>
<rscale>  0 0.92282506E+02</rscale>
<asrwt>0</asrwt>
<pdfrwt beam="2">  1        1 0.18630964E+00 0.92282506E+02</pdfrwt>
<pdfrwt beam="1">  1       -1 0.27046852E-03 0.92282506E+02</pdfrwt>
<totfact> 0.12277105E+05</totfact>
</mgrwt>
</event>
<event>
 7    1  0.2787125E-009  0.8766082E+02  0.7818608E-02  0.1308617E+00
         -1   -1    0    0    0  501 -0.00000000000E+00  0.00000000000E+00  0.50447207381E+01  0.50447232557E+01  0.50400000000E-02 0.  1.
          1   -1    0    0  501    0  0.00000000000E+00 -0.00000000000E+00 -0.38081482417E+03  0.38081482420E+03  0.50400000000E-02 0. -1.
         23    2    1    2    0    0  0.35527136788E-14  0.71054273576E-14 -0.37577010343E+03  0.38585954746E+03  0.87660822105E+02 0.  0.
    9000005    2    3    3    0    0  0.26642597519E+02  0.33091417246E+02 -0.22087186262E+03  0.22524094671E+03  0.12009766139E+02 0.  0.
         22    1    3    3    0    0 -0.26642597519E+02 -0.33091417246E+02 -0.15489824081E+03  0.16061860075E+03  0.00000000000E+00 0. -1.
         22    1    4    4    0    0  0.24203897308E+02  0.32028663400E+02 -0.21591403002E+03  0.21961450836E+03  0.00000000000E+00 0. -1.
         22    1    4    4    0    0  0.24387002105E+01  0.10627538457E+01 -0.49578325973E+01  0.56264383509E+01  0.00000000000E+00 0. -1.
<mgrwt>
<rscale>  0 0.87660822E+02</rscale>
<asrwt>0</asrwt>
<pdfrwt beam="2">  1        1 0.58586873E-01 0.87660822E+02</pdfrwt>
<pdfrwt beam="1">  1       -1 0.77611138E-03 0.87660822E+02</pdfrwt>
<totfact> 0.14848344E+05</totfact>
</mgrwt>
</event>
<event>
 7    1  0.2787125E-009  0.9130814E+02  0.7818608E-02  0.1299714E+00
         -1   -1    0    0    0  501 -0.00000000000E+00  0.00000000000E+00  0.41512646383E+02  0.41512646689E+02  0.50400000000E-02 0.  1.
          1   -1    0    0  501    0  0.00000000000E+00 -0.00000000000E+00 -0.50208653677E+02  0.50208653930E+02  0.50400000000E-02 0. -1.
         23    2    1    2    0    0  0.00000000000E+00  0.00000000000E+00 -0.86960072935E+01  0.91721300619E+02  0.91308140077E+02 0.  0.
    9000005    2    3    3    0    0  0.36687459331E+02  0.20993070595E+02  0.10462348478E+02  0.45313097884E+02  0.12535446500E+02 0.  0.
         22    1    3    3    0    0 -0.36687459331E+02 -0.20993070595E+02 -0.19158355772E+02  0.46408202735E+02  0.00000000000E+00 0.  1.
         22    1    4    4    0    0  0.27612660936E+02  0.13681465177E+02  0.19431868860E+01  0.30877459555E+02  0.00000000000E+00 0.  1.
         22    1    4    4    0    0  0.90747983958E+01  0.73116054184E+01  0.85191615922E+01  0.14435638329E+02  0.00000000000E+00 0.  1.
<mgrwt>
<rscale>  0 0.91308140E+02</rscale>
<asrwt>0</asrwt>
<pdfrwt beam="2">  1        1 0.77244083E-02 0.91308140E+02</pdfrwt>
<pdfrwt beam="1">  1       -1 0.63865610E-02 0.91308140E+02</pdfrwt>
<totfact> 0.93445530E+04</totfact>
</mgrwt>
</event>
<event>
 7    1  0.2787125E-009  0.9025915E+02  0.7818608E-02  0.1302225E+00
          1   -1    0    0  501    0  0.00000000000E+00  0.00000000000E+00  0.13141697541E+03  0.13141697551E+03  0.50400000000E-02 0. -1.
         -1   -1    0    0    0  501 -0.00000000000E+00 -0.00000000000E+00 -0.15497834130E+02  0.15497834950E+02  0.50400000000E-02 0.  1.
         23    2    1    2    0    0 -0.71054273576E-14 -0.88817841970E-15  0.11591914128E+03  0.14691481046E+03  0.90259150320E+02 0.  0.
    9000005    2    3    3    0    0 -0.43794385618E+02 -0.75441943652E+01  0.56371871877E+02  0.72613125593E+02  0.10955135283E+02 0.  0.
         22    1    3    3    0    0  0.43794385618E+02  0.75441943652E+01  0.59547269403E+02  0.74301684864E+02  0.00000000000E+00 0.  1.
         22    1    4    4    0    0 -0.54753555380E+01 -0.46268496268E+01  0.11299655699E+02  0.13381684298E+02  0.00000000000E+00 0.  1.
         22    1    4    4    0    0 -0.38319030080E+02 -0.29173447384E+01  0.45072216179E+02  0.59231441295E+02  0.00000000000E+00 0.  1.
<mgrwt>
<rscale>  0 0.90259150E+02</rscale>
<asrwt>0</asrwt>
<pdfrwt beam="1">  1        1 0.20217997E-01 0.90259150E+02</pdfrwt>
<pdfrwt beam="2">  1       -1 0.23842822E-02 0.90259150E+02</pdfrwt>
<totfact> 0.11251278E+05</totfact>
</mgrwt>
</event>
<event>
 6    1  0.2787125E-009  0.2852083E+03  0.7818608E-02  0.1092878E+00
         -1   -1    0    0    0  501 -0.00000000000E+00  0.00000000000E+00  0.44985756315E+02  0.44985756598E+02  0.50400000000E-02 0.  1.
          1   -1    0    0  501    0  0.00000000000E+00 -0.00000000000E+00 -0.45205304596E+03  0.45205304599E+03  0.50400000000E-02 0. -1.
    9000005    2    1    2    0    0 -0.53824047861E+02  0.30918410664E+02 -0.42727351821E+03  0.43176041474E+03  0.11916915091E+01 0.  0.
         22    1    1    2    0    0  0.53824047861E+02 -0.30918410664E+02  0.20206228568E+02  0.65278387841E+02  0.00000000000E+00 0.  1.
         22    1    3    3    0    0 -0.11578665346E+02  0.63579568704E+01 -0.93849948483E+02  0.94775006922E+02  0.00000000000E+00 0. -1.
         22    1    3    3    0    0 -0.42245382515E+02  0.24560453794E+02 -0.33342356973E+03  0.33698540782E+03  0.00000000000E+00 0. -1.
<mgrwt>
<rscale>  0 0.28520833E+03</rscale>
<asrwt>0</asrwt>
<pdfrwt beam="2">  1        1 0.69546619E-01 0.28520833E+03</pdfrwt>
<pdfrwt beam="1">  1       -1 0.69208859E-02 0.28520833E+03</pdfrwt>
<totfact> 0.55317050E+03</totfact>
</mgrwt>
</event>
<event>
 7    1  0.2787125E-009  0.9061772E+02  0.7818608E-02  0.1301363E+00
          1   -1    0    0  501    0  0.00000000000E+00  0.00000000000E+00  0.60850621203E+02  0.60850621412E+02  0.50400000000E-02 0. -1.
         -1   -1    0    0    0  501 -0.00000000000E+00 -0.00000000000E+00 -0.33736593861E+02  0.33736594237E+02  0.50400000000E-02 0.  1.
         23    2    1    2    0    0  0.00000000000E+00  0.00000000000E+00  0.27114027342E+02  0.94587215649E+02  0.90617718386E+02 0.  0.
    9000005    2    3    3    0    0  0.21855686577E+02 -0.18112806559E+02 -0.21788298197E+02  0.38043584351E+02  0.12916639454E+02 0.  0.
         22    1    3    3    0    0 -0.21855686577E+02  0.18112806559E+02  0.48902325539E+02  0.56543631298E+02  0.00000000000E+00 0. -1.
         22    1    4    4    0    0  0.16007949924E+02 -0.74741054814E+01 -0.18245772420E+02  0.25397340899E+02  0.00000000000E+00 0. -1.
         22    1    4    4    0    0  0.58477366530E+01 -0.10638701078E+02 -0.35425257769E+01  0.12646243453E+02  0.00000000000E+00 0. -1.
<mgrwt>
<rscale>  0 0.90617718E+02</rscale>
<asrwt>0</asrwt>
<pdfrwt beam="1">  1        1 0.93616340E-02 0.90617718E+02</pdfrwt>
<pdfrwt beam="2">  1       -1 0.51902453E-02 0.90617718E+02</pdfrwt>
<totfact> 0.98236368E+04</totfact>
</mgrwt>
</event>
<event>
 7    1  0.2787125E-009  0.9192318E+02  0.7818608E-02  0.1298260E+00
         -1   -1    0    0    0  501 -0.00000000000E+00  0.00000000000E+00  0.14301300452E+02  0.14301301340E+02  0.50400000000E-02 0.  1.
          1   -1    0    0  501    0  0.00000000000E+00 -0.00000000000E+00 -0.14771159378E+03  0.14771159387E+03  0.50400000000E-02 0. -1.
         23    2    1    2    0    0  0.71054273576E-14 -0.35527136788E-14 -0.13341029333E+03  0.16201289521E+03  0.91923184491E+02 0.  0.
    9000005    2    3    3    0    0 -0.37801607979E+02  0.23565757138E+02 -0.48791236214E+02  0.66385015891E+02  0.64868427040E+01 0.  0.
         22    1    3    3    0    0  0.37801607979E+02 -0.23565757138E+02 -0.84619057115E+02  0.95627879315E+02  0.00000000000E+00 0. -1.
         22    1    4    4    0    0 -0.32663603853E+02  0.21387620439E+02 -0.45295733781E+02  0.59800040330E+02  0.00000000000E+00 0.  1.
         22    1    4    4    0    0 -0.51380041260E+01  0.21781366991E+01 -0.34955024326E+01  0.65849755607E+01  0.00000000000E+00 0.  1.
<mgrwt>
<rscale>  0 0.91923184E+02</rscale>
<asrwt>0</asrwt>
<pdfrwt beam="2">  1        1 0.22724860E-01 0.91923184E+02</pdfrwt>
<pdfrwt beam="1">  1       -1 0.22002002E-02 0.91923184E+02</pdfrwt>
<totfact> 0.10938031E+05</totfact>
</mgrwt>
</event>
<event>
 7    1  0.2787125E-009  0.1014177E+03  0.7818608E-02  0.1277343E+00
         -1   -1    0    0    0  501 -0.00000000000E+00  0.00000000000E+00  0.19585223087E+03  0.19585223093E+03  0.50400000000E-02 0.  1.
          1   -1    0    0  501    0  0.00000000000E+00 -0.00000000000E+00 -0.13129233187E+02  0.13129234154E+02  0.50400000000E-02 0. -1.
         23    2    1    2    0    0  0.00000000000E+00  0.35527136788E-14  0.18272299768E+03  0.20898146509E+03  0.10141774435E+03 0.  0.
    9000005    2    3    3    0    0 -0.40125916913E+02  0.29306702195E+02  0.10537288105E+03  0.11704663739E+03  0.11291557064E+02 0.  0.
         22    1    3    3    0    0  0.40125916913E+02 -0.29306702195E+02  0.77350116629E+02  0.91934827700E+02  0.00000000000E+00 0.  1.
         22    1    4    4    0    0 -0.14264429948E+02  0.60130302277E+01  0.41721522594E+02  0.44500740914E+02  0.00000000000E+00 0. -1.
         22    1    4    4    0    0 -0.25861486964E+02  0.23293671967E+02  0.63651358459E+02  0.72545896475E+02  0.00000000000E+00 0. -1.
<mgrwt>
<rscale>  0 0.10141774E+03</rscale>
<asrwt>0</asrwt>
<pdfrwt beam="2">  1        1 0.20198820E-02 0.10141774E+03</pdfrwt>
<pdfrwt beam="1">  1       -1 0.30131114E-01 0.10141774E+03</pdfrwt>
<totfact> 0.52876887E+04</totfact>
</mgrwt>
</event>
<event>
 7    1  0.2787125E-009  0.9123393E+02  0.7818608E-02  0.1299891E+00
         -1   -1    0    0    0  501 -0.00000000000E+00  0.00000000000E+00  0.68079128614E+01  0.68079147270E+01  0.50400000000E-02 0.  1.
          1   -1    0    0  501    0  0.00000000000E+00 -0.00000000000E+00 -0.30566007104E+03  0.30566007108E+03  0.50400000000E-02 0. -1.
         23    2    1    2    0    0  0.00000000000E+00  0.00000000000E+00 -0.29885215818E+03  0.31246798581E+03  0.91233928487E+02 0.  0.
    9000005    2    3    3    0    0 -0.33492777451E+02  0.92461341035E+01 -0.24908512526E+03  0.25177190107E+03  0.11765772595E+02 0.  0.
         22    1    3    3    0    0  0.33492777451E+02 -0.92461341035E+01 -0.49767032919E+02  0.60696084740E+02  0.00000000000E+00 0. -1.
         22    1    4    4    0    0 -0.42916912028E+01 -0.22855898860E+01 -0.22301817485E+02  0.22825722281E+02  0.00000000000E+00 0. -1.
         22    1    4    4    0    0 -0.29201086248E+02  0.11531723990E+02 -0.22678330777E+03  0.22894617879E+03  0.00000000000E+00 0. -1.
<mgrwt>
<rscale>  0 0.91233928E+02</rscale>
<asrwt>0</asrwt>
<pdfrwt beam="2">  1        1 0.47024616E-01 0.91233928E+02</pdfrwt>
<pdfrwt beam="1">  1       -1 0.10473716E-02 0.91233928E+02</pdfrwt>
<totfact> 0.12836358E+05</totfact>
</mgrwt>
</event>
<event>
 6    1  0.3016212E-009  0.1293072E+03  0.7818608E-02  0.1228487E+00
         -1   -1    0    0    0  501 -0.00000000000E+00  0.00000000000E+00  0.34609009485E+02  0.34609009852E+02  0.50400000000E-02 0.  1.
          1   -1    0    0  501    0  0.00000000000E+00 -0.00000000000E+00 -0.12078031999E+03  0.12078032009E+03  0.50400000000E-02 0. -1.
    9000005    2    1    2    0    0 -0.42017572549E+02 -0.47818737927E+02 -0.39845844665E+02  0.76660955868E+02  0.15398140073E+02 0.  0.
         22    1    1    2    0    0  0.42017572549E+02  0.47818737927E+02 -0.46325465837E+02  0.78728374077E+02  0.00000000000E+00 0. -1.
         22    1    3    3    0    0 -0.18245499216E+02 -0.22720477121E+02 -0.27169101945E+02  0.39840662931E+02  0.00000000000E+00 0.  1.
         22    1    3    3    0    0 -0.23772073332E+02 -0.25098260806E+02 -0.12676742720E+02  0.36820292937E+02  0.00000000000E+00 0.  1.
<mgrwt>
<rscale>  0 0.12930719E+03</rscale>
<asrwt>0</asrwt>
<pdfrwt beam="2">  1        1 0.18581588E-01 0.12930719E+03</pdfrwt>
<pdfrwt beam="1">  1       -1 0.53244631E-02 0.12930719E+03</pdfrwt>
<totfact> 0.40895737E+04</totfact>
</mgrwt>
</event>
<event>
 7    1  0.2787125E-009  0.9270936E+02  0.7818608E-02  0.1296420E+00
         -1   -1    0    0    0  501 -0.00000000000E+00  0.00000000000E+00  0.23346993253E+02  0.23346993797E+02  0.50400000000E-02 0.  1.
          1   -1    0    0  501    0  0.00000000000E+00 -0.00000000000E+00 -0.92035667030E+02  0.92035667168E+02  0.50400000000E-02 0. -1.
         23    2    1    2    0    0 -0.17763568394E-14  0.00000000000E+00 -0.68688673777E+02  0.11538266096E+03  0.92709355223E+02 0.  0.
    9000005    2    3    3    0    0  0.15187286770E+02  0.37946316120E+02 -0.11228629443E+02  0.44868596542E+02  0.14715034827E+02 0.  0.
         22    1    3    3    0    0 -0.15187286770E+02 -0.37946316120E+02 -0.57460044334E+02  0.70514064423E+02  0.00000000000E+00 0. -1.
         22    1    4    4    0    0 -0.36305717361E+00  0.69090039842E+01  0.27498638788E+01  0.74449914652E+01  0.00000000000E+00 0.  1.
         22    1    4    4    0    0  0.15550343943E+02  0.31037312136E+02 -0.13978493322E+02  0.37423605077E+02  0.00000000000E+00 0.  1.
<mgrwt>
<rscale>  0 0.92709355E+02</rscale>
<asrwt>0</asrwt>
<pdfrwt beam="2">  1        1 0.14159333E-01 0.92709355E+02</pdfrwt>
<pdfrwt beam="1">  1       -1 0.35918452E-02 0.92709355E+02</pdfrwt>
<totfact> 0.98437331E+04</totfact>
</mgrwt>
</event>
<event>
 7    1  0.2787125E-009  0.8972721E+02  0.7818608E-02  0.1303514E+00
         -1   -1    0    0    0  501 -0.00000000000E+00  0.00000000000E+00  0.51964646585E+01  0.51964671026E+01  0.50400000000E-02 0.  1.
          1   -1    0    0  501    0  0.00000000000E+00 -0.00000000000E+00 -0.38732918284E+03  0.38732918287E+03  0.50400000000E-02 0. -1.
         23    2    1    2    0    0  0.00000000000E+00  0.00000000000E+00 -0.38213271818E+03  0.39252564998E+03  0.89727206486E+02 0.  0.
    9000005    2    3    3    0    0 -0.17715308066E+02 -0.37671594496E+02 -0.13146171119E+03  0.13842146875E+03  0.12055717701E+02 0.  0.
         22    1    3    3    0    0  0.17715308066E+02  0.37671594496E+02 -0.25067100699E+03  0.25410418123E+03  0.00000000000E+00 0.  1.
         22    1    4    4    0    0 -0.13582102829E+02 -0.31489709091E+02 -0.90286990913E+02  0.96580619299E+02  0.00000000000E+00 0.  1.
         22    1    4    4    0    0 -0.41332052375E+01 -0.61818854044E+01 -0.41174720277E+02  0.41840849449E+02  0.00000000000E+00 0.  1.
<mgrwt>
<rscale>  0 0.89727206E+02</rscale>
<asrwt>0</asrwt>
<pdfrwt beam="2">  1        1 0.59589082E-01 0.89727206E+02</pdfrwt>
<pdfrwt beam="1">  1       -1 0.79945660E-03 0.89727206E+02</pdfrwt>
<totfact> 0.14000009E+05</totfact>
</mgrwt>
</event>
<event>
 7    1  0.2787125E-009  0.8834630E+02  0.7818608E-02  0.1306907E+00
         -1   -1    0    0    0  501 -0.00000000000E+00  0.00000000000E+00  0.12918857999E+03  0.12918858008E+03  0.50400000000E-02 0.  1.
          1   -1    0    0  501    0  0.00000000000E+00 -0.00000000000E+00 -0.15104020345E+02  0.15104021186E+02  0.50400000000E-02 0. -1.
         23    2    1    2    0    0  0.00000000000E+00  0.22204460493E-15  0.11408455964E+03  0.14429260127E+03  0.88346296090E+02 0.  0.
    9000005    2    3    3    0    0  0.36656948044E+02  0.92398614538E+00  0.95477839942E+02  0.10317331616E+03  0.13569438326E+02 0.  0.
         22    1    3    3    0    0 -0.36656948044E+02 -0.92398614538E+00  0.18606719699E+02  0.41119285113E+02  0.00000000000E+00 0. -1.
         22    1    4    4    0    0  0.23120043027E+02 -0.14021237009E+01  0.42040988719E+02  0.47999448673E+02  0.00000000000E+00 0.  1.
         22    1    4    4    0    0  0.13536905016E+02  0.23261098462E+01  0.53436851224E+02  0.55173867484E+02  0.00000000000E+00 0.  1.
<mgrwt>
<rscale>  0 0.88346296E+02</rscale>
<asrwt>0</asrwt>
<pdfrwt beam="2">  1        1 0.23236956E-02 0.88346296E+02</pdfrwt>
<pdfrwt beam="1">  1       -1 0.19875166E-01 0.88346296E+02</pdfrwt>
<totfact> 0.83896212E+04</totfact>
</mgrwt>
</event>
<event>
 7    1  0.2787125E-009  0.9056548E+02  0.7818608E-02  0.1301488E+00
          1   -1    0    0  501    0  0.00000000000E+00  0.00000000000E+00  0.78719557935E+02  0.78719558097E+02  0.50400000000E-02 0. -1.
         -1   -1    0    0    0  501 -0.00000000000E+00 -0.00000000000E+00 -0.26048498495E+02  0.26048498983E+02  0.50400000000E-02 0.  1.
         23    2    1    2    0    0  0.00000000000E+00  0.00000000000E+00  0.52671059440E+02  0.10476805708E+03  0.90565475109E+02 0.  0.
    9000005    2    3    3    0    0 -0.23341453107E+02 -0.36220520620E+02  0.16027564645E+02  0.48203976092E+02  0.14491063989E+02 0.  0.
         22    1    3    3    0    0  0.23341453107E+02  0.36220520620E+02  0.36643494795E+02  0.56564080987E+02  0.00000000000E+00 0.  1.
         22    1    4    4    0    0 -0.12375789426E+01  0.13510792514E+01  0.27010255724E+00  0.18520184055E+01  0.00000000000E+00 0. -1.
         22    1    4    4    0    0 -0.22103874164E+02 -0.37571599871E+02  0.15757462088E+02  0.46351957687E+02  0.00000000000E+00 0. -1.
<mgrwt>
<rscale>  0 0.90565475E+02</rscale>
<asrwt>0</asrwt>
<pdfrwt beam="1">  1        1 0.12110701E-01 0.90565475E+02</pdfrwt>
<pdfrwt beam="2">  1       -1 0.40074614E-02 0.90565475E+02</pdfrwt>
<totfact> 0.10236036E+05</totfact>
</mgrwt>
</event>
<event>
 7    1  0.2787125E-009  0.9065618E+02  0.7818608E-02  0.1301270E+00
          1   -1    0    0  501    0  0.00000000000E+00  0.00000000000E+00  0.43856608517E+03  0.43856608520E+03  0.50400000000E-02 0. -1.
         -1   -1    0    0    0  501 -0.00000000000E+00 -0.00000000000E+00 -0.46848928456E+01  0.46848955566E+01  0.50400000000E-02 0.  1.
         23    2    1    2    0    0  0.22204460493E-15  0.00000000000E+00  0.43388119232E+03  0.44325098075E+03  0.90656179535E+02 0.  0.
    9000005    2    3    3    0    0 -0.13141361553E+01  0.20507047318E+02  0.41445207904E+03  0.41497101635E+03  0.28552842918E+01 0.  0.
         22    1    3    3    0    0  0.13141361553E+01 -0.20507047318E+02  0.19429113279E+02  0.28279964398E+02  0.00000000000E+00 0.  1.
         22    1    4    4    0    0 -0.23934884801E+00  0.18130087837E+02  0.35886425897E+03  0.35932201956E+03  0.00000000000E+00 0. -1.
         22    1    4    4    0    0 -0.10747873073E+01  0.23769594813E+01  0.55587820073E+02  0.55648996798E+02  0.00000000000E+00 0. -1.
<mgrwt>
<rscale>  0 0.90656180E+02</rscale>
<asrwt>0</asrwt>
<pdfrwt beam="1">  1        1 0.67471720E-01 0.90656180E+02</pdfrwt>
<pdfrwt beam="2">  1       -1 0.72075280E-03 0.90656180E+02</pdfrwt>
<totfact> 0.13893840E+05</totfact>
</mgrwt>
</event>
<event>
 7    1  0.2787125E-009  0.9127301E+02  0.7818608E-02  0.1299798E+00
         -1   -1    0    0    0  501 -0.00000000000E+00  0.00000000000E+00  0.29733216983E+02  0.29733217410E+02  0.50400000000E-02 0.  1.
          1   -1    0    0  501    0  0.00000000000E+00 -0.00000000000E+00 -0.70045922465E+02  0.70045922647E+02  0.50400000000E-02 0. -1.
         23    2    1    2    0    0  0.17763568394E-14  0.35527136788E-14 -0.40312705482E+02  0.99779140057E+02  0.91273011165E+02 0.  0.
    9000005    2    3    3    0    0  0.15718773955E+02  0.21943733064E+02 -0.59718530266E+02  0.66534692235E+02  0.11487172767E+02 0.  0.
         22    1    3    3    0    0 -0.15718773955E+02 -0.21943733064E+02  0.19405824784E+02  0.33244447822E+02  0.00000000000E+00 0.  1.
         22    1    4    4    0    0  0.96124957972E+01  0.20609927296E+02 -0.50647687368E+02  0.55518982469E+02  0.00000000000E+00 0. -1.
         22    1    4    4    0    0  0.61062781581E+01  0.13338057678E+01 -0.90708428978E+01  0.11015709766E+02  0.00000000000E+00 0. -1.
<mgrwt>
<rscale>  0 0.91273011E+02</rscale>
<asrwt>0</asrwt>
<pdfrwt beam="2">  1        1 0.10776296E-01 0.91273011E+02</pdfrwt>
<pdfrwt beam="1">  1       -1 0.45743411E-02 0.91273011E+02</pdfrwt>
<totfact> 0.98390172E+04</totfact>
</mgrwt>
</event>
<event>
 7    1  0.2787125E-009  0.9148265E+02  0.7818608E-02  0.1299300E+00
         -1   -1    0    0    0  501 -0.00000000000E+00  0.00000000000E+00  0.38117077917E+02  0.38117078251E+02  0.50400000000E-02 0.  1.
          1   -1    0    0  501    0  0.00000000000E+00 -0.00000000000E+00 -0.54890581971E+02  0.54890582202E+02  0.50400000000E-02 0. -1.
         23    2    1    2    0    0  0.35527136788E-14  0.00000000000E+00 -0.16773504053E+02  0.93007660452E+02  0.91482645702E+02 0.  0.
    9000005    2    3    3    0    0  0.19856892786E+02  0.24112481454E+02 -0.42215948249E+02  0.52720864604E+02  0.46470770413E+01 0.  0.
         22    1    3    3    0    0 -0.19856892786E+02 -0.24112481454E+02  0.25442444196E+02  0.40286795848E+02  0.00000000000E+00 0.  1.
         22    1    4    4    0    0  0.19252237177E+02  0.24232707622E+02 -0.41154224536E+02  0.51493135000E+02  0.00000000000E+00 0. -1.
         22    1    4    4    0    0  0.60465560874E+00 -0.12022616746E+00 -0.10617237139E+01  0.12277296043E+01  0.00000000000E+00 0. -1.
<mgrwt>
<rscale>  0 0.91482646E+02</rscale>
<asrwt>0</asrwt>
<pdfrwt beam="2">  1        1 0.84447050E-02 0.91482646E+02</pdfrwt>
<pdfrwt beam="1">  1       -1 0.58641658E-02 0.91482646E+02</pdfrwt>
<totfact> 0.94203412E+04</totfact>
</mgrwt>
</event>
<event>
 7    1  0.2795838E-009  0.9180279E+02  0.7818608E-02  0.1298544E+00
         -1   -1    0    0    0  501 -0.00000000000E+00  0.00000000000E+00  0.13590455719E+01  0.13590549173E+01  0.50400000000E-02 0.  1.
          1   -1    0    0  501    0  0.00000000000E+00 -0.00000000000E+00 -0.15503019262E+04  0.15503019262E+04  0.50400000000E-02 0. -1.
         23    2    1    2    0    0 -0.35527136788E-14  0.00000000000E+00 -0.15489428806E+04  0.15516609811E+04  0.91802793523E+02 0.  0.
    9000005    2    3    3    0    0 -0.17149740911E+02 -0.15514911410E+02 -0.14428642879E+04  0.14430907554E+04  0.10897191933E+02 0.  0.
         22    1    3    3    0    0  0.17149740911E+02  0.15514911410E+02 -0.10607859268E+03  0.10857022573E+03  0.00000000000E+00 0.  1.
         22    1    4    4    0    0 -0.28407866558E+01 -0.14850077402E+01 -0.51553384890E+03  0.51554381451E+03  0.00000000000E+00 0. -1.
         22    1    4    4    0    0 -0.14308954255E+02 -0.14029903670E+02 -0.92733043900E+03  0.92754694084E+03  0.00000000000E+00 0. -1.
<mgrwt>
<rscale>  0 0.91802794E+02</rscale>
<asrwt>0</asrwt>
<pdfrwt beam="2">  1        1 0.23850657E+00 0.91802794E+02</pdfrwt>
<pdfrwt beam="1">  1       -1 0.20908589E-03 0.91802794E+02</pdfrwt>
<totfact> 0.10552618E+05</totfact>
</mgrwt>
</event>
<event>
 7    1  0.2787125E-009  0.9248660E+02  0.7818608E-02  0.1296939E+00
         -1   -1    0    0    0  501 -0.00000000000E+00  0.00000000000E+00  0.82754557705E+01  0.82754573052E+01  0.50400000000E-02 0.  1.
          1   -1    0    0  501    0  0.00000000000E+00 -0.00000000000E+00 -0.25840784830E+03  0.25840784835E+03  0.50400000000E-02 0. -1.
         23    2    1    2    0    0  0.00000000000E+00  0.00000000000E+00 -0.25013239253E+03  0.26668330565E+03  0.92486602933E+02 0.  0.
    9000005    2    3    3    0    0 -0.11474090139E+02  0.12313116356E+02 -0.24898782530E+03  0.24981387730E+03  0.11347623606E+02 0.  0.
         22    1    3    3    0    0  0.11474090139E+02 -0.12313116356E+02 -0.11445672230E+01  0.16869428355E+02  0.00000000000E+00 0.  1.
         22    1    4    4    0    0  0.52722136883E+00  0.28183816111E+01 -0.12213789590E+02  0.12545831716E+02  0.00000000000E+00 0. -1.
         22    1    4    4    0    0 -0.12001311507E+02  0.94947347447E+01 -0.23677403571E+03  0.23726804558E+03  0.00000000000E+00 0. -1.
<mgrwt>
<rscale>  0 0.92486603E+02</rscale>
<asrwt>0</asrwt>
<pdfrwt beam="2">  1        1 0.39755048E-01 0.92486603E+02</pdfrwt>
<pdfrwt beam="1">  1       -1 0.12731474E-02 0.92486603E+02</pdfrwt>
<totfact> 0.11981218E+05</totfact>
</mgrwt>
</event>
<event>
 7    1  0.2787125E-009  0.9431517E+02  0.7818608E-02  0.1292726E+00
         -1   -1    0    0    0  501 -0.00000000000E+00  0.00000000000E+00  0.96013203629E+01  0.96013216857E+01  0.50400000000E-02 0.  1.
          1   -1    0    0  501    0  0.00000000000E+00 -0.00000000000E+00 -0.23161789083E+03  0.23161789089E+03  0.50400000000E-02 0. -1.
         23    2    1    2    0    0  0.00000000000E+00  0.00000000000E+00 -0.22201657047E+03  0.24121921257E+03  0.94315168193E+02 0.  0.
    9000005    2    3    3    0    0  0.13549578998E+02  0.11503972663E+02 -0.22238980647E+03  0.22344080479E+03  0.12354543531E+02 0.  0.
         22    1    3    3    0    0 -0.13549578998E+02 -0.11503972663E+02  0.37323600341E+00  0.17778407779E+02  0.00000000000E+00 0.  1.
         22    1    4    4    0    0  0.77551527166E+01  0.60842353867E+01 -0.55924489877E+02  0.56786520248E+02  0.00000000000E+00 0.  1.
         22    1    4    4    0    0  0.57944262814E+01  0.54197372759E+01 -0.16646531660E+03  0.16665428455E+03  0.00000000000E+00 0.  1.
<mgrwt>
<rscale>  0 0.94315168E+02</rscale>
<asrwt>0</asrwt>
<pdfrwt beam="2">  1        1 0.35633518E-01 0.94315168E+02</pdfrwt>
<pdfrwt beam="1">  1       -1 0.14771265E-02 0.94315168E+02</pdfrwt>
<totfact> 0.11127120E+05</totfact>
</mgrwt>
</event>
<event>
 6    1  0.2787125E-009  0.2772135E+03  0.7818608E-02  0.1097221E+00
          1   -1    0    0  501    0  0.00000000000E+00  0.00000000000E+00  0.12026903193E+04  0.12026903194E+04  0.50400000000E-02 0. -1.
         -1   -1    0    0    0  501 -0.00000000000E+00 -0.00000000000E+00 -0.15974046729E+02  0.15974047525E+02  0.50400000000E-02 0.  1.
    9000005    2    1    2    0    0 -0.21317622381E+02 -0.52077533776E+02  0.11501466160E+04  0.11515536350E+04  0.84867785117E+01 0.  0.
         22    1    1    2    0    0  0.21317622381E+02  0.52077533776E+02  0.36569656583E+02  0.67110731859E+02  0.00000000000E+00 0.  1.
         22    1    3    3    0    0 -0.20589606155E+02 -0.50850827569E+02  0.11383300027E+04  0.11396512333E+04  0.00000000000E+00 0.  1.
         22    1    3    3    0    0 -0.72801622558E+00 -0.12267062065E+01  0.11816613337E+02  0.11902401712E+02  0.00000000000E+00 0.  1.
<mgrwt>
<rscale>  0 0.27721351E+03</rscale>
<asrwt>0</asrwt>
<pdfrwt beam="1">  1        1 0.18502928E+00 0.27721351E+03</pdfrwt>
<pdfrwt beam="2">  1       -1 0.24575458E-02 0.27721351E+03</pdfrwt>
<totfact> 0.57743863E+03</totfact>
</mgrwt>
</event>
<event>
 7    1  0.2787125E-009  0.9155977E+02  0.7818608E-02  0.1299118E+00
          1   -1    0    0  501    0  0.00000000000E+00  0.00000000000E+00  0.12708511287E+03  0.12708511297E+03  0.50400000000E-02 0. -1.
         -1   -1    0    0    0  501 -0.00000000000E+00 -0.00000000000E+00 -0.16491293146E+02  0.16491293916E+02  0.50400000000E-02 0.  1.
         23    2    1    2    0    0 -0.35527136788E-14 -0.17763568394E-14  0.11059381972E+03  0.14357640688E+03  0.91559770931E+02 0.  0.
    9000005    2    3    3    0    0  0.18419813525E+02  0.91897323302E+01  0.11897367955E+03  0.12135113385E+03  0.12149919777E+02 0.  0.
         22    1    3    3    0    0 -0.18419813525E+02 -0.91897323302E+01 -0.83798598288E+01  0.22225273032E+02  0.00000000000E+00 0.  1.
         22    1    4    4    0    0  0.20037792828E+02  0.87245764909E+01  0.10325356041E+03  0.10554112523E+03  0.00000000000E+00 0.  1.
         22    1    4    4    0    0 -0.16179793028E+01  0.46515583935E+00  0.15720119136E+02  0.15810008622E+02  0.00000000000E+00 0.  1.
<mgrwt>
<rscale>  0 0.91559771E+02</rscale>
<asrwt>0</asrwt>
<pdfrwt beam="1">  1        1 0.19551556E-01 0.91559771E+02</pdfrwt>
<pdfrwt beam="2">  1       -1 0.25371221E-02 0.91559771E+02</pdfrwt>
<totfact> 0.10759886E+05</totfact>
</mgrwt>
</event>
<event>
 7    1  0.2787125E-009  0.8951964E+02  0.7818608E-02  0.1304019E+00
          1   -1    0    0  501    0  0.00000000000E+00  0.00000000000E+00  0.34500527576E+03  0.34500527580E+03  0.50400000000E-02 0. -1.
         -1   -1    0    0    0  501 -0.00000000000E+00 -0.00000000000E+00 -0.58069867985E+01  0.58069889857E+01  0.50400000000E-02 0.  1.
         23    2    1    2    0    0  0.35527136788E-14  0.00000000000E+00  0.33919828896E+03  0.35081226479E+03  0.89519639675E+02 0.  0.
    9000005    2    3    3    0    0 -0.18047234980E+02 -0.81305662490E+01  0.32638363673E+03  0.32723210130E+03  0.12757781951E+02 0.  0.
         22    1    3    3    0    0  0.18047234980E+02  0.81305662490E+01  0.12814652235E+02  0.23580163483E+02  0.00000000000E+00 0.  1.
         22    1    4    4    0    0 -0.44999572083E+00 -0.51360099803E+01  0.47817717389E+02  0.48094856180E+02  0.00000000000E+00 0.  1.
         22    1    4    4    0    0 -0.17597239260E+02 -0.29945562687E+01  0.27856591934E+03  0.27913724512E+03  0.00000000000E+00 0.  1.
<mgrwt>
<rscale>  0 0.89519640E+02</rscale>
<asrwt>0</asrwt>
<pdfrwt beam="1">  1        1 0.53077749E-01 0.89519640E+02</pdfrwt>
<pdfrwt beam="2">  1       -1 0.89338252E-03 0.89519640E+02</pdfrwt>
<totfact> 0.13805775E+05</totfact>
</mgrwt>
</event>
<event>
 7    1  0.2787125E-009  0.9007626E+02  0.7818608E-02  0.1302667E+00
          1   -1    0    0  501    0  0.00000000000E+00  0.00000000000E+00  0.62709939178E+02  0.62709939380E+02  0.50400000000E-02 0. -1.
         -1   -1    0    0    0  501 -0.00000000000E+00 -0.00000000000E+00 -0.32346278133E+02  0.32346278525E+02  0.50400000000E-02 0.  1.
         23    2    1    2    0    0  0.00000000000E+00  0.00000000000E+00  0.30363661045E+02  0.95056217906E+02  0.90076260194E+02 0.  0.
    9000005    2    3    3    0    0  0.19410698566E+02  0.16807998308E+02 -0.22958306785E+02  0.35874157455E+02  0.10029321846E+02 0.  0.
         22    1    3    3    0    0 -0.19410698566E+02 -0.16807998308E+02  0.53321967830E+02  0.59182060451E+02  0.00000000000E+00 0. -1.
         22    1    4    4    0    0  0.89688771535E+01  0.12935689385E+02 -0.17275750328E+02  0.23371443402E+02  0.00000000000E+00 0.  1.
         22    1    4    4    0    0  0.10441821413E+02  0.38723089224E+01 -0.56825564570E+01  0.12502714053E+02  0.00000000000E+00 0.  1.
<mgrwt>
<rscale>  0 0.90076260E+02</rscale>
<asrwt>0</asrwt>
<pdfrwt beam="1">  1        1 0.96476830E-02 0.90076260E+02</pdfrwt>
<pdfrwt beam="2">  1       -1 0.49763505E-02 0.90076260E+02</pdfrwt>
<totfact> 0.10033175E+05</totfact>
</mgrwt>
</event>
<event>
 7    1  0.2787125E-009  0.9159522E+02  0.7818608E-02  0.1299034E+00
         -1   -1    0    0    0  501 -0.00000000000E+00  0.00000000000E+00  0.85767019850E+02  0.85767019998E+02  0.50400000000E-02 0.  1.
          1   -1    0    0  501    0  0.00000000000E+00 -0.00000000000E+00 -0.24454864166E+02  0.24454864686E+02  0.50400000000E-02 0. -1.
         23    2    1    2    0    0  0.35527136788E-14  0.00000000000E+00  0.61312155684E+02  0.11022188468E+03  0.91595215097E+02 0.  0.
    9000005    2    3    3    0    0 -0.17726353837E+02  0.28364598305E+02  0.68219335260E+02  0.76068068103E+02  0.37012463251E+01 0.  0.
         22    1    3    3    0    0  0.17726353837E+02 -0.28364598305E+02 -0.69071795757E+01  0.34153816581E+02  0.00000000000E+00 0. -1.
         22    1    4    4    0    0 -0.68740711874E+01  0.12588027624E+02  0.32938495065E+02  0.35925697645E+02  0.00000000000E+00 0.  1.
         22    1    4    4    0    0 -0.10852282649E+02  0.15776570681E+02  0.35280840194E+02  0.40142370458E+02  0.00000000000E+00 0.  1.
<mgrwt>
<rscale>  0 0.91595215E+02</rscale>
<asrwt>0</asrwt>
<pdfrwt beam="2">  1        1 0.37622869E-02 0.91595215E+02</pdfrwt>
<pdfrwt beam="1">  1       -1 0.13194926E-01 0.91595215E+02</pdfrwt>
<totfact> 0.82669162E+04</totfact>
</mgrwt>
</event>
<event>
 7    1  0.2787125E-009  0.9048726E+02  0.7818608E-02  0.1301676E+00
         -1   -1    0    0    0  501 -0.00000000000E+00  0.00000000000E+00  0.94994570943E+01  0.94994584313E+01  0.50400000000E-02 0.  1.
          1   -1    0    0  501    0  0.00000000000E+00 -0.00000000000E+00 -0.21548449356E+03  0.21548449361E+03  0.50400000000E-02 0. -1.
         23    2    1    2    0    0  0.00000000000E+00  0.00000000000E+00 -0.20598503646E+03  0.22498395205E+03  0.90487255634E+02 0.  0.
    9000005    2    3    3    0    0 -0.33283596418E+02 -0.19991992455E+02 -0.52294095336E+02  0.66464606423E+02  0.13243637985E+02 0.  0.
         22    1    3    3    0    0  0.33283596418E+02  0.19991992455E+02 -0.15369094113E+03  0.15851934562E+03  0.00000000000E+00 0. -1.
         22    1    4    4    0    0 -0.49033835986E+01 -0.93848410505E+01 -0.16002896488E+02  0.19188827694E+02  0.00000000000E+00 0.  1.
         22    1    4    4    0    0 -0.28380212819E+02 -0.10607151405E+02 -0.36291198848E+02  0.47275778729E+02  0.00000000000E+00 0.  1.
<mgrwt>
<rscale>  0 0.90487256E+02</rscale>
<asrwt>0</asrwt>
<pdfrwt beam="2">  1        1 0.33151457E-01 0.90487256E+02</pdfrwt>
<pdfrwt beam="1">  1       -1 0.14614552E-02 0.90487256E+02</pdfrwt>
<totfact> 0.12260186E+05</totfact>
</mgrwt>
</event>
<event>
 7    1  0.2787125E-009  0.8850161E+02  0.7818608E-02  0.1306521E+00
         -1   -1    0    0    0  501 -0.00000000000E+00  0.00000000000E+00  0.26102513667E+01  0.26102562325E+01  0.50400000000E-02 0.  1.
          1   -1    0    0  501    0  0.00000000000E+00 -0.00000000000E+00 -0.75016979270E+03  0.75016979272E+03  0.50400000000E-02 0. -1.
         23    2    1    2    0    0  0.35527136788E-14 -0.17763568394E-14 -0.74755954133E+03  0.75278004895E+03  0.88501605962E+02 0.  0.
    9000005    2    3    3    0    0 -0.30579311437E+02  0.14994821249E+02 -0.61101358006E+03  0.61205073966E+03  0.10419882529E+02 0.  0.
         22    1    3    3    0    0  0.30579311437E+02 -0.14994821249E+02 -0.13654596128E+03  0.14072930929E+03  0.00000000000E+00 0.  1.
         22    1    4    4    0    0 -0.27630729939E+02  0.12487523834E+02 -0.58069632529E+03  0.58148741835E+03  0.00000000000E+00 0. -1.
         22    1    4    4    0    0 -0.29485814974E+01  0.25072974154E+01 -0.30317254764E+02  0.30563321312E+02  0.00000000000E+00 0. -1.
<mgrwt>
<rscale>  0 0.88501606E+02</rscale>
<asrwt>0</asrwt>
<pdfrwt beam="2">  1        1 0.11541057E+00 0.88501606E+02</pdfrwt>
<pdfrwt beam="1">  1       -1 0.40157811E-03 0.88501606E+02</pdfrwt>
<totfact> 0.15351303E+05</totfact>
</mgrwt>
</event>
<event>
 7    1  0.2787125E-009  0.9157172E+02  0.7818608E-02  0.1299090E+00
         -1   -1    0    0    0  501 -0.00000000000E+00  0.00000000000E+00  0.52272938769E+01  0.52272963066E+01  0.50400000000E-02 0.  1.
          1   -1    0    0  501    0  0.00000000000E+00 -0.00000000000E+00 -0.40103817398E+03  0.40103817401E+03  0.50400000000E-02 0. -1.
         23    2    1    2    0    0  0.00000000000E+00  0.00000000000E+00 -0.39581088010E+03  0.40626547032E+03  0.91571718150E+02 0.  0.
    9000005    2    3    3    0    0  0.41143935254E+02  0.13656004242E+02 -0.15043432993E+03  0.15708890393E+03  0.12927732119E+02 0.  0.
         22    1    3    3    0    0 -0.41143935254E+02 -0.13656004242E+02 -0.24537655018E+03  0.24917656639E+03  0.00000000000E+00 0. -1.
         22    1    4    4    0    0  0.34413991386E+02  0.81590549446E+01 -0.13281217683E+03  0.13744077741E+03  0.00000000000E+00 0.  1.
         22    1    4    4    0    0  0.67299438676E+01  0.54969492977E+01 -0.17622153102E+02  0.19648126526E+02  0.00000000000E+00 0.  1.
<mgrwt>
<rscale>  0 0.91571718E+02</rscale>
<asrwt>0</asrwt>
<pdfrwt beam="2">  1        1 0.61698157E-01 0.91571718E+02</pdfrwt>
<pdfrwt beam="1">  1       -1 0.80419956E-03 0.91571718E+02</pdfrwt>
<totfact> 0.13340796E+05</totfact>
</mgrwt>
</event>
<event>
 7    1  0.2787125E-009  0.1037863E+03  0.7818608E-02  0.1272530E+00
         -1   -1    0    0    0  501 -0.00000000000E+00  0.00000000000E+00  0.15369934302E+02  0.15369935128E+02  0.50400000000E-02 0.  1.
          1   -1    0    0  501    0  0.00000000000E+00 -0.00000000000E+00 -0.17520556697E+03  0.17520556704E+03  0.50400000000E-02 0. -1.
         23    2    1    2    0    0  0.00000000000E+00  0.00000000000E+00 -0.15983563267E+03  0.19057550217E+03  0.10378628309E+03 0.  0.
    9000005    2    3    3    0    0 -0.39973417655E+02 -0.15411129431E+02 -0.27763239014E+02  0.51728484936E+02  0.83463575194E+01 0.  0.
         22    1    3    3    0    0  0.39973417655E+02  0.15411129431E+02 -0.13207239365E+03  0.13884701723E+03  0.00000000000E+00 0. -1.
         22    1    4    4    0    0 -0.17866949473E+02 -0.56439676868E+01 -0.74732456554E+01  0.20172547071E+02  0.00000000000E+00 0.  1.
         22    1    4    4    0    0 -0.22106468183E+02 -0.97671617440E+01 -0.20289993358E+02  0.31555937865E+02  0.00000000000E+00 0.  1.
<mgrwt>
<rscale>  0 0.10378628E+03</rscale>
<asrwt>0</asrwt>
<pdfrwt beam="2">  1        1 0.26954701E-01 0.10378628E+03</pdfrwt>
<pdfrwt beam="1">  1       -1 0.23646055E-02 0.10378628E+03</pdfrwt>
<totfact> 0.81257916E+04</totfact>
</mgrwt>
</event>
<event>
 7    1  0.2787125E-009  0.9157506E+02  0.7818608E-02  0.1299082E+00
         -1   -1    0    0    0  501 -0.00000000000E+00  0.00000000000E+00  0.37878517672E+02  0.37878518007E+02  0.50400000000E-02 0.  1.
          1   -1    0    0  501    0  0.00000000000E+00 -0.00000000000E+00 -0.55347935629E+02  0.55347935859E+02  0.50400000000E-02 0. -1.
         23    2    1    2    0    0  0.00000000000E+00  0.00000000000E+00 -0.17469417958E+02  0.93226453866E+02  0.91575057393E+02 0.  0.
    9000005    2    3    3    0    0  0.19838066829E+02 -0.34058067499E+02  0.14183688350E+02  0.42675291701E+02  0.81549156485E+01 0.  0.
         22    1    3    3    0    0 -0.19838066829E+02  0.34058067499E+02 -0.31653106308E+02  0.50551162165E+02  0.00000000000E+00 0. -1.
         22    1    4    4    0    0  0.72678681948E+01 -0.76554340238E+01  0.10147439150E+01  0.10604587847E+02  0.00000000000E+00 0.  1.
         22    1    4    4    0    0  0.12570198634E+02 -0.26402633476E+02  0.13168944435E+02  0.32070703854E+02  0.00000000000E+00 0.  1.
<mgrwt>
<rscale>  0 0.91575057E+02</rscale>
<asrwt>0</asrwt>
<pdfrwt beam="2">  1        1 0.85150671E-02 0.91575057E+02</pdfrwt>
<pdfrwt beam="1">  1       -1 0.58274643E-02 0.91575057E+02</pdfrwt>
<totfact> 0.94056241E+04</totfact>
</mgrwt>
</event>
<event>
 7    1  0.2787125E-009  0.8781117E+02  0.7818608E-02  0.1308241E+00
         -1   -1    0    0    0  501 -0.00000000000E+00  0.00000000000E+00  0.24595552896E+02  0.24595553413E+02  0.50400000000E-02 0.  1.
          1   -1    0    0  501    0  0.00000000000E+00 -0.00000000000E+00 -0.78375967279E+02  0.78375967441E+02  0.50400000000E-02 0. -1.
         23    2    1    2    0    0 -0.71054273576E-14 -0.35527136788E-14 -0.53780414382E+02  0.10297152085E+03  0.87811167489E+02 0.  0.
    9000005    2    3    3    0    0 -0.34355092897E+02 -0.22124351854E+02 -0.89812014141E+01  0.42335485071E+02  0.64708550031E+01 0.  0.
         22    1    3    3    0    0  0.34355092897E+02  0.22124351854E+02 -0.44799212968E+02  0.60636035783E+02  0.00000000000E+00 0. -1.
         22    1    4    4    0    0 -0.46519337484E+01 -0.54475499180E+01 -0.29204480893E+01  0.77359747124E+01  0.00000000000E+00 0. -1.
         22    1    4    4    0    0 -0.29703159148E+02 -0.16676801935E+02 -0.60607533248E+01  0.34599510358E+02  0.00000000000E+00 0. -1.
<mgrwt>
<rscale>  0 0.87811167E+02</rscale>
<asrwt>0</asrwt>
<pdfrwt beam="2">  1        1 0.12057841E-01 0.87811167E+02</pdfrwt>
<pdfrwt beam="1">  1       -1 0.37839313E-02 0.87811167E+02</pdfrwt>
<totfact> 0.11130877E+05</totfact>
</mgrwt>
</event>
<event>
 7    1  0.2787125E-009  0.9482552E+02  0.7818608E-02  0.1291570E+00
         -1   -1    0    0    0  501 -0.00000000000E+00  0.00000000000E+00  0.17883321010E+03  0.17883321017E+03  0.50400000000E-02 0.  1.
          1   -1    0    0  501    0  0.00000000000E+00 -0.00000000000E+00 -0.12570203695E+02  0.12570204706E+02  0.50400000000E-02 0. -1.
         23    2    1    2    0    0  0.00000000000E+00  0.00000000000E+00  0.16626300640E+03  0.19140341487E+03  0.94825523608E+02 0.  0.
    9000005    2    3    3    0    0 -0.38946701766E+02 -0.24652043427E+02  0.62943279570E+02  0.78268385921E+02  0.62860932246E+01 0.  0.
         22    1    3    3    0    0  0.38946701766E+02  0.24652043427E+02  0.10331972683E+03  0.11313502895E+03  0.00000000000E+00 0.  1.
         22    1    4    4    0    0 -0.36678504920E+02 -0.21517838275E+02  0.59155905989E+02  0.72854315593E+02  0.00000000000E+00 0. -1.
         22    1    4    4    0    0 -0.22681968459E+01 -0.31342051523E+01  0.37873735814E+01  0.54140703277E+01  0.00000000000E+00 0. -1.
<mgrwt>
<rscale>  0 0.94825524E+02</rscale>
<asrwt>0</asrwt>
<pdfrwt beam="2">  1        1 0.19338776E-02 0.94825524E+02</pdfrwt>
<pdfrwt beam="1">  1       -1 0.27512802E-01 0.94825524E+02</pdfrwt>
<totfact> 0.64632333E+04</totfact>
</mgrwt>
</event>
<event>
 7    1  0.2787125E-009  0.9278769E+02  0.7818608E-02  0.1296238E+00
         -1   -1    0    0    0  501 -0.00000000000E+00  0.00000000000E+00  0.80354973621E+01  0.80354989427E+01  0.50400000000E-02 0.  1.
          1   -1    0    0  501    0  0.00000000000E+00 -0.00000000000E+00 -0.26786003946E+03  0.26786003951E+03  0.50400000000E-02 0. -1.
         23    2    1    2    0    0  0.00000000000E+00  0.00000000000E+00 -0.25982454210E+03  0.27589553845E+03  0.92787690241E+02 0.  0.
    9000005    2    3    3    0    0 -0.21681940764E+02 -0.25446248704E+02 -0.22457087800E+03  0.22731118952E+03  0.10985422534E+02 0.  0.
         22    1    3    3    0    0  0.21681940764E+02  0.25446248704E+02 -0.35253664101E+02  0.48584348930E+02  0.00000000000E+00 0.  1.
         22    1    4    4    0    0 -0.65680490923E+01 -0.51743744246E+01 -0.89823340996E+02  0.90211673343E+02  0.00000000000E+00 0. -1.
         22    1    4    4    0    0 -0.15113891672E+02 -0.20271874280E+02 -0.13474753700E+03  0.13709951618E+03  0.00000000000E+00 0. -1.
<mgrwt>
<rscale>  0 0.92787690E+02</rscale>
<asrwt>0</asrwt>
<pdfrwt beam="2">  1        1 0.41209230E-01 0.92787690E+02</pdfrwt>
<pdfrwt beam="1">  1       -1 0.12362307E-02 0.92787690E+02</pdfrwt>
<totfact> 0.11961512E+05</totfact>
</mgrwt>
</event>
<event>
 7    1  0.2787125E-009  0.8641707E+02  0.7818608E-02  0.1311768E+00
         -1   -1    0    0    0  501 -0.00000000000E+00  0.00000000000E+00  0.19223580353E+03  0.19223580360E+03  0.50400000000E-02 0.  1.
          1   -1    0    0  501    0  0.00000000000E+00 -0.00000000000E+00 -0.97119123128E+01  0.97119136206E+01  0.50400000000E-02 0. -1.
         23    2    1    2    0    0  0.00000000000E+00  0.00000000000E+00  0.18252389122E+03  0.20194771722E+03  0.86417067898E+02 0.  0.
    9000005    2    3    3    0    0 -0.12481924716E+02  0.40612635169E+02  0.10942816333E+03  0.11740086621E+03  0.18044048349E+01 0.  0.
         22    1    3    3    0    0  0.12481924716E+02 -0.40612635169E+02  0.73095727891E+02  0.84546851011E+02  0.00000000000E+00 0. -1.
         22    1    4    4    0    0 -0.55584159791E+01  0.21040835940E+02  0.56678272727E+02  0.60712761135E+02  0.00000000000E+00 0.  1.
         22    1    4    4    0    0 -0.69235087374E+01  0.19571799230E+02  0.52749890601E+02  0.56688105073E+02  0.00000000000E+00 0.  1.
<mgrwt>
<rscale>  0 0.86417068E+02</rscale>
<asrwt>0</asrwt>
<pdfrwt beam="2">  1        1 0.14941405E-02 0.86417068E+02</pdfrwt>
<pdfrwt beam="1">  1       -1 0.29574738E-01 0.86417068E+02</pdfrwt>
<totfact> 0.80698480E+04</totfact>
</mgrwt>
</event>
<event>
 7    1  0.2787125E-009  0.9138974E+02  0.7818608E-02  0.1299521E+00
         -1   -1    0    0    0  501 -0.00000000000E+00  0.00000000000E+00  0.50894366278E+01  0.50894391233E+01  0.50400000000E-02 0.  1.
          1   -1    0    0  501    0  0.00000000000E+00 -0.00000000000E+00 -0.41026553156E+03  0.41026553159E+03  0.50400000000E-02 0. -1.
         23    2    1    2    0    0  0.00000000000E+00  0.00000000000E+00 -0.40517609493E+03  0.41535497072E+03  0.91389735707E+02 0.  0.
    9000005    2    3    3    0    0  0.43316948396E+02  0.97992214518E+01 -0.16092046977E+03  0.16709463723E+03  0.72689366398E+01 0.  0.
         22    1    3    3    0    0 -0.43316948396E+02 -0.97992214518E+01 -0.24425562517E+03  0.24826033349E+03  0.00000000000E+00 0. -1.
         22    1    4    4    0    0  0.10341806377E+01  0.45850080127E+00 -0.10639132300E+02  0.10699106911E+02  0.00000000000E+00 0. -1.
         22    1    4    4    0    0  0.42282767758E+02  0.93407206505E+01 -0.15028133747E+03  0.15639553031E+03  0.00000000000E+00 0. -1.
<mgrwt>
<rscale>  0 0.91389736E+02</rscale>
<asrwt>0</asrwt>
<pdfrwt beam="2">  1        1 0.63117748E-01 0.91389736E+02</pdfrwt>
<pdfrwt beam="1">  1       -1 0.78299077E-03 0.91389736E+02</pdfrwt>
<totfact> 0.13460916E+05</totfact>
</mgrwt>
</event>
<event>
 7    1  0.2787125E-009  0.8649707E+02  0.7818608E-02  0.1311563E+00
          1   -1    0    0  501    0  0.00000000000E+00  0.00000000000E+00  0.43668475521E+03  0.43668475524E+03  0.50400000000E-02 0. -1.
         -1   -1    0    0    0  501 -0.00000000000E+00 -0.00000000000E+00 -0.42832619920E+01  0.42832649572E+01  0.50400000000E-02 0.  1.
         23    2    1    2    0    0  0.71054273576E-14  0.88817841970E-15  0.43240149322E+03  0.44096802020E+03  0.86497072198E+02 0.  0.
    9000005    2    3    3    0    0 -0.41774957970E+02 -0.74196891557E+01  0.25723907587E+03  0.26074018841E+03  0.36475738607E+01 0.  0.
         22    1    3    3    0    0  0.41774957970E+02  0.74196891557E+01  0.17516241735E+03  0.18022783179E+03  0.00000000000E+00 0.  1.
         22    1    4    4    0    0 -0.31861385520E+02 -0.59262451523E+01  0.20534132860E+03  0.20788297068E+03  0.00000000000E+00 0. -1.
         22    1    4    4    0    0 -0.99135724502E+01 -0.14934440034E+01  0.51897747272E+02  0.52857217725E+02  0.00000000000E+00 0. -1.
<mgrwt>
<rscale>  0 0.86497072E+02</rscale>
<asrwt>0</asrwt>
<pdfrwt beam="1">  1        1 0.67182270E-01 0.86497072E+02</pdfrwt>
<pdfrwt beam="2">  1       -1 0.65896362E-03 0.86497072E+02</pdfrwt>
<totfact> 0.15721022E+05</totfact>
</mgrwt>
</event>
<event>
 7    1  0.2787125E-009  0.8851442E+02  0.7818608E-02  0.1306490E+00
         -1   -1    0    0    0  501 -0.00000000000E+00  0.00000000000E+00  0.45843506423E+01  0.45843534127E+01  0.50400000000E-02 0.  1.
          1   -1    0    0  501    0  0.00000000000E+00 -0.00000000000E+00 -0.42725786672E+03  0.42725786675E+03  0.50400000000E-02 0. -1.
         23    2    1    2    0    0  0.00000000000E+00  0.00000000000E+00 -0.42267351608E+03  0.43184222017E+03  0.88514416461E+02 0.  0.
    9000005    2    3    3    0    0  0.22508667834E+02 -0.15537416706E+02 -0.38049901984E+03  0.38157553558E+03  0.85049287192E+01 0.  0.
         22    1    3    3    0    0 -0.22508667834E+02  0.15537416706E+02 -0.42174496245E+02  0.50266684584E+02  0.00000000000E+00 0.  1.
         22    1    4    4    0    0  0.58395332055E+01 -0.39392529919E+01 -0.15632616808E+03  0.15648478740E+03  0.00000000000E+00 0.  1.
         22    1    4    4    0    0  0.16669134629E+02 -0.11598163715E+02 -0.22417285176E+03  0.22509074818E+03  0.00000000000E+00 0.  1.
<mgrwt>
<rscale>  0 0.88514416E+02</rscale>
<asrwt>0</asrwt>
<pdfrwt beam="2">  1        1 0.65731949E-01 0.88514416E+02</pdfrwt>
<pdfrwt beam="1">  1       -1 0.70528526E-03 0.88514416E+02</pdfrwt>
<totfact> 0.14743847E+05</totfact>
</mgrwt>
</event>
<event>
 7    1  0.2787125E-009  0.8749279E+02  0.7818608E-02  0.1309039E+00
          1   -1    0    0  501    0  0.00000000000E+00  0.00000000000E+00  0.18223383787E+01  0.18223453482E+01  0.50400000000E-02 0. -1.
         -1   -1    0    0    0  501 -0.00000000000E+00 -0.00000000000E+00 -0.10501580804E+04  0.10501580804E+04  0.50400000000E-02 0.  1.
         23    2    1    2    0    0 -0.88817841970E-15  0.00000000000E+00 -0.10483357420E+04  0.10519804257E+04  0.87492789321E+02 0.  0.
    9000005    2    3    3    0    0  0.75726932380E+01  0.23700696250E+02 -0.95307445592E+03  0.95352342339E+03  0.15392587270E+02 0.  0.
         22    1    3    3    0    0 -0.75726932380E+01 -0.23700696250E+02 -0.95261286064E+02  0.98457002332E+02  0.00000000000E+00 0. -1.
         22    1    4    4    0    0  0.58139072756E+01  0.20168812810E+02 -0.51044782008E+03  0.51087920250E+03  0.00000000000E+00 0.  1.
         22    1    4    4    0    0  0.17587859624E+01  0.35318834398E+01 -0.44262663584E+03  0.44264422088E+03  0.00000000000E+00 0.  1.
<mgrwt>
<rscale>  0 0.87492789E+02</rscale>
<asrwt>0</asrwt>
<pdfrwt beam="1">  1        1 0.28036113E-03 0.87492789E+02</pdfrwt>
<pdfrwt beam="2">  1       -1 0.16156230E+00 0.87492789E+02</pdfrwt>
<totfact> 0.26893546E+04</totfact>
</mgrwt>
</event>
<event>
 7    1  0.2787125E-009  0.9066284E+02  0.7818608E-02  0.1301254E+00
          1   -1    0    0  501    0  0.00000000000E+00  0.00000000000E+00  0.10408237207E+01  0.10408359233E+01  0.50400000000E-02 0. -1.
         -1   -1    0    0    0  501 -0.00000000000E+00 -0.00000000000E+00 -0.19743262864E+04  0.19743262864E+04  0.50400000000E-02 0.  1.
         23    2    1    2    0    0  0.88817841970E-15  0.00000000000E+00 -0.19732854627E+04  0.19753671223E+04  0.90662841119E+02 0.  0.
    9000005    2    3    3    0    0  0.67177767651E+01  0.17967068638E+02 -0.18800543458E+04  0.18801831676E+04  0.10791503612E+02 0.  0.
         22    1    3    3    0    0 -0.67177767651E+01 -0.17967068638E+02 -0.93231116881E+02  0.95183954714E+02  0.00000000000E+00 0. -1.
         22    1    4    4    0    0  0.94010521972E+01  0.16380125469E+02 -0.15987191257E+04  0.15988306762E+04  0.00000000000E+00 0.  1.
         22    1    4    4    0    0 -0.26832754321E+01  0.15869431698E+01 -0.28133522006E+03  0.28135249137E+03  0.00000000000E+00 0.  1.
<mgrwt>
<rscale>  0 0.90662841E+02</rscale>
<asrwt>0</asrwt>
<pdfrwt beam="1">  1        1 0.16012925E-03 0.90662841E+02</pdfrwt>
<pdfrwt beam="2">  1       -1 0.30373951E+00 0.90662841E+02</pdfrwt>
<totfact> 0.73354818E+03</totfact>
</mgrwt>
</event>
<event>
 7    1  0.2787125E-009  0.8683415E+02  0.7818608E-02  0.1310705E+00
          1   -1    0    0  501    0  0.00000000000E+00  0.00000000000E+00  0.19024607762E+03  0.19024607769E+03  0.50400000000E-02 0. -1.
         -1   -1    0    0    0  501 -0.00000000000E+00 -0.00000000000E+00 -0.99084411267E+01  0.99084424085E+01  0.50400000000E-02 0.  1.
         23    2    1    2    0    0  0.00000000000E+00  0.00000000000E+00  0.18033763649E+03  0.20015452010E+03  0.86834145234E+02 0.  0.
    9000005    2    3    3    0    0 -0.22904599940E+02  0.20485517328E+02  0.21092084408E+02  0.37971219545E+02  0.72567465427E+01 0.  0.
         22    1    3    3    0    0  0.22904599940E+02 -0.20485517328E+02  0.15924555209E+03  0.16218330055E+03  0.00000000000E+00 0. -1.
         22    1    4    4    0    0 -0.14264033498E+02  0.15837973689E+02  0.11363321474E+02  0.24154277822E+02  0.00000000000E+00 0.  1.
         22    1    4    4    0    0 -0.86405664425E+01  0.46475436398E+01  0.97287629345E+01  0.13816941723E+02  0.00000000000E+00 0.  1.
<mgrwt>
<rscale>  0 0.86834145E+02</rscale>
<asrwt>0</asrwt>
<pdfrwt beam="1">  1        1 0.29268627E-01 0.86834145E+02</pdfrwt>
<pdfrwt beam="2">  1       -1 0.15243757E-02 0.86834145E+02</pdfrwt>
<totfact> 0.13362111E+05</totfact>
</mgrwt>
</event>
<event>
 7    1  0.3471849E-009  0.8680160E+02  0.7818608E-02  0.1310787E+00
          1   -1    0    0  501    0  0.00000000000E+00  0.00000000000E+00  0.11330548148E+03  0.11330548159E+03  0.50400000000E-02 0. -1.
         -1   -1    0    0    0  501 -0.00000000000E+00 -0.00000000000E+00 -0.16624346624E+02  0.16624347388E+02  0.50400000000E-02 0.  1.
         23    2    1    2    0    0  0.00000000000E+00 -0.71054273576E-14  0.96681134855E+02  0.12992982898E+03  0.86801604948E+02 0.  0.
    9000005    2    3    3    0    0 -0.22695398987E+01 -0.41617768424E+02  0.61470479471E+02  0.75368123429E+02  0.12827498698E+02 0.  0.
         22    1    3    3    0    0  0.22695398987E+01  0.41617768424E+02  0.35210655385E+02  0.54561705550E+02  0.00000000000E+00 0.  1.
         22    1    4    4    0    0 -0.70680473161E+01 -0.32375345706E+02  0.45084065965E+02  0.55952598746E+02  0.00000000000E+00 0. -1.
         22    1    4    4    0    0  0.47985074174E+01 -0.92424227172E+01  0.16386413506E+02  0.19415524683E+02  0.00000000000E+00 0. -1.
<mgrwt>
<rscale>  0 0.86801605E+02</rscale>
<asrwt>0</asrwt>
<pdfrwt beam="1">  1        1 0.17431613E-01 0.86801605E+02</pdfrwt>
<pdfrwt beam="2">  1       -1 0.25575918E-02 0.86801605E+02</pdfrwt>
<totfact> 0.12185934E+05</totfact>
</mgrwt>
</event>
<event>
 7    1  0.2787125E-009  0.9401698E+02  0.7818608E-02  0.1293406E+00
          1   -1    0    0  501    0  0.00000000000E+00  0.00000000000E+00  0.90665866535E+01  0.90665880543E+01  0.50400000000E-02 0. -1.
         -1   -1    0    0    0  501 -0.00000000000E+00 -0.00000000000E+00 -0.24372987542E+03  0.24372987548E+03  0.50400000000E-02 0.  1.
         23    2    1    2    0    0  0.00000000000E+00  0.00000000000E+00 -0.23466328877E+03  0.25279646353E+03  0.94016981854E+02 0.  0.
    9000005    2    3    3    0    0  0.27716539886E+02 -0.33138207348E+02 -0.70032304296E+02  0.82591562254E+02  0.71059933196E+01 0.  0.
         22    1    3    3    0    0 -0.27716539886E+02  0.33138207348E+02 -0.16463098447E+03  0.17020490128E+03  0.00000000000E+00 0.  1.
         22    1    4    4    0    0  0.16274171661E+02 -0.13970882095E+02 -0.33416968113E+02  0.39708034044E+02  0.00000000000E+00 0. -1.
         22    1    4    4    0    0  0.11442368225E+02 -0.19167325253E+02 -0.36615336183E+02  0.42883528210E+02  0.00000000000E+00 0. -1.
<mgrwt>
<rscale>  0 0.94016982E+02</rscale>
<asrwt>0</asrwt>
<pdfrwt beam="1">  1        1 0.13948598E-02 0.94016982E+02</pdfrwt>
<pdfrwt beam="2">  1       -1 0.37496899E-01 0.94016982E+02</pdfrwt>
<totfact> 0.60284459E+04</totfact>
</mgrwt>
</event>
<event>
 7    1  0.2787125E-009  0.9129415E+02  0.7818608E-02  0.1299748E+00
          1   -1    0    0  501    0  0.00000000000E+00  0.00000000000E+00  0.13946995266E+02  0.13946996177E+02  0.50400000000E-02 0. -1.
         -1   -1    0    0    0  501 -0.00000000000E+00 -0.00000000000E+00 -0.14939816861E+03  0.14939816870E+03  0.50400000000E-02 0.  1.
         23    2    1    2    0    0  0.00000000000E+00  0.00000000000E+00 -0.13545117334E+03  0.16334516487E+03  0.91294153849E+02 0.  0.
    9000005    2    3    3    0    0  0.43061952605E+02  0.31999741992E+01 -0.93996647289E+02  0.10348658715E+03  0.30874617965E+01 0.  0.
         22    1    3    3    0    0 -0.43061952605E+02 -0.31999741992E+01 -0.41454526054E+02  0.59858577727E+02  0.00000000000E+00 0. -1.
         22    1    4    4    0    0  0.22099276680E+02  0.96931324634E-01 -0.47780910740E+02  0.52644115118E+02  0.00000000000E+00 0. -1.
         22    1    4    4    0    0  0.20962675925E+02  0.31030428746E+01 -0.46215736549E+02  0.50842472027E+02  0.00000000000E+00 0. -1.
<mgrwt>
<rscale>  0 0.91294154E+02</rscale>
<asrwt>0</asrwt>
<pdfrwt beam="1">  1        1 0.21456917E-02 0.91294154E+02</pdfrwt>
<pdfrwt beam="2">  1       -1 0.22984333E-01 0.91294154E+02</pdfrwt>
<totfact> 0.74609194E+04</totfact>
</mgrwt>
</event>
<event>
 7    1  0.2787125E-009  0.9238690E+02  0.7818608E-02  0.1297172E+00
         -1   -1    0    0    0  501 -0.00000000000E+00  0.00000000000E+00  0.16382849624E+02  0.16382850399E+02  0.50400000000E-02 0.  1.
          1   -1    0    0  501    0  0.00000000000E+00 -0.00000000000E+00 -0.13024806910E+03  0.13024806920E+03  0.50400000000E-02 0. -1.
         23    2    1    2    0    0  0.00000000000E+00  0.00000000000E+00 -0.11386521948E+03  0.14663091960E+03  0.92386895042E+02 0.  0.
    9000005    2    3    3    0    0  0.45672874187E+01 -0.43589215399E+02 -0.41376752354E+02  0.61922846314E+02  0.14195895422E+02 0.  0.
         22    1    3    3    0    0 -0.45672874187E+01  0.43589215399E+02 -0.72488467127E+02  0.84708073287E+02  0.00000000000E+00 0.  1.
         22    1    4    4    0    0  0.63476533807E+01 -0.29102735379E+02 -0.35098350085E+02  0.46034292530E+02  0.00000000000E+00 0.  1.
         22    1    4    4    0    0 -0.17803659619E+01 -0.14486480020E+02 -0.62784022686E+01  0.15888553785E+02  0.00000000000E+00 0.  1.
<mgrwt>
<rscale>  0 0.92386895E+02</rscale>
<asrwt>0</asrwt>
<pdfrwt beam="2">  1        1 0.20038164E-01 0.92386895E+02</pdfrwt>
<pdfrwt beam="1">  1       -1 0.25204386E-02 0.92386895E+02</pdfrwt>
<totfact> 0.10546621E+05</totfact>
</mgrwt>
</event>
<event>
 7    1  0.2787125E-009  0.9621026E+02  0.7818608E-02  0.1288473E+00
          1   -1    0    0  501    0  0.00000000000E+00  0.00000000000E+00  0.75109296950E+02  0.75109297119E+02  0.50400000000E-02 0. -1.
         -1   -1    0    0    0  501 -0.00000000000E+00 -0.00000000000E+00 -0.30809814551E+02  0.30809814963E+02  0.50400000000E-02 0.  1.
         23    2    1    2    0    0  0.00000000000E+00  0.00000000000E+00  0.44299482399E+02  0.10591911208E+03  0.96210260177E+02 0.  0.
    9000005    2    3    3    0    0  0.22785592974E+02 -0.41937814297E+02  0.21592074302E+02  0.53064690340E+02  0.84664144189E+01 0.  0.
         22    1    3    3    0    0 -0.22785592974E+02  0.41937814297E+02  0.22707408097E+02  0.52854421742E+02  0.00000000000E+00 0.  1.
         22    1    4    4    0    0  0.12889801547E+02 -0.28791777136E+02  0.10609201023E+02  0.33281655021E+02  0.00000000000E+00 0.  1.
         22    1    4    4    0    0  0.98957914271E+01 -0.13146037160E+02  0.10982873279E+02  0.19783035319E+02  0.00000000000E+00 0.  1.
<mgrwt>
<rscale>  0 0.96210260E+02</rscale>
<asrwt>0</asrwt>
<pdfrwt beam="1">  1        1 0.11555277E-01 0.96210260E+02</pdfrwt>
<pdfrwt beam="2">  1       -1 0.47399715E-02 0.96210260E+02</pdfrwt>
<totfact> 0.85985046E+04</totfact>
</mgrwt>
</event>
<event>
 7    1  0.2787125E-009  0.8763099E+02  0.7818608E-02  0.1308692E+00
         -1   -1    0    0    0  501 -0.00000000000E+00  0.00000000000E+00  0.47551505611E+01  0.47551532320E+01  0.50400000000E-02 0.  1.
          1   -1    0    0  501    0  0.00000000000E+00 -0.00000000000E+00 -0.40373002811E+03  0.40373002814E+03  0.50400000000E-02 0. -1.
         23    2    1    2    0    0  0.00000000000E+00  0.00000000000E+00 -0.39897487755E+03  0.40848518137E+03  0.87630990446E+02 0.  0.
    9000005    2    3    3    0    0 -0.20537608792E+02 -0.31956201792E+02 -0.29795971371E+03  0.30056365649E+03  0.10748413843E+02 0.  0.
         22    1    3    3    0    0  0.20537608792E+02  0.31956201792E+02 -0.10101516383E+03  0.10792152488E+03  0.00000000000E+00 0.  1.
         22    1    4    4    0    0 -0.14562337513E+02 -0.14589689004E+02 -0.18113036819E+03  0.18229956385E+03  0.00000000000E+00 0. -1.
         22    1    4    4    0    0 -0.59752712798E+01 -0.17366512788E+02 -0.11682934552E+03  0.11826409264E+03  0.00000000000E+00 0. -1.
<mgrwt>
<rscale>  0 0.87630990E+02</rscale>
<asrwt>0</asrwt>
<pdfrwt beam="2">  1        1 0.62112285E-01 0.87630990E+02</pdfrwt>
<pdfrwt beam="1">  1       -1 0.73156215E-03 0.87630990E+02</pdfrwt>
<totfact> 0.15006215E+05</totfact>
</mgrwt>
</event>
<event>
 7    1  0.2787125E-009  0.9545137E+02  0.7818608E-02  0.1290163E+00
         -1   -1    0    0    0  501 -0.00000000000E+00  0.00000000000E+00  0.38536907129E+02  0.38536907459E+02  0.50400000000E-02 0.  1.
          1   -1    0    0  501    0  0.00000000000E+00 -0.00000000000E+00 -0.59105437251E+02  0.59105437466E+02  0.50400000000E-02 0. -1.
         23    2    1    2    0    0  0.00000000000E+00  0.00000000000E+00 -0.20568530122E+02  0.97642344925E+02  0.95451365056E+02 0.  0.
    9000005    2    3    3    0    0 -0.34517934403E+02  0.23023732743E+02  0.12500662814E+02  0.44584342830E+02  0.10484130384E+02 0.  0.
         22    1    3    3    0    0  0.34517934403E+02 -0.23023732743E+02 -0.33069192936E+02  0.53058002095E+02  0.00000000000E+00 0. -1.
         22    1    4    4    0    0 -0.17755510880E+02  0.10507661855E+02  0.11546452916E+02  0.23642962995E+02  0.00000000000E+00 0. -1.
         22    1    4    4    0    0 -0.16762423523E+02  0.12516070888E+02  0.95420989832E+00  0.20941379834E+02  0.00000000000E+00 0. -1.
<mgrwt>
<rscale>  0 0.95451365E+02</rscale>
<asrwt>0</asrwt>
<pdfrwt beam="2">  1        1 0.90931442E-02 0.95451365E+02</pdfrwt>
<pdfrwt beam="1">  1       -1 0.59287550E-02 0.95451365E+02</pdfrwt>
<totfact> 0.84624692E+04</totfact>
</mgrwt>
</event>
<event>
 7    1  0.2787125E-009  0.9239322E+02  0.7818608E-02  0.1297158E+00
         -1   -1    0    0    0  501 -0.00000000000E+00  0.00000000000E+00  0.17266372166E+03  0.17266372173E+03  0.50400000000E-02 0.  1.
          1   -1    0    0  501    0  0.00000000000E+00 -0.00000000000E+00 -0.12360016640E+02  0.12360017667E+02  0.50400000000E-02 0. -1.
         23    2    1    2    0    0  0.35527136788E-14  0.00000000000E+00  0.16030370502E+03  0.18502373940E+03  0.92393215651E+02 0.  0.
    9000005    2    3    3    0    0 -0.30848702416E+02 -0.10475840206E+02  0.15150827949E+02  0.36259686650E+02  0.48817639858E+01 0.  0.
         22    1    3    3    0    0  0.30848702416E+02  0.10475840206E+02  0.14515287707E+03  0.14876405275E+03  0.00000000000E+00 0.  1.
         22    1    4    4    0    0 -0.27395928048E+02 -0.10461196526E+02  0.12375058515E+02  0.31829476584E+02  0.00000000000E+00 0. -1.
         22    1    4    4    0    0 -0.34527743680E+01 -0.14643679841E-01  0.27757694337E+01  0.44302100654E+01  0.00000000000E+00 0. -1.
<mgrwt>
<rscale>  0 0.92393216E+02</rscale>
<asrwt>0</asrwt>
<pdfrwt beam="2">  1        1 0.19015412E-02 0.92393216E+02</pdfrwt>
<pdfrwt beam="1">  1       -1 0.26563648E-01 0.92393216E+02</pdfrwt>
<totfact> 0.69799783E+04</totfact>
</mgrwt>
</event>
<event>
 7    1  0.2787125E-009  0.9226792E+02  0.7818608E-02  0.1297451E+00
          1   -1    0    0  501    0  0.00000000000E+00  0.00000000000E+00  0.69167078792E+02  0.69167078976E+02  0.50400000000E-02 0. -1.
         -1   -1    0    0    0  501 -0.00000000000E+00 -0.00000000000E+00 -0.30771027911E+02  0.30771028324E+02  0.50400000000E-02 0.  1.
         23    2    1    2    0    0  0.00000000000E+00  0.00000000000E+00  0.38396050881E+02  0.99938107300E+02  0.92267917325E+02 0.  0.
    9000005    2    3    3    0    0  0.19308621624E+02 -0.34996755424E+02  0.44130276873E+02  0.59558940556E+02  0.14799676060E+01 0.  0.
         22    1    3    3    0    0 -0.19308621624E+02  0.34996755424E+02 -0.57342259920E+01  0.40379166744E+02  0.00000000000E+00 0.  1.
         22    1    4    4    0    0  0.17417545437E+02 -0.32391131869E+02  0.40483718884E+02  0.54694495221E+02  0.00000000000E+00 0. -1.
         22    1    4    4    0    0  0.18910761872E+01 -0.26056235544E+01  0.36465579894E+01  0.48644453356E+01  0.00000000000E+00 0. -1.
<mgrwt>
<rscale>  0 0.92267917E+02</rscale>
<asrwt>0</asrwt>
<pdfrwt beam="1">  1        1 0.10641089E-01 0.92267917E+02</pdfrwt>
<pdfrwt beam="2">  1       -1 0.47340044E-02 0.92267917E+02</pdfrwt>
<totfact> 0.95299426E+04</totfact>
</mgrwt>
</event>
<event>
 7    1  0.2787125E-009  0.9401026E+02  0.7818608E-02  0.1293421E+00
         -1   -1    0    0    0  501 -0.00000000000E+00  0.00000000000E+00  0.71711336064E+01  0.71711353775E+01  0.50400000000E-02 0.  1.
          1   -1    0    0  501    0  0.00000000000E+00 -0.00000000000E+00 -0.30810773601E+03  0.30810773605E+03  0.50400000000E-02 0. -1.
         23    2    1    2    0    0  0.00000000000E+00 -0.35527136788E-14 -0.30093660240E+03  0.31527887142E+03  0.94010255308E+02 0.  0.
    9000005    2    3    3    0    0 -0.36896673256E+02 -0.19860928167E+02 -0.82126066575E+02  0.92492266009E+02  0.73693619302E+01 0.  0.
         22    1    3    3    0    0  0.36896673256E+02  0.19860928167E+02 -0.21881053582E+03  0.22278660542E+03  0.00000000000E+00 0. -1.
         22    1    4    4    0    0 -0.15466049142E+02 -0.11508741831E+02 -0.42643186553E+02  0.46798409952E+02  0.00000000000E+00 0.  1.
         22    1    4    4    0    0 -0.21430624114E+02 -0.83521863360E+01 -0.39482880022E+02  0.45693856057E+02  0.00000000000E+00 0.  1.
<mgrwt>
<rscale>  0 0.94010255E+02</rscale>
<asrwt>0</asrwt>
<pdfrwt beam="2">  1        1 0.47401180E-01 0.94010255E+02</pdfrwt>
<pdfrwt beam="1">  1       -1 0.11032517E-02 0.94010255E+02</pdfrwt>
<totfact> 0.11867114E+05</totfact>
</mgrwt>
</event>
<event>
 7    1  0.2787125E-009  0.8456628E+02  0.7818608E-02  0.1316571E+00
         -1   -1    0    0    0  501 -0.00000000000E+00  0.00000000000E+00  0.24967635743E+03  0.24967635748E+03  0.50400000000E-02 0.  1.
          1   -1    0    0  501    0  0.00000000000E+00 -0.00000000000E+00 -0.71607246467E+01  0.71607264204E+01  0.50400000000E-02 0. -1.
         23    2    1    2    0    0  0.00000000000E+00  0.00000000000E+00  0.24251563278E+03  0.25683708390E+03  0.84566278874E+02 0.  0.
    9000005    2    3    3    0    0 -0.29424275337E+02 -0.26568730016E+02  0.93381914854E+02  0.10252392433E+03  0.14808363998E+02 0.  0.
         22    1    3    3    0    0  0.29424275337E+02  0.26568730016E+02  0.14913371793E+03  0.15431315957E+03  0.00000000000E+00 0.  1.
         22    1    4    4    0    0 -0.23804168727E+02 -0.27765897099E+02  0.80903385002E+02  0.88785929039E+02  0.00000000000E+00 0.  1.
         22    1    4    4    0    0 -0.56201066100E+01  0.11971670830E+01  0.12478529852E+02  0.13737995291E+02  0.00000000000E+00 0.  1.
<mgrwt>
<rscale>  0 0.84566279E+02</rscale>
<asrwt>0</asrwt>
<pdfrwt beam="2">  1        1 0.11016502E-02 0.84566279E+02</pdfrwt>
<pdfrwt beam="1">  1       -1 0.38411744E-01 0.84566279E+02</pdfrwt>
<totfact> 0.78818064E+04</totfact>
</mgrwt>
</event>
<event>
 7    1  0.2787125E-009  0.9389367E+02  0.7818608E-02  0.1293687E+00
         -1   -1    0    0    0  501 -0.00000000000E+00  0.00000000000E+00  0.75070712657E+01  0.75070729575E+01  0.50400000000E-02 0.  1.
          1   -1    0    0  501    0  0.00000000000E+00 -0.00000000000E+00 -0.29359054367E+03  0.29359054372E+03  0.50400000000E-02 0. -1.
         23    2    1    2    0    0  0.35527136788E-14  0.00000000000E+00 -0.28608347241E+03  0.30109761668E+03  0.93893671683E+02 0.  0.
    9000005    2    3    3    0    0  0.22925415963E+02  0.39740052808E+02 -0.11714737130E+03  0.12604261745E+03  0.76412249005E+01 0.  0.
         22    1    3    3    0    0 -0.22925415963E+02 -0.39740052808E+02 -0.16893610111E+03  0.17505499922E+03  0.00000000000E+00 0. -1.
         22    1    4    4    0    0  0.86430030755E+01  0.85174491854E+01 -0.28294745281E+02  0.30787027354E+02  0.00000000000E+00 0. -1.
         22    1    4    4    0    0  0.14282412888E+02  0.31222603623E+02 -0.88852626015E+02  0.95255590096E+02  0.00000000000E+00 0. -1.
<mgrwt>
<rscale>  0 0.93893672E+02</rscale>
<asrwt>0</asrwt>
<pdfrwt beam="2">  1        1 0.45167767E-01 0.93893672E+02</pdfrwt>
<pdfrwt beam="1">  1       -1 0.11549344E-02 0.93893672E+02</pdfrwt>
<totfact> 0.11796977E+05</totfact>
</mgrwt>
</event>
<event>
 7    1  0.2787125E-009  0.9002593E+02  0.7818608E-02  0.1302789E+00
          1   -1    0    0  501    0  0.00000000000E+00  0.00000000000E+00  0.18216153866E+02  0.18216154563E+02  0.50400000000E-02 0. -1.
         -1   -1    0    0    0  501 -0.00000000000E+00 -0.00000000000E+00 -0.11122912645E+03  0.11122912656E+03  0.50400000000E-02 0.  1.
         23    2    1    2    0    0  0.00000000000E+00 -0.88817841970E-15 -0.93012972580E+02  0.12944528112E+03  0.90025928137E+02 0.  0.
    9000005    2    3    3    0    0 -0.19068579682E+02  0.46827867589E+01  0.88087568219E+01  0.25747625406E+02  0.14135303122E+02 0.  0.
         22    1    3    3    0    0  0.19068579682E+02 -0.46827867589E+01 -0.10182172940E+03  0.10369765572E+03  0.00000000000E+00 0.  1.
         22    1    4    4    0    0 -0.14562236369E+02 -0.21816451464E+01  0.94740182618E+01  0.17509292551E+02  0.00000000000E+00 0.  1.
         22    1    4    4    0    0 -0.45063433135E+01  0.68644319054E+01 -0.66526143994E+00  0.82383328548E+01  0.00000000000E+00 0.  1.
<mgrwt>
<rscale>  0 0.90025928E+02</rscale>
<asrwt>0</asrwt>
<pdfrwt beam="1">  1        1 0.28024853E-02 0.90025928E+02</pdfrwt>
<pdfrwt beam="2">  1       -1 0.17112173E-01 0.90025928E+02</pdfrwt>
<totfact> 0.82388724E+04</totfact>
</mgrwt>
</event>
<event>
 7    1  0.2787125E-009  0.9041274E+02  0.7818608E-02  0.1301855E+00
          1   -1    0    0  501    0  0.00000000000E+00  0.00000000000E+00  0.73531570585E+02  0.73531570757E+02  0.50400000000E-02 0. -1.
         -1   -1    0    0    0  501 -0.00000000000E+00 -0.00000000000E+00 -0.27792362685E+02  0.27792363142E+02  0.50400000000E-02 0.  1.
         23    2    1    2    0    0  0.00000000000E+00  0.00000000000E+00  0.45739207900E+02  0.10132393390E+03  0.90412744906E+02 0.  0.
    9000005    2    3    3    0    0  0.20437249829E+02  0.79727283271E+01  0.66903031080E+02  0.70841922988E+02  0.78305113130E+01 0.  0.
         22    1    3    3    0    0 -0.20437249829E+02 -0.79727283271E+01 -0.21163823180E+02  0.30482010910E+02  0.00000000000E+00 0.  1.
         22    1    4    4    0    0  0.46375764347E+01 -0.13296798160E+01  0.17248077835E+02  0.17910090804E+02  0.00000000000E+00 0.  1.
         22    1    4    4    0    0  0.15799673394E+02  0.93024081431E+01  0.49654953246E+02  0.52931832185E+02  0.00000000000E+00 0.  1.
<mgrwt>
<rscale>  0 0.90412745E+02</rscale>
<asrwt>0</asrwt>
<pdfrwt beam="1">  1        1 0.11312549E-01 0.90412745E+02</pdfrwt>
<pdfrwt beam="2">  1       -1 0.42757481E-02 0.90412745E+02</pdfrwt>
<totfact> 0.10174993E+05</totfact>
</mgrwt>
</event>
<event>
 7    1  0.2787125E-009  0.9127450E+02  0.7818608E-02  0.1299794E+00
          1   -1    0    0  501    0  0.00000000000E+00  0.00000000000E+00  0.22963455120E+03  0.22963455126E+03  0.50400000000E-02 0. -1.
         -1   -1    0    0    0  501 -0.00000000000E+00 -0.00000000000E+00 -0.90698819222E+01  0.90698833225E+01  0.50400000000E-02 0.  1.
         23    2    1    2    0    0  0.00000000000E+00 -0.27755575616E-16  0.22056466928E+03  0.23870443458E+03  0.91274496731E+02 0.  0.
    9000005    2    3    3    0    0  0.41128205428E+02  0.20165146858E+00  0.15984008180E+03  0.16536245840E+03  0.10213762966E+02 0.  0.
         22    1    3    3    0    0 -0.41128205428E+02 -0.20165146858E+00  0.60724587481E+02  0.73341976178E+02  0.00000000000E+00 0.  1.
         22    1    4    4    0    0  0.10311941430E+02  0.38674354633E+00  0.25005675905E+02  0.27051239049E+02  0.00000000000E+00 0.  1.
         22    1    4    4    0    0  0.30816263998E+02 -0.18509207775E+00  0.13483440589E+03  0.13831121935E+03  0.00000000000E+00 0.  1.
<mgrwt>
<rscale>  0 0.91274497E+02</rscale>
<asrwt>0</asrwt>
<pdfrwt beam="1">  1        1 0.35328391E-01 0.91274497E+02</pdfrwt>
<pdfrwt beam="2">  1       -1 0.13953666E-02 0.91274497E+02</pdfrwt>
<totfact> 0.12128900E+05</totfact>
</mgrwt>
</event>
<event>
 7    1  0.2787125E-009  0.9146348E+02  0.7818608E-02  0.1299346E+00
         -1   -1    0    0    0  501 -0.00000000000E+00  0.00000000000E+00  0.57302623550E+01  0.57302645714E+01  0.50400000000E-02 0.  1.
          1   -1    0    0  501    0  0.00000000000E+00 -0.00000000000E+00 -0.36497307282E+03  0.36497307285E+03  0.50400000000E-02 0. -1.
         23    2    1    2    0    0  0.00000000000E+00  0.00000000000E+00 -0.35924281046E+03  0.37070333743E+03  0.91463476362E+02 0.  0.
    9000005    2    3    3    0    0 -0.63001113801E+01 -0.19152694036E+02 -0.34583200639E+03  0.34648832642E+03  0.69185697404E+01 0.  0.
         22    1    3    3    0    0  0.63001113801E+01  0.19152694036E+02 -0.13410804075E+02  0.24215011010E+02  0.00000000000E+00 0.  1.
         22    1    4    4    0    0 -0.14356501973E+01 -0.28476818416E+01 -0.10864274428E+03  0.10868954075E+03  0.00000000000E+00 0.  1.
         22    1    4    4    0    0 -0.48644611828E+01 -0.16305012195E+02 -0.23718926211E+03  0.23779878567E+03  0.00000000000E+00 0.  1.
<mgrwt>
<rscale>  0 0.91463476E+02</rscale>
<asrwt>0</asrwt>
<pdfrwt beam="2">  1        1 0.56149686E-01 0.91463476E+02</pdfrwt>
<pdfrwt beam="1">  1       -1 0.88157928E-03 0.91463476E+02</pdfrwt>
<totfact> 0.13170591E+05</totfact>
</mgrwt>
</event>
<event>
 7    1  0.2787125E-009  0.7894149E+02  0.7818608E-02  0.1332082E+00
          1   -1    0    0  501    0  0.00000000000E+00  0.00000000000E+00  0.33660418633E+03  0.33660418637E+03  0.50400000000E-02 0. -1.
         -1   -1    0    0    0  501 -0.00000000000E+00 -0.00000000000E+00 -0.46284017832E+01  0.46284045273E+01  0.50400000000E-02 0.  1.
         23    2    1    2    0    0  0.17763568394E-14  0.00000000000E+00  0.33197578455E+03  0.34123259090E+03  0.78941494560E+02 0.  0.
    9000005    2    3    3    0    0  0.85756756452E+01 -0.57176103804E+01  0.33026532671E+03  0.33078467497E+03  0.15397463609E+02 0.  0.
         22    1    3    3    0    0 -0.85756756452E+01  0.57176103804E+01  0.17104578385E+01  0.10447915929E+02  0.00000000000E+00 0.  1.
         22    1    4    4    0    0 -0.26692605061E+01 -0.51637079539E+01  0.18187216131E+03  0.18196502931E+03  0.00000000000E+00 0. -1.
         22    1    4    4    0    0  0.11244936151E+02 -0.55390242648E+00  0.14839316540E+03  0.14881964566E+03  0.00000000000E+00 0. -1.
<mgrwt>
<rscale>  0 0.78941495E+02</rscale>
<asrwt>0</asrwt>
<pdfrwt beam="1">  1        1 0.51785272E-01 0.78941495E+02</pdfrwt>
<pdfrwt beam="2">  1       -1 0.71206186E-03 0.78941495E+02</pdfrwt>
<totfact> 0.19150816E+05</totfact>
</mgrwt>
</event>
<event>
 7    1  0.2787125E-009  0.9148689E+02  0.7818608E-02  0.1299290E+00
          1   -1    0    0  501    0  0.00000000000E+00  0.00000000000E+00  0.40355205716E+03  0.40355205719E+03  0.50400000000E-02 0. -1.
         -1   -1    0    0    0  501 -0.00000000000E+00 -0.00000000000E+00 -0.51851116202E+01  0.51851140697E+01  0.50400000000E-02 0.  1.
         23    2    1    2    0    0  0.00000000000E+00 -0.88817841970E-15  0.39836694554E+03  0.40873717126E+03  0.91486894536E+02 0.  0.
    9000005    2    3    3    0    0 -0.36385423817E+02  0.41369090765E+01  0.32163338996E+03  0.32371334146E+03  0.11299623835E+01 0.  0.
         22    1    3    3    0    0  0.36385423817E+02 -0.41369090765E+01  0.76733555574E+02  0.85023829801E+02  0.00000000000E+00 0.  1.
         22    1    4    4    0    0 -0.29046349430E-01  0.30993688432E-01  0.20773798760E+00  0.21203624838E+00  0.00000000000E+00 0. -1.
         22    1    4    4    0    0 -0.36356377468E+02  0.41059153881E+01  0.32142565198E+03  0.32350130521E+03  0.00000000000E+00 0. -1.
<mgrwt>
<rscale>  0 0.91486895E+02</rscale>
<asrwt>0</asrwt>
<pdfrwt beam="1">  1        1 0.62084927E-01 0.91486895E+02</pdfrwt>
<pdfrwt beam="2">  1       -1 0.79770974E-03 0.91486895E+02</pdfrwt>
<totfact> 0.13387321E+05</totfact>
</mgrwt>
</event>
<event>
 7    1  0.3507232E-009  0.9087177E+02  0.7818608E-02  0.1300754E+00
         -1   -1    0    0    0  501 -0.00000000000E+00  0.00000000000E+00  0.67138313829E+01  0.67138332746E+01  0.50400000000E-02 0.  1.
          1   -1    0    0  501    0  0.00000000000E+00 -0.00000000000E+00 -0.30748750589E+03  0.30748750593E+03  0.50400000000E-02 0. -1.
         23    2    1    2    0    0  0.00000000000E+00  0.00000000000E+00 -0.30077367451E+03  0.31420133921E+03  0.90871768346E+02 0.  0.
    9000005    2    3    3    0    0 -0.42000904212E+02  0.76587749668E+01 -0.19699067878E+03  0.20197993754E+03  0.12955109264E+02 0.  0.
         22    1    3    3    0    0  0.42000904212E+02 -0.76587749668E+01 -0.10378299573E+03  0.11222140166E+03  0.00000000000E+00 0.  1.
         22    1    4    4    0    0 -0.24950567888E+02  0.85844015763E+01 -0.14083888393E+03  0.14328926692E+03  0.00000000000E+00 0. -1.
         22    1    4    4    0    0 -0.17050336324E+02 -0.92562660946E+00 -0.56151794851E+02  0.58690670625E+02  0.00000000000E+00 0. -1.
<mgrwt>
<rscale>  0 0.90871768E+02</rscale>
<asrwt>0</asrwt>
<pdfrwt beam="2">  1        1 0.47305759E-01 0.90871768E+02</pdfrwt>
<pdfrwt beam="1">  1       -1 0.10328975E-02 0.90871768E+02</pdfrwt>
<totfact> 0.12987723E+05</totfact>
</mgrwt>
</event>
<event>
 7    1  0.2879300E-009  0.9098946E+02  0.7818608E-02  0.1300473E+00
          1   -1    0    0  501    0  0.00000000000E+00  0.00000000000E+00  0.12257404728E+02  0.12257405765E+02  0.50400000000E-02 0. -1.
         -1   -1    0    0    0  501 -0.00000000000E+00 -0.00000000000E+00 -0.16885879340E+03  0.16885879348E+03  0.50400000000E-02 0.  1.
         23    2    1    2    0    0 -0.27755575616E-15  0.71054273576E-14 -0.15660138867E+03  0.18111619924E+03  0.90989464739E+02 0.  0.
    9000005    2    3    3    0    0 -0.22865953990E+00 -0.27198597863E+02 -0.15025331038E+03  0.15318567635E+03  0.12246556563E+02 0.  0.
         22    1    3    3    0    0  0.22865953990E+00  0.27198597863E+02 -0.63480782911E+01  0.27930522890E+02  0.00000000000E+00 0. -1.
         22    1    4    4    0    0  0.48151716931E+01 -0.53367162093E+01 -0.29277474967E+02  0.30146922874E+02  0.00000000000E+00 0. -1.
         22    1    4    4    0    0 -0.50438312330E+01 -0.21861881654E+02 -0.12097583542E+03  0.12303875348E+03  0.00000000000E+00 0. -1.
<mgrwt>
<rscale>  0 0.90989465E+02</rscale>
<asrwt>0</asrwt>
<pdfrwt beam="1">  1        1 0.18857548E-02 0.90989465E+02</pdfrwt>
<pdfrwt beam="2">  1       -1 0.25978274E-01 0.90989465E+02</pdfrwt>
<totfact> 0.73052358E+04</totfact>
</mgrwt>
</event>
<event>
 7    1  0.2787125E-009  0.9028496E+02  0.7818608E-02  0.1302163E+00
          1   -1    0    0  501    0  0.00000000000E+00  0.00000000000E+00  0.21248280040E+02  0.21248280638E+02  0.50400000000E-02 0. -1.
         -1   -1    0    0    0  501 -0.00000000000E+00 -0.00000000000E+00 -0.95906285924E+02  0.95906286057E+02  0.50400000000E-02 0.  1.
         23    2    1    2    0    0  0.00000000000E+00  0.00000000000E+00 -0.74658005884E+02  0.11715456669E+03  0.90284963615E+02 0.  0.
    9000005    2    3    3    0    0 -0.15871196049E+02 -0.45491558761E+01  0.14332681129E+02  0.26645274033E+02  0.15230075402E+02 0.  0.
         22    1    3    3    0    0  0.15871196049E+02  0.45491558761E+01 -0.88990687012E+02  0.90509292662E+02  0.00000000000E+00 0.  1.
         22    1    4    4    0    0 -0.69607367849E+01  0.39474928378E+01  0.11502170283E+02  0.14011940533E+02  0.00000000000E+00 0.  1.
         22    1    4    4    0    0 -0.89104592639E+01 -0.84966487139E+01  0.28305108456E+01  0.12633333499E+02  0.00000000000E+00 0.  1.
<mgrwt>
<rscale>  0 0.90284964E+02</rscale>
<asrwt>0</asrwt>
<pdfrwt beam="1">  1        1 0.32689663E-02 0.90284964E+02</pdfrwt>
<pdfrwt beam="2">  1       -1 0.14754813E-01 0.90284964E+02</pdfrwt>
<totfact> 0.84097564E+04</totfact>
</mgrwt>
</event>
<event>
 7    1  0.2787125E-009  0.9083971E+02  0.7818608E-02  0.1300831E+00
         -1   -1    0    0    0  501 -0.00000000000E+00  0.00000000000E+00  0.29886710616E+02  0.29886711041E+02  0.50400000000E-02 0.  1.
          1   -1    0    0  501    0  0.00000000000E+00 -0.00000000000E+00 -0.69026103257E+02  0.69026103441E+02  0.50400000000E-02 0. -1.
         23    2    1    2    0    0  0.35527136788E-14  0.00000000000E+00 -0.39139392641E+02  0.98912814482E+02  0.90839709447E+02 0.  0.
    9000005    2    3    3    0    0  0.29021461932E+02 -0.16226095188E+02  0.13822015043E+02  0.36379286502E+02  0.51839144259E+01 0.  0.
         22    1    3    3    0    0 -0.29021461932E+02  0.16226095188E+02 -0.52961407684E+02  0.62533527980E+02  0.00000000000E+00 0. -1.
         22    1    4    4    0    0  0.13813842438E+01 -0.15263285335E+01  0.21275455098E+01  0.29604646794E+01  0.00000000000E+00 0.  1.
         22    1    4    4    0    0  0.27640077689E+02 -0.14699766655E+02  0.11694469533E+02  0.33418821823E+02  0.00000000000E+00 0.  1.
<mgrwt>
<rscale>  0 0.90839709E+02</rscale>
<asrwt>0</asrwt>
<pdfrwt beam="2">  1        1 0.10619400E-01 0.90839709E+02</pdfrwt>
<pdfrwt beam="1">  1       -1 0.45979556E-02 0.90839709E+02</pdfrwt>
<totfact> 0.99465147E+04</totfact>
</mgrwt>
</event>
<event>
 7    1  0.2787125E-009  0.9004475E+02  0.7818608E-02  0.1302743E+00
          1   -1    0    0  501    0  0.00000000000E+00  0.00000000000E+00  0.14877854872E+02  0.14877855725E+02  0.50400000000E-02 0. -1.
         -1   -1    0    0    0  501 -0.00000000000E+00 -0.00000000000E+00 -0.13624372731E+03  0.13624372741E+03  0.50400000000E-02 0.  1.
         23    2    1    2    0    0  0.00000000000E+00  0.00000000000E+00 -0.12136587244E+03  0.15112158313E+03  0.90044754955E+02 0.  0.
    9000005    2    3    3    0    0 -0.19657000478E+02 -0.36025515802E+02 -0.87608157794E+02  0.97981967451E+02  0.15525500857E+02 0.  0.
         22    1    3    3    0    0  0.19657000478E+02  0.36025515802E+02 -0.33757714647E+02  0.53139615681E+02  0.00000000000E+00 0.  1.
         22    1    4    4    0    0 -0.14207896584E+02 -0.10415713800E+02 -0.32402252018E+02  0.36881666925E+02  0.00000000000E+00 0.  1.
         22    1    4    4    0    0 -0.54491038941E+01 -0.25609802001E+02 -0.55205905776E+02  0.61100300526E+02  0.00000000000E+00 0.  1.
<mgrwt>
<rscale>  0 0.90044755E+02</rscale>
<asrwt>0</asrwt>
<pdfrwt beam="1">  1        1 0.22889009E-02 0.90044755E+02</pdfrwt>
<pdfrwt beam="2">  1       -1 0.20960573E-01 0.90044755E+02</pdfrwt>
<totfact> 0.78953807E+04</totfact>
</mgrwt>
</event>
<event>
 7    1  0.2787125E-009  0.9505511E+02  0.7818608E-02  0.1291052E+00
         -1   -1    0    0    0  501 -0.00000000000E+00  0.00000000000E+00  0.31197974536E+02  0.31197974943E+02  0.50400000000E-02 0.  1.
          1   -1    0    0  501    0  0.00000000000E+00 -0.00000000000E+00 -0.72404337489E+02  0.72404337664E+02  0.50400000000E-02 0. -1.
         23    2    1    2    0    0  0.00000000000E+00  0.22204460493E-15 -0.41206362953E+02  0.10360231261E+03  0.95055114696E+02 0.  0.
    9000005    2    3    3    0    0 -0.46607219888E+02  0.18083463696E+01 -0.15966922021E+02  0.50568998164E+02  0.11259569895E+02 0.  0.
         22    1    3    3    0    0  0.46607219888E+02 -0.18083463696E+01 -0.25239440932E+02  0.53033314443E+02  0.00000000000E+00 0.  1.
         22    1    4    4    0    0 -0.37490434630E+02  0.67355243358E+00 -0.17283355079E+02  0.41288021561E+02  0.00000000000E+00 0.  1.
         22    1    4    4    0    0 -0.91167852576E+01  0.11347939360E+01  0.13164330578E+01  0.92809766030E+01  0.00000000000E+00 0.  1.
<mgrwt>
<rscale>  0 0.95055115E+02</rscale>
<asrwt>0</asrwt>
<pdfrwt beam="2">  1        1 0.11139129E-01 0.95055115E+02</pdfrwt>
<pdfrwt beam="1">  1       -1 0.47996885E-02 0.95055115E+02</pdfrwt>
<totfact> 0.88392877E+04</totfact>
</mgrwt>
</event>
<event>
 7    1  0.2787125E-009  0.1007394E+03  0.7818608E-02  0.1278749E+00
         -1   -1    0    0    0  501 -0.00000000000E+00  0.00000000000E+00  0.47855316861E+01  0.47855343401E+01  0.50400000000E-02 0.  1.
          1   -1    0    0  501    0  0.00000000000E+00 -0.00000000000E+00 -0.53016154006E+03  0.53016154009E+03  0.50400000000E-02 0. -1.
         23    2    1    2    0    0  0.00000000000E+00  0.00000000000E+00 -0.52537600838E+03  0.53494707443E+03  0.10073937790E+03 0.  0.
    9000005    2    3    3    0    0  0.45990894957E+02  0.28150994303E+01 -0.36310153600E+03  0.36625773988E+03  0.13376074715E+02 0.  0.
         22    1    3    3    0    0 -0.45990894957E+02 -0.28150994303E+01 -0.16227447237E+03  0.16868933454E+03  0.00000000000E+00 0. -1.
         22    1    4    4    0    0  0.37193788749E+02 -0.34505875861E+00 -0.31998662201E+03  0.32214117286E+03  0.00000000000E+00 0. -1.
         22    1    4    4    0    0  0.87971062079E+01  0.31601581889E+01 -0.43114913996E+02  0.44116567028E+02  0.00000000000E+00 0. -1.
<mgrwt>
<rscale>  0 0.10073938E+03</rscale>
<asrwt>0</asrwt>
<pdfrwt beam="2">  1        1 0.81563268E-01 0.10073938E+03</pdfrwt>
<pdfrwt beam="1">  1       -1 0.73623627E-03 0.10073938E+03</pdfrwt>
<totfact> 0.10747856E+05</totfact>
</mgrwt>
</event>
<event>
 7    1  0.2787125E-009  0.9154808E+02  0.7818608E-02  0.1299146E+00
          1   -1    0    0  501    0  0.00000000000E+00  0.00000000000E+00  0.73676367692E+02  0.73676367864E+02  0.50400000000E-02 0. -1.
         -1   -1    0    0    0  501 -0.00000000000E+00 -0.00000000000E+00 -0.28438735496E+02  0.28438735942E+02  0.50400000000E-02 0.  1.
         23    2    1    2    0    0  0.00000000000E+00  0.00000000000E+00  0.45237632196E+02  0.10211510381E+03  0.91548080585E+02 0.  0.
    9000005    2    3    3    0    0 -0.26578462149E+02 -0.21425172753E+02 -0.11075497230E+02  0.36262076364E+02  0.51786934297E+01 0.  0.
         22    1    3    3    0    0  0.26578462149E+02  0.21425172753E+02  0.56313129426E+02  0.65853027443E+02  0.00000000000E+00 0. -1.
         22    1    4    4    0    0 -0.15835489439E+02 -0.14879915680E+02 -0.89657153070E+01  0.23506566474E+02  0.00000000000E+00 0. -1.
         22    1    4    4    0    0 -0.10742972710E+02 -0.65452570728E+01 -0.21097819230E+01  0.12755509890E+02  0.00000000000E+00 0. -1.
<mgrwt>
<rscale>  0 0.91548081E+02</rscale>
<asrwt>0</asrwt>
<pdfrwt beam="1">  1        1 0.11334826E-01 0.91548081E+02</pdfrwt>
<pdfrwt beam="2">  1       -1 0.43751902E-02 0.91548081E+02</pdfrwt>
<totfact> 0.98345132E+04</totfact>
</mgrwt>
</event>
<event>
 7    1  0.2787125E-009  0.8341730E+02  0.7818608E-02  0.1319624E+00
         -1   -1    0    0    0  501 -0.00000000000E+00  0.00000000000E+00  0.81861695807E+01  0.81861711322E+01  0.50400000000E-02 0.  1.
          1   -1    0    0  501    0  0.00000000000E+00 -0.00000000000E+00 -0.21250614987E+03  0.21250614993E+03  0.50400000000E-02 0. -1.
         23    2    1    2    0    0  0.35527136788E-14  0.00000000000E+00 -0.20431998029E+03  0.22069232106E+03  0.83417301744E+02 0.  0.
    9000005    2    3    3    0    0 -0.22466064271E+02 -0.33526408621E+02 -0.10700744479E+03  0.11534302736E+03  0.14989216142E+02 0.  0.
         22    1    3    3    0    0  0.22466064271E+02  0.33526408621E+02 -0.97312535493E+02  0.10534929370E+03  0.00000000000E+00 0.  1.
         22    1    4    4    0    0 -0.19800823172E+02 -0.19520885741E+02 -0.58287742663E+02  0.64580171285E+02  0.00000000000E+00 0.  1.
         22    1    4    4    0    0 -0.26652410983E+01 -0.14005522880E+02 -0.48719702131E+02  0.50762856076E+02  0.00000000000E+00 0.  1.
<mgrwt>
<rscale>  0 0.83417302E+02</rscale>
<asrwt>0</asrwt>
<pdfrwt beam="2">  1        1 0.32693250E-01 0.83417302E+02</pdfrwt>
<pdfrwt beam="1">  1       -1 0.12594110E-02 0.83417302E+02</pdfrwt>
<totfact> 0.15185182E+05</totfact>
</mgrwt>
</event>
<event>
 7    1  0.2787125E-009  0.9275081E+02  0.7818608E-02  0.1296324E+00
          1   -1    0    0  501    0  0.00000000000E+00  0.00000000000E+00  0.54144703691E+02  0.54144703926E+02  0.50400000000E-02 0. -1.
         -1   -1    0    0    0  501 -0.00000000000E+00 -0.00000000000E+00 -0.39720929308E+02  0.39720929627E+02  0.50400000000E-02 0.  1.
         23    2    1    2    0    0  0.00000000000E+00  0.00000000000E+00  0.14423774384E+02  0.93865633553E+02  0.92750805359E+02 0.  0.
    9000005    2    3    3    0    0 -0.36776001120E+02 -0.82461061029E+01 -0.19725861112E+02  0.43006316523E+02  0.63214824236E+01 0.  0.
         22    1    3    3    0    0  0.36776001120E+02  0.82461061029E+01  0.34149635495E+02  0.50859317030E+02  0.00000000000E+00 0. -1.
         22    1    4    4    0    0 -0.13417807326E+01 -0.13904898491E+01 -0.20564500394E+01  0.28218476783E+01  0.00000000000E+00 0. -1.
         22    1    4    4    0    0 -0.35434220388E+02 -0.68556162539E+01 -0.17669411072E+02  0.40184468845E+02  0.00000000000E+00 0. -1.
<mgrwt>
<rscale>  0 0.92750805E+02</rscale>
<asrwt>0</asrwt>
<pdfrwt beam="1">  1        1 0.83299544E-02 0.92750805E+02</pdfrwt>
<pdfrwt beam="2">  1       -1 0.61109123E-02 0.92750805E+02</pdfrwt>
<totfact> 0.90464041E+04</totfact>
</mgrwt>
</event>
<event>
 7    1  0.2787125E-009  0.9484132E+02  0.7818608E-02  0.1291534E+00
          1   -1    0    0  501    0  0.00000000000E+00  0.00000000000E+00  0.18030689245E+03  0.18030689252E+03  0.50400000000E-02 0. -1.
         -1   -1    0    0    0  501 -0.00000000000E+00 -0.00000000000E+00 -0.12471617883E+02  0.12471618901E+02  0.50400000000E-02 0.  1.
         23    2    1    2    0    0  0.11102230246E-15 -0.17763568394E-14  0.16783527457E+03  0.19277851143E+03  0.94841315244E+02 0.  0.
    9000005    2    3    3    0    0  0.75384057322E+00 -0.13750575847E+02  0.17575216419E+03  0.17689380957E+03  0.14592807706E+02 0.  0.
         22    1    3    3    0    0 -0.75384057322E+00  0.13750575847E+02 -0.79168896174E+01  0.15884701852E+02  0.00000000000E+00 0.  1.
         22    1    4    4    0    0 -0.76934689712E+00  0.18445039621E+01  0.44702277004E+01  0.48966340692E+01  0.00000000000E+00 0. -1.
         22    1    4    4    0    0  0.15231874703E+01 -0.15595079809E+02  0.17128193649E+03  0.17199717550E+03  0.00000000000E+00 0. -1.
<mgrwt>
<rscale>  0 0.94841315E+02</rscale>
<asrwt>0</asrwt>
<pdfrwt beam="1">  1        1 0.27739522E-01 0.94841315E+02</pdfrwt>
<pdfrwt beam="2">  1       -1 0.19187105E-02 0.94841315E+02</pdfrwt>
<totfact> 0.10437055E+05</totfact>
</mgrwt>
</event>
<event>
 7    1  0.2787125E-009  0.8901603E+02  0.7818608E-02  0.1305252E+00
          1   -1    0    0  501    0  0.00000000000E+00  0.00000000000E+00  0.98493930727E+03  0.98493930728E+03  0.50400000000E-02 0. -1.
         -1   -1    0    0    0  501 -0.00000000000E+00 -0.00000000000E+00 -0.20112511583E+01  0.20112574732E+01  0.50400000000E-02 0.  1.
         23    2    1    2    0    0  0.00000000000E+00  0.00000000000E+00  0.98292805611E+03  0.98695056475E+03  0.89016031032E+02 0.  0.
    9000005    2    3    3    0    0 -0.27114527358E+02  0.21604653137E+02  0.79237694885E+03  0.79327123414E+03  0.14699088633E+02 0.  0.
         22    1    3    3    0    0  0.27114527358E+02 -0.21604653137E+02  0.19055110726E+03  0.19367933062E+03  0.00000000000E+00 0.  1.
         22    1    4    4    0    0 -0.15362240596E+02  0.13680454508E+02  0.30757318844E+03  0.30826031130E+03  0.00000000000E+00 0. -1.
         22    1    4    4    0    0 -0.11752286762E+02  0.79241986286E+01  0.48480376041E+03  0.48501092284E+03  0.00000000000E+00 0. -1.
<mgrwt>
<rscale>  0 0.89016031E+02</rscale>
<asrwt>0</asrwt>
<pdfrwt beam="1">  1        1 0.15152918E+00 0.89016031E+02</pdfrwt>
<pdfrwt beam="2">  1       -1 0.30942364E-03 0.89016031E+02</pdfrwt>
<totfact> 0.14547800E+05</totfact>
</mgrwt>
</event>
<event>
 7    1  0.2787125E-009  0.8986379E+02  0.7818608E-02  0.1303182E+00
          1   -1    0    0  501    0  0.00000000000E+00  0.00000000000E+00  0.62512832357E+03  0.62512832359E+03  0.50400000000E-02 0. -1.
         -1   -1    0    0    0  501 -0.00000000000E+00 -0.00000000000E+00 -0.32295353327E+01  0.32295392654E+01  0.50400000000E-02 0.  1.
         23    2    1    2    0    0  0.00000000000E+00 -0.11102230246E-15  0.62189878823E+03  0.62835786285E+03  0.89863791382E+02 0.  0.
    9000005    2    3    3    0    0  0.18276398197E+02  0.58720373381E+00  0.59766292386E+03  0.59799754894E+03  0.81071840387E+01 0.  0.
         22    1    3    3    0    0 -0.18276398197E+02 -0.58720373381E+00  0.24235864369E+02  0.30360313915E+02  0.00000000000E+00 0.  1.
         22    1    4    4    0    0  0.12384531794E+02  0.15775614834E+01  0.49748298906E+03  0.49763961833E+03  0.00000000000E+00 0. -1.
         22    1    4    4    0    0  0.58918664032E+01 -0.99035774956E+00  0.10017993480E+03  0.10035793060E+03  0.00000000000E+00 0. -1.
<mgrwt>
<rscale>  0 0.89863791E+02</rscale>
<asrwt>0</asrwt>
<pdfrwt beam="1">  1        1 0.96173621E-01 0.89863791E+02</pdfrwt>
<pdfrwt beam="2">  1       -1 0.49685173E-03 0.89863791E+02</pdfrwt>
<totfact> 0.14743499E+05</totfact>
</mgrwt>
</event>
<event>
 7    1  0.2787125E-009  0.9337273E+02  0.7818608E-02  0.1294884E+00
          1   -1    0    0  501    0  0.00000000000E+00  0.00000000000E+00  0.88930841277E+03  0.88930841278E+03  0.50400000000E-02 0. -1.
         -1   -1    0    0    0  501 -0.00000000000E+00 -0.00000000000E+00 -0.24509095943E+01  0.24509147764E+01  0.50400000000E-02 0.  1.
         23    2    1    2    0    0 -0.71054273576E-14  0.00000000000E+00  0.88685750318E+03  0.89175932756E+03  0.93372733453E+02 0.  0.
    9000005    2    3    3    0    0  0.35794540408E+02 -0.38252442835E+01  0.72376884593E+03  0.72474498165E+03  0.10865747806E+02 0.  0.
         22    1    3    3    0    0 -0.35794540408E+02  0.38252442835E+01  0.16308865725E+03  0.16701434591E+03  0.00000000000E+00 0.  1.
         22    1    4    4    0    0  0.21525940697E+02  0.21451523975E+01  0.36217630402E+03  0.36282177855E+03  0.00000000000E+00 0.  1.
         22    1    4    4    0    0  0.14268599711E+02 -0.59703966811E+01  0.36159254191E+03  0.36192320310E+03  0.00000000000E+00 0.  1.
<mgrwt>
<rscale>  0 0.93372733E+02</rscale>
<asrwt>0</asrwt>
<pdfrwt beam="1">  1        1 0.13681679E+00 0.93372733E+02</pdfrwt>
<pdfrwt beam="2">  1       -1 0.37706312E-03 0.93372733E+02</pdfrwt>
<totfact> 0.13094414E+05</totfact>
</mgrwt>
</event>
<event>
 7    1  0.2787125E-009  0.9029843E+02  0.7818608E-02  0.1302131E+00
         -1   -1    0    0    0  501 -0.00000000000E+00  0.00000000000E+00  0.53473462052E+01  0.53473485803E+01  0.50400000000E-02 0.  1.
          1   -1    0    0  501    0  0.00000000000E+00 -0.00000000000E+00 -0.38120803924E+03  0.38120803927E+03  0.50400000000E-02 0. -1.
         23    2    1    2    0    0  0.71054273576E-14 -0.44408920985E-15 -0.37586069303E+03  0.38655538785E+03  0.90298434704E+02 0.  0.
    9000005    2    3    3    0    0  0.41642096531E+02 -0.30720296928E+01 -0.25418030207E+03  0.25791006491E+03  0.12902482379E+02 0.  0.
         22    1    3    3    0    0 -0.41642096531E+02  0.30720296928E+01 -0.12168039096E+03  0.12864532294E+03  0.00000000000E+00 0.  1.
         22    1    4    4    0    0  0.29881434932E+02  0.23855249500E+01 -0.19777498900E+03  0.20003384003E+03  0.00000000000E+00 0. -1.
         22    1    4    4    0    0  0.11760661598E+02 -0.54575546427E+01 -0.56405313067E+02  0.57876224878E+02  0.00000000000E+00 0. -1.
<mgrwt>
<rscale>  0 0.90298435E+02</rscale>
<asrwt>0</asrwt>
<pdfrwt beam="2">  1        1 0.58647370E-01 0.90298435E+02</pdfrwt>
<pdfrwt beam="1">  1       -1 0.82266913E-03 0.90298435E+02</pdfrwt>
<totfact> 0.13729361E+05</totfact>
</mgrwt>
</event>
<event>
 7    1  0.2787125E-009  0.8828469E+02  0.7818608E-02  0.1307060E+00
          1   -1    0    0  501    0  0.00000000000E+00  0.00000000000E+00  0.45333876699E+02  0.45333876979E+02  0.50400000000E-02 0. -1.
         -1   -1    0    0    0  501 -0.00000000000E+00 -0.00000000000E+00 -0.42982131244E+02  0.42982131540E+02  0.50400000000E-02 0.  1.
         23    2    1    2    0    0 -0.35527136788E-14  0.35527136788E-14  0.23517454546E+01  0.88316008518E+02  0.88284690938E+02 0.  0.
    9000005    2    3    3    0    0  0.31151884731E+02 -0.23326824947E+02 -0.19326119679E+02  0.43768163215E+02  0.52509546772E+01 0.  0.
         22    1    3    3    0    0 -0.31151884731E+02  0.23326824947E+02  0.21677865134E+02  0.44547845303E+02  0.00000000000E+00 0. -1.
         22    1    4    4    0    0  0.91628020584E+01 -0.40211550281E+01 -0.47082559428E+01  0.11058675479E+02  0.00000000000E+00 0. -1.
         22    1    4    4    0    0  0.21989082673E+02 -0.19305669918E+02 -0.14617863736E+02  0.32709487737E+02  0.00000000000E+00 0. -1.
<mgrwt>
<rscale>  0 0.88284691E+02</rscale>
<asrwt>0</asrwt>
<pdfrwt beam="1">  1        1 0.69744426E-02 0.88284691E+02</pdfrwt>
<pdfrwt beam="2">  1       -1 0.66126356E-02 0.88284691E+02</pdfrwt>
<totfact> 0.10111452E+05</totfact>
</mgrwt>
</event>
<event>
 7    1  0.2787125E-009  0.9240946E+02  0.7818608E-02  0.1297120E+00
         -1   -1    0    0    0  501 -0.00000000000E+00  0.00000000000E+00  0.98546174653E+01  0.98546187541E+01  0.50400000000E-02 0.  1.
          1   -1    0    0  501    0  0.00000000000E+00 -0.00000000000E+00 -0.21663721099E+03  0.21663721105E+03  0.50400000000E-02 0. -1.
         23    2    1    2    0    0  0.00000000000E+00  0.00000000000E+00 -0.20678259352E+03  0.22649182980E+03  0.92409458296E+02 0.  0.
    9000005    2    3    3    0    0  0.10907663079E+02 -0.39594045933E+02 -0.15415769932E+03  0.15973821509E+03  0.80644598988E+01 0.  0.
         22    1    3    3    0    0 -0.10907663079E+02  0.39594045933E+02 -0.52624894208E+02  0.66753614715E+02  0.00000000000E+00 0.  1.
         22    1    4    4    0    0  0.40606804929E+01 -0.97367876514E+01 -0.28185645739E+02  0.30095261846E+02  0.00000000000E+00 0.  1.
         22    1    4    4    0    0  0.68469825864E+01 -0.29857258281E+02 -0.12597205358E+03  0.12964295324E+03  0.00000000000E+00 0.  1.
<mgrwt>
<rscale>  0 0.92409458E+02</rscale>
<asrwt>0</asrwt>
<pdfrwt beam="2">  1        1 0.33328798E-01 0.92409458E+02</pdfrwt>
<pdfrwt beam="1">  1       -1 0.15160953E-02 0.92409458E+02</pdfrwt>
<totfact> 0.11600713E+05</totfact>
</mgrwt>
</event>
<event>
 7    1  0.2787125E-009  0.9321623E+02  0.7818608E-02  0.1295245E+00
         -1   -1    0    0    0  501 -0.00000000000E+00  0.00000000000E+00  0.10723966679E+02  0.10723967863E+02  0.50400000000E-02 0. -1.
          1   -1    0    0  501    0  0.00000000000E+00 -0.00000000000E+00 -0.20256647297E+03  0.20256647303E+03  0.50400000000E-02 0.  1.
         23    2    1    2    0    0  0.88817841970E-15  0.17763568394E-14 -0.19184250629E+03  0.21329044089E+03  0.93216226901E+02 0.  0.
    9000005    2    3    3    0    0 -0.67605032037E+01 -0.12110408459E+02 -0.19753887873E+03  0.19829660697E+03  0.10371563653E+02 0.  0.
         22    1    3    3    0    0  0.67605032037E+01  0.12110408459E+02  0.56963724386E+01  0.14993833918E+02  0.00000000000E+00 0. -1.
         22    1    4    4    0    0  0.18063668775E+01 -0.58002574790E+01 -0.48611583731E+02  0.48989713420E+02  0.00000000000E+00 0. -1.
         22    1    4    4    0    0 -0.85668700812E+01 -0.63101509800E+01 -0.14892729500E+03  0.14930689355E+03  0.00000000000E+00 0. -1.
<mgrwt>
<rscale>  0 0.93216227E+02</rscale>
<asrwt>0</asrwt>
<pdfrwt beam="2">  1        1 0.31164070E-01 0.93216227E+02</pdfrwt>
<pdfrwt beam="1">  1       -1 0.16498413E-02 0.93216227E+02</pdfrwt>
<totfact> 0.11185088E+05</totfact>
</mgrwt>
</event>
<event>
 7    1  0.2787125E-009  0.8929991E+02  0.7818608E-02  0.1304556E+00
         -1   -1    0    0    0  501 -0.00000000000E+00  0.00000000000E+00  0.25989968013E+03  0.25989968018E+03  0.50400000000E-02 0.  1.
          1   -1    0    0  501    0  0.00000000000E+00 -0.00000000000E+00 -0.76707222464E+01  0.76707239021E+01  0.50400000000E-02 0. -1.
         23    2    1    2    0    0  0.00000000000E+00 -0.35527136788E-14  0.25222895788E+03  0.26757040408E+03  0.89299910106E+02 0.  0.
    9000005    2    3    3    0    0 -0.19762172215E+02  0.27215747022E+02  0.21235554038E+03  0.21540595489E+03  0.13176097008E+02 0.  0.
         22    1    3    3    0    0  0.19762172215E+02 -0.27215747022E+02  0.39873417500E+02  0.52164449194E+02  0.00000000000E+00 0. -1.
         22    1    4    4    0    0 -0.10107354746E+02  0.16904951747E+02  0.15888302252E+03  0.16009919069E+03  0.00000000000E+00 0. -1.
         22    1    4    4    0    0 -0.96548174690E+01  0.10310795275E+02  0.53472517865E+02  0.55306764201E+02  0.00000000000E+00 0. -1.
<mgrwt>
<rscale>  0 0.89299910E+02</rscale>
<asrwt>0</asrwt>
<pdfrwt beam="2">  1        1 0.11801115E-02 0.89299910E+02</pdfrwt>
<pdfrwt beam="1">  1       -1 0.39984559E-01 0.89299910E+02</pdfrwt>
<totfact> 0.67467791E+04</totfact>
</mgrwt>
</event>
<event>
 7    1  0.2787125E-009  0.9206151E+02  0.7818608E-02  0.1297935E+00
         -1   -1    0    0    0  501 -0.00000000000E+00  0.00000000000E+00  0.15028749850E+02  0.15028750695E+02  0.50400000000E-02 0.  1.
          1   -1    0    0  501    0  0.00000000000E+00 -0.00000000000E+00 -0.14098513917E+03  0.14098513927E+03  0.50400000000E-02 0. -1.
         23    2    1    2    0    0  0.00000000000E+00 -0.17763568394E-14 -0.12595638932E+03  0.15601388996E+03  0.92061511223E+02 0.  0.
    9000005    2    3    3    0    0  0.17768301585E+02  0.12551283515E+02  0.32700065307E+01  0.24969208096E+02  0.11811907176E+02 0.  0.
         22    1    3    3    0    0 -0.17768301585E+02 -0.12551283515E+02 -0.12922639586E+03  0.13104468186E+03  0.00000000000E+00 0. -1.
         22    1    4    4    0    0  0.11936762072E+02  0.42731138994E+01 -0.30402462284E+01  0.13037978689E+02  0.00000000000E+00 0. -1.
         22    1    4    4    0    0  0.58315395134E+01  0.82781696154E+01  0.63102527592E+01  0.11931229407E+02  0.00000000000E+00 0. -1.
<mgrwt>
<rscale>  0 0.92061511E+02</rscale>
<asrwt>0</asrwt>
<pdfrwt beam="2">  1        1 0.21690021E-01 0.92061511E+02</pdfrwt>
<pdfrwt beam="1">  1       -1 0.23121155E-02 0.92061511E+02</pdfrwt>
<totfact> 0.10801190E+05</totfact>
</mgrwt>
</event>
<event>
 7    1  0.2787125E-009  0.9145886E+02  0.7818608E-02  0.1299357E+00
         -1   -1    0    0    0  501 -0.00000000000E+00  0.00000000000E+00  0.18194057232E+02  0.18194057930E+02  0.50400000000E-02 0.  1.
          1   -1    0    0  501    0  0.00000000000E+00 -0.00000000000E+00 -0.11493756400E+03  0.11493756411E+03  0.50400000000E-02 0. -1.
         23    2    1    2    0    0  0.71054273576E-14  0.00000000000E+00 -0.96743506769E+02  0.13313162204E+03  0.91458857885E+02 0.  0.
    9000005    2    3    3    0    0  0.43567729939E+02 -0.10685359521E+02 -0.44058083793E+02  0.63935684341E+02  0.11590210720E+02 0.  0.
         22    1    3    3    0    0 -0.43567729939E+02  0.10685359521E+02 -0.52685422976E+02  0.69195937700E+02  0.00000000000E+00 0. -1.
         22    1    4    4    0    0  0.30726717097E+02 -0.12561562397E+02 -0.29224609725E+02  0.44226709204E+02  0.00000000000E+00 0.  1.
         22    1    4    4    0    0  0.12841012842E+02  0.18762028760E+01 -0.14833474068E+02  0.19708975137E+02  0.00000000000E+00 0.  1.
<mgrwt>
<rscale>  0 0.91458858E+02</rscale>
<asrwt>0</asrwt>
<pdfrwt beam="2">  1        1 0.17682702E-01 0.91458858E+02</pdfrwt>
<pdfrwt beam="1">  1       -1 0.27990859E-02 0.91458858E+02</pdfrwt>
<totfact> 0.10604533E+05</totfact>
</mgrwt>
</event>
<event>
 7    1  0.2787125E-009  0.8818691E+02  0.7818608E-02  0.1307303E+00
         -1   -1    0    0    0  501 -0.00000000000E+00  0.00000000000E+00  0.42465125613E+01  0.42465155522E+01  0.50400000000E-02 0.  1.
          1   -1    0    0  501    0  0.00000000000E+00 -0.00000000000E+00 -0.45784210726E+03  0.45784210729E+03  0.50400000000E-02 0. -1.
         23    2    1    2    0    0  0.00000000000E+00  0.00000000000E+00 -0.45359559470E+03  0.46208862284E+03  0.88186914155E+02 0.  0.
    9000005    2    3    3    0    0 -0.20682153382E+02 -0.33170392062E+02 -0.33149841496E+03  0.33388664283E+03  0.78143945333E+01 0.  0.
         22    1    3    3    0    0  0.20682153382E+02  0.33170392062E+02 -0.12209717974E+03  0.12820198001E+03  0.00000000000E+00 0.  1.
         22    1    4    4    0    0 -0.16167213068E+02 -0.28449141630E+02 -0.29489165796E+03  0.29670157123E+03  0.00000000000E+00 0. -1.
         22    1    4    4    0    0 -0.45149403140E+01 -0.47212504321E+01 -0.36606757006E+02  0.37185071604E+02  0.00000000000E+00 0. -1.
<mgrwt>
<rscale>  0 0.88186914E+02</rscale>
<asrwt>0</asrwt>
<pdfrwt beam="2">  1        1 0.70437209E-01 0.88186914E+02</pdfrwt>
<pdfrwt beam="1">  1       -1 0.65331022E-03 0.88186914E+02</pdfrwt>
<totfact> 0.15039519E+05</totfact>
</mgrwt>
</event>
<event>
 7    1  0.2787125E-009  0.9275805E+02  0.7818608E-02  0.1296307E+00
         -1   -1    0    0    0  501 -0.00000000000E+00  0.00000000000E+00  0.34574617841E+02  0.34574618208E+02  0.50400000000E-02 0.  1.
          1   -1    0    0  501    0  0.00000000000E+00 -0.00000000000E+00 -0.62213672476E+02  0.62213672680E+02  0.50400000000E-02 0. -1.
         23    2    1    2    0    0  0.00000000000E+00  0.00000000000E+00 -0.27639054635E+02  0.96788290888E+02  0.92758050388E+02 0.  0.
    9000005    2    3    3    0    0  0.58905085675E+01 -0.88899346489E+01  0.32882012165E+02  0.35334824299E+02  0.73207960606E+01 0.  0.
         22    1    3    3    0    0 -0.58905085675E+01  0.88899346489E+01 -0.60521066800E+02  0.61453466589E+02  0.00000000000E+00 0. -1.
         22    1    4    4    0    0 -0.13244080715E+01 -0.28537958176E+01  0.12449456525E+02  0.12840840123E+02  0.00000000000E+00 0.  1.
         22    1    4    4    0    0  0.72149166390E+01 -0.60361388313E+01  0.20432555640E+02  0.22493984175E+02  0.00000000000E+00 0.  1.
<mgrwt>
<rscale>  0 0.92758050E+02</rscale>
<asrwt>0</asrwt>
<pdfrwt beam="2">  1        1 0.95713343E-02 0.92758050E+02</pdfrwt>
<pdfrwt beam="1">  1       -1 0.53191720E-02 0.92758050E+02</pdfrwt>
<totfact> 0.92385518E+04</totfact>
</mgrwt>
</event>
<event>
 7    1  0.2787125E-009  0.9176653E+02  0.7818608E-02  0.1298629E+00
         -1   -1    0    0    0  501 -0.00000000000E+00  0.00000000000E+00  0.34580924165E+02  0.34580924532E+02  0.50400000000E-02 0.  1.
          1   -1    0    0  501    0  0.00000000000E+00 -0.00000000000E+00 -0.60879637381E+02  0.60879637590E+02  0.50400000000E-02 0. -1.
         23    2    1    2    0    0  0.00000000000E+00  0.00000000000E+00 -0.26298713216E+02  0.95460562122E+02  0.91766533136E+02 0.  0.
    9000005    2    3    3    0    0  0.13285885407E+02  0.91282004765E+01  0.31279496189E+02  0.35668514212E+02  0.58307143053E+01 0.  0.
         22    1    3    3    0    0 -0.13285885407E+02 -0.91282004765E+01 -0.57578209405E+02  0.59792047910E+02  0.00000000000E+00 0. -1.
         22    1    4    4    0    0  0.88072222664E+01  0.34679297597E+01  0.13574045147E+02  0.16548365555E+02  0.00000000000E+00 0.  1.
         22    1    4    4    0    0  0.44786631407E+01  0.56602707168E+01  0.17705451042E+02  0.19120148658E+02  0.00000000000E+00 0.  1.
<mgrwt>
<rscale>  0 0.91766533E+02</rscale>
<asrwt>0</asrwt>
<pdfrwt beam="2">  1        1 0.93660981E-02 0.91766533E+02</pdfrwt>
<pdfrwt beam="1">  1       -1 0.53201422E-02 0.91766533E+02</pdfrwt>
<totfact> 0.94870621E+04</totfact>
</mgrwt>
</event>
<event>
 7    1  0.2787125E-009  0.8555984E+02  0.7818608E-02  0.1313975E+00
         -1   -1    0    0    0  501 -0.00000000000E+00  0.00000000000E+00  0.22424810390E+03  0.22424810395E+03  0.50400000000E-02 0.  1.
          1   -1    0    0  501    0  0.00000000000E+00 -0.00000000000E+00 -0.81611457218E+01  0.81611472780E+01  0.50400000000E-02 0. -1.
         23    2    1    2    0    0  0.00000000000E+00  0.00000000000E+00  0.21608695817E+03  0.23240925123E+03  0.85559842009E+02 0.  0.
    9000005    2    3    3    0    0  0.35313408131E+02  0.21824409262E+02  0.83807276035E+02  0.93768507074E+02  0.67477232472E+01 0.  0.
         22    1    3    3    0    0 -0.35313408131E+02 -0.21824409262E+02  0.13227968214E+03  0.13864074416E+03  0.00000000000E+00 0. -1.
         22    1    4    4    0    0  0.35382362683E+02  0.21501934478E+02  0.83761316823E+02  0.93435555177E+02  0.00000000000E+00 0. -1.
         22    1    4    4    0    0 -0.68954551815E-01  0.32247478363E+00  0.45959211613E-01  0.33295189657E+00  0.00000000000E+00 0. -1.
<mgrwt>
<rscale>  0 0.85559842E+02</rscale>
<asrwt>0</asrwt>
<pdfrwt beam="2">  1        1 0.12555611E-02 0.85559842E+02</pdfrwt>
<pdfrwt beam="1">  1       -1 0.34499705E-01 0.85559842E+02</pdfrwt>
<totfact> 0.79163245E+04</totfact>
</mgrwt>
</event>
<event>
 7    1  0.2787125E-009  0.9019549E+02  0.7818608E-02  0.1302379E+00
         -1   -1    0    0    0  501 -0.00000000000E+00  0.00000000000E+00  0.17263911440E+02  0.17263912176E+02  0.50400000000E-02 0.  1.
          1   -1    0    0  501    0  0.00000000000E+00 -0.00000000000E+00 -0.11780681125E+03  0.11780681136E+03  0.50400000000E-02 0. -1.
         23    2    1    2    0    0  0.00000000000E+00  0.44408920985E-15 -0.10054289981E+03  0.13507072353E+03  0.90195485772E+02 0.  0.
    9000005    2    3    3    0    0  0.37516203546E+02  0.22241179977E+01 -0.87064203124E+02  0.95144698265E+02  0.77411829192E+01 0.  0.
         22    1    3    3    0    0 -0.37516203546E+02 -0.22241179977E+01 -0.13478696685E+02  0.39926025268E+02  0.00000000000E+00 0.  1.
         22    1    4    4    0    0  0.59119395604E+01 -0.24628944897E+01 -0.15610242110E+02  0.16872952835E+02  0.00000000000E+00 0.  1.
         22    1    4    4    0    0  0.31604263985E+02  0.46870124875E+01 -0.71453961014E+02  0.78271745430E+02  0.00000000000E+00 0.  1.
<mgrwt>
<rscale>  0 0.90195486E+02</rscale>
<asrwt>0</asrwt>
<pdfrwt beam="2">  1        1 0.18124124E-01 0.90195486E+02</pdfrwt>
<pdfrwt beam="1">  1       -1 0.26559865E-02 0.90195486E+02</pdfrwt>
<totfact> 0.11059073E+05</totfact>
</mgrwt>
</event>
<event>
 7    1  0.2787125E-009  0.8807293E+02  0.7818608E-02  0.1307587E+00
         -1   -1    0    0    0  501 -0.00000000000E+00  0.00000000000E+00  0.12093483294E+03  0.12093483304E+03  0.50400000000E-02 0.  1.
          1   -1    0    0  501    0  0.00000000000E+00 -0.00000000000E+00 -0.16035167162E+02  0.16035167954E+02  0.50400000000E-02 0. -1.
         23    2    1    2    0    0 -0.44408920985E-15  0.00000000000E+00  0.10489966578E+03  0.13697000100E+03  0.88072931672E+02 0.  0.
    9000005    2    3    3    0    0 -0.33544284550E+01  0.32327707167E+02  0.77798838158E+01  0.34556208523E+02  0.87904558699E+01 0.  0.
         22    1    3    3    0    0  0.33544284550E+01 -0.32327707167E+02  0.97119781961E+02  0.10241379247E+03  0.00000000000E+00 0.  1.
         22    1    4    4    0    0 -0.53723091394E+00  0.62222516052E-02 -0.83042926979E+00  0.98907458942E+00  0.00000000000E+00 0.  1.
         22    1    4    4    0    0 -0.28171975411E+01  0.32321484915E+02  0.86103130856E+01  0.33567133934E+02  0.00000000000E+00 0.  1.
<mgrwt>
<rscale>  0 0.88072932E+02</rscale>
<asrwt>0</asrwt>
<pdfrwt beam="2">  1        1 0.24669488E-02 0.88072932E+02</pdfrwt>
<pdfrwt beam="1">  1       -1 0.18605359E-01 0.88072932E+02</pdfrwt>
<totfact> 0.85739400E+04</totfact>
</mgrwt>
</event>
<event>
 7    1  0.2787125E-009  0.8717405E+02  0.7818608E-02  0.1309843E+00
         -1   -1    0    0    0  501 -0.00000000000E+00  0.00000000000E+00  0.37953481825E+02  0.37953482160E+02  0.50400000000E-02 0.  1.
          1   -1    0    0  501    0  0.00000000000E+00 -0.00000000000E+00 -0.50056770835E+02  0.50056771089E+02  0.50400000000E-02 0. -1.
         23    2    1    2    0    0  0.00000000000E+00  0.00000000000E+00 -0.12103289010E+02  0.88010253249E+02  0.87174050451E+02 0.  0.
    9000005    2    3    3    0    0  0.20872657421E+02 -0.24050651591E+01  0.30739499326E+02  0.40292786021E+02  0.15399338308E+02 0.  0.
         22    1    3    3    0    0 -0.20872657421E+02  0.24050651591E+01 -0.42842788336E+02  0.47717467228E+02  0.00000000000E+00 0. -1.
         22    1    4    4    0    0 -0.15243140266E+01 -0.19318888556E+01  0.80087264039E+01  0.83782710874E+01  0.00000000000E+00 0. -1.
         22    1    4    4    0    0  0.22396971447E+02 -0.47317630352E+00  0.22730772922E+02  0.31914514934E+02  0.00000000000E+00 0. -1.
<mgrwt>
<rscale>  0 0.87174050E+02</rscale>
<asrwt>0</asrwt>
<pdfrwt beam="2">  1        1 0.77010417E-02 0.87174050E+02</pdfrwt>
<pdfrwt beam="1">  1       -1 0.58389973E-02 0.87174050E+02</pdfrwt>
<totfact> 0.10625839E+05</totfact>
</mgrwt>
</event>
<event>
 7    1  0.2787125E-009  0.9016502E+02  0.7818608E-02  0.1302453E+00
         -1   -1    0    0    0  501 -0.00000000000E+00  0.00000000000E+00  0.14640268931E+02  0.14640269799E+02  0.50400000000E-02 0.  1.
          1   -1    0    0  501    0  0.00000000000E+00 -0.00000000000E+00 -0.13882480636E+03  0.13882480645E+03  0.50400000000E-02 0. -1.
         23    2    1    2    0    0  0.00000000000E+00  0.71054273576E-14 -0.12418453742E+03  0.15346507625E+03  0.90165017007E+02 0.  0.
    9000005    2    3    3    0    0  0.22458636954E+02  0.37705922299E+02 -0.52564515269E+02  0.69467727932E+02  0.11688028416E+02 0.  0.
         22    1    3    3    0    0 -0.22458636954E+02 -0.37705922299E+02 -0.71620022156E+02  0.83997348314E+02  0.00000000000E+00 0. -1.
         22    1    4    4    0    0  0.45683536401E+01  0.12161951317E+02 -0.86555628096E+01  0.15610947517E+02  0.00000000000E+00 0.  1.
         22    1    4    4    0    0  0.17890283313E+02  0.25543970982E+02 -0.43908952460E+02  0.53856780415E+02  0.00000000000E+00 0.  1.
<mgrwt>
<rscale>  0 0.90165017E+02</rscale>
<asrwt>0</asrwt>
<pdfrwt beam="2">  1        1 0.21357662E-01 0.90165017E+02</pdfrwt>
<pdfrwt beam="1">  1       -1 0.22523492E-02 0.90165017E+02</pdfrwt>
<totfact> 0.11394203E+05</totfact>
</mgrwt>
</event>
<event>
 6    1  0.2787125E-009  0.4073842E+03  0.7818608E-02  0.1041252E+00
          1   -1    0    0  501    0  0.00000000000E+00  0.00000000000E+00  0.53136990047E+03  0.53136990049E+03  0.50400000000E-02 0. -1.
         -1   -1    0    0    0  501 -0.00000000000E+00 -0.00000000000E+00 -0.78082076312E+02  0.78082076474E+02  0.50400000000E-02 0.  1.
    9000005    2    1    2    0    0 -0.14582152606E+03 -0.34569523498E+02  0.20433416097E+02  0.15138876299E+03  0.64856495037E+01 0.  0.
         22    1    1    2    0    0  0.14582152606E+03  0.34569523498E+02  0.43285440806E+03  0.45806321397E+03  0.00000000000E+00 0. -1.
         22    1    3    3    0    0 -0.95433537059E+00  0.15889321953E+00 -0.22005051815E+00  0.99218208274E+00  0.00000000000E+00 0.  1.
         22    1    3    3    0    0 -0.14486719069E+03 -0.34728416718E+02  0.20653466615E+02  0.15039658091E+03  0.00000000000E+00 0.  1.
<mgrwt>
<rscale>  0 0.40738417E+03</rscale>
<asrwt>0</asrwt>
<pdfrwt beam="1">  1        1 0.81749216E-01 0.40738417E+03</pdfrwt>
<pdfrwt beam="2">  1       -1 0.12012627E-01 0.40738417E+03</pdfrwt>
<totfact> 0.19097452E+03</totfact>
</mgrwt>
</event>
<event>
 7    1  0.2787125E-009  0.8927052E+02  0.7818608E-02  0.1304628E+00
         -1   -1    0    0    0  501 -0.00000000000E+00  0.00000000000E+00  0.14490901612E+03  0.14490901621E+03  0.50400000000E-02 0.  1.
          1   -1    0    0  501    0  0.00000000000E+00 -0.00000000000E+00 -0.13748670813E+02  0.13748671737E+02  0.50400000000E-02 0. -1.
         23    2    1    2    0    0  0.88817841970E-15  0.00000000000E+00  0.13116034530E+03  0.15865768794E+03  0.89270520121E+02 0.  0.
    9000005    2    3    3    0    0  0.50621840283E+01 -0.32577101811E+02  0.17367783133E+02  0.40185579515E+02  0.15044854286E+02 0.  0.
         22    1    3    3    0    0 -0.50621840283E+01  0.32577101811E+02  0.11379256217E+03  0.11847210843E+03  0.00000000000E+00 0.  1.
         22    1    4    4    0    0  0.15196481208E+01 -0.32050529269E+02  0.17600137129E+02  0.36596592516E+02  0.00000000000E+00 0. -1.
         22    1    4    4    0    0  0.35425359074E+01 -0.52657254194E+00 -0.23235399651E+00  0.35889869987E+01  0.00000000000E+00 0. -1.
<mgrwt>
<rscale>  0 0.89270520E+02</rscale>
<asrwt>0</asrwt>
<pdfrwt beam="2">  1        1 0.21151802E-02 0.89270520E+02</pdfrwt>
<pdfrwt beam="1">  1       -1 0.22293695E-01 0.89270520E+02</pdfrwt>
<totfact> 0.79630830E+04</totfact>
</mgrwt>
</event>
<event>
 7    1  0.2787125E-009  0.9030202E+02  0.7818608E-02  0.1302122E+00
          1   -1    0    0  501    0  0.00000000000E+00  0.00000000000E+00  0.71713603380E+02  0.71713603557E+02  0.50400000000E-02 0.  1.
         -1   -1    0    0    0  501 -0.00000000000E+00 -0.00000000000E+00 -0.28427154897E+02  0.28427155343E+02  0.50400000000E-02 0. -1.
         23    2    1    2    0    0  0.35527136788E-14  0.00000000000E+00  0.43286448484E+02  0.10014075890E+03  0.90302020857E+02 0.  0.
    9000005    2    3    3    0    0 -0.21182494364E+02  0.35934158723E+02  0.59606260317E+01  0.44165953387E+02  0.13234067602E+02 0.  0.
         22    1    3    3    0    0  0.21182494364E+02 -0.35934158723E+02  0.37325822452E+02  0.55974805514E+02  0.00000000000E+00 0.  1.
         22    1    4    4    0    0 -0.69400976948E+00 -0.10870518588E+01  0.85304963128E+00  0.15462939492E+01  0.00000000000E+00 0.  1.
         22    1    4    4    0    0 -0.20488484595E+02  0.37021210582E+02  0.51075764004E+01  0.42619659438E+02  0.00000000000E+00 0.  1.
<mgrwt>
<rscale>  0 0.90302021E+02</rscale>
<asrwt>0</asrwt>
<pdfrwt beam="1">  1        1 0.11032862E-01 0.90302021E+02</pdfrwt>
<pdfrwt beam="2">  1       -1 0.43734086E-02 0.90302021E+02</pdfrwt>
<totfact> 0.10169928E+05</totfact>
</mgrwt>
</event>
<event>
 7    1  0.2787125E-009  0.9121471E+02  0.7818608E-02  0.1299936E+00
         -1   -1    0    0    0  501 -0.00000000000E+00  0.00000000000E+00  0.95290663002E+00  0.95291995840E+00  0.50400000000E-02 0.  1.
          1   -1    0    0  501    0  0.00000000000E+00 -0.00000000000E+00 -0.21828120368E+04  0.21828120368E+04  0.50400000000E-02 0. -1.
         23    2    1    2    0    0 -0.44408920985E-15  0.17763568394E-14 -0.21818591301E+04  0.21837649567E+04  0.91214705422E+02 0.  0.
    9000005    2    3    3    0    0  0.22583610866E+01 -0.13458055003E+02 -0.21318721120E+04  0.21319487293E+04  0.11851715519E+02 0.  0.
         22    1    3    3    0    0 -0.22583610866E+01  0.13458055003E+02 -0.49987018181E+02  0.51816227438E+02  0.00000000000E+00 0.  1.
         22    1    4    4    0    0 -0.43566442692E+01 -0.20259708875E+01 -0.64995876225E+03  0.64997652075E+03  0.00000000000E+00 0. -1.
         22    1    4    4    0    0  0.66150053559E+01 -0.11432084116E+02 -0.14819133497E+04  0.14819722086E+04  0.00000000000E+00 0. -1.
<mgrwt>
<rscale>  0 0.91214705E+02</rscale>
<asrwt>0</asrwt>
<pdfrwt beam="2">  1        1 0.33581324E+00 0.91214705E+02</pdfrwt>
<pdfrwt beam="1">  1       -1 0.14660379E-03 0.91214705E+02</pdfrwt>
<totfact> 0.68984796E+04</totfact>
</mgrwt>
</event>
<event>
 7    1  0.2787125E-009  0.8832788E+02  0.7818608E-02  0.1306952E+00
         -1   -1    0    0    0  501 -0.00000000000E+00  0.00000000000E+00  0.19736434474E+03  0.19736434480E+03  0.50400000000E-02 0.  1.
          1   -1    0    0  501    0  0.00000000000E+00 -0.00000000000E+00 -0.98825022367E+01  0.98825035219E+01  0.50400000000E-02 0. -1.
         23    2    1    2    0    0  0.00000000000E+00  0.00000000000E+00  0.18748184250E+03  0.20724684832E+03  0.88327882758E+02 0.  0.
    9000005    2    3    3    0    0 -0.83513704861E+01  0.39515808075E+02  0.60773581724E+02  0.74257270439E+02  0.13764792070E+02 0.  0.
         22    1    3    3    0    0  0.83513704861E+01 -0.39515808075E+02  0.12670826078E+03  0.13298957788E+03  0.00000000000E+00 0. -1.
         22    1    4    4    0    0 -0.25554522831E+01  0.27293451546E+02  0.29979017069E+02  0.40622706681E+02  0.00000000000E+00 0. -1.
         22    1    4    4    0    0 -0.57959182031E+01  0.12222356529E+02  0.30794564654E+02  0.33634563758E+02  0.00000000000E+00 0. -1.
<mgrwt>
<rscale>  0 0.88327883E+02</rscale>
<asrwt>0</asrwt>
<pdfrwt beam="2">  1        1 0.15203851E-02 0.88327883E+02</pdfrwt>
<pdfrwt beam="1">  1       -1 0.30363744E-01 0.88327883E+02</pdfrwt>
<totfact> 0.75684932E+04</totfact>
</mgrwt>
</event>
<event>
 7    1  0.2787125E-009  0.9319218E+02  0.7818608E-02  0.1295300E+00
         -1   -1    0    0    0  501 -0.00000000000E+00  0.00000000000E+00  0.73457701858E+01  0.73457719148E+01  0.50400000000E-02 0.  1.
          1   -1    0    0  501    0  0.00000000000E+00 -0.00000000000E+00 -0.29557082375E+03  0.29557082379E+03  0.50400000000E-02 0. -1.
         23    2    1    2    0    0  0.00000000000E+00  0.00000000000E+00 -0.28822505356E+03  0.30291659571E+03  0.93192180214E+02 0.  0.
    9000005    2    3    3    0    0  0.35887789681E+02  0.19914680397E+02 -0.21467467646E+03  0.21868960529E+03  0.74430372104E+01 0.  0.
         22    1    3    3    0    0 -0.35887789681E+02 -0.19914680397E+02 -0.73550377102E+02  0.84226990421E+02  0.00000000000E+00 0.  1.
         22    1    4    4    0    0  0.14866111336E+02  0.43663821537E+01 -0.73786794568E+02  0.75396005279E+02  0.00000000000E+00 0.  1.
         22    1    4    4    0    0  0.21021678346E+02  0.15548298243E+02 -0.14088788189E+03  0.14329360001E+03  0.00000000000E+00 0.  1.
<mgrwt>
<rscale>  0 0.93192180E+02</rscale>
<asrwt>0</asrwt>
<pdfrwt beam="2">  1        1 0.45472425E-01 0.93192180E+02</pdfrwt>
<pdfrwt beam="1">  1       -1 0.11301189E-02 0.93192180E+02</pdfrwt>
<totfact> 0.12051489E+05</totfact>
</mgrwt>
</event>
<event>
 7    1  0.2787125E-009  0.8786721E+02  0.7818608E-02  0.1308100E+00
          1   -1    0    0  501    0  0.00000000000E+00  0.00000000000E+00  0.28499884619E+01  0.28499929184E+01  0.50400000000E-02 0. -1.
         -1   -1    0    0    0  501 -0.00000000000E+00 -0.00000000000E+00 -0.67725194786E+03  0.67725194788E+03  0.50400000000E-02 0.  1.
         23    2    1    2    0    0  0.00000000000E+00  0.00000000000E+00 -0.67440195940E+03  0.68010194079E+03  0.87867212520E+02 0.  0.
    9000005    2    3    3    0    0  0.35374292986E+02  0.22328066367E+02 -0.42578457385E+03  0.42798988724E+03  0.11530702462E+02 0.  0.
         22    1    3    3    0    0 -0.35374292986E+02 -0.22328066367E+02 -0.24861738555E+03  0.25211205356E+03  0.00000000000E+00 0. -1.
         22    1    4    4    0    0  0.22146037728E+02  0.73062002711E+01 -0.21829137226E+03  0.21953348435E+03  0.00000000000E+00 0.  1.
         22    1    4    4    0    0  0.13228255258E+02  0.15021866096E+02 -0.20749320159E+03  0.20845640288E+03  0.00000000000E+00 0.  1.
<mgrwt>
<rscale>  0 0.87867213E+02</rscale>
<asrwt>0</asrwt>
<pdfrwt beam="1">  1        1 0.43846065E-03 0.87867213E+02</pdfrwt>
<pdfrwt beam="2">  1       -1 0.10419248E+00 0.87867213E+02</pdfrwt>
<totfact> 0.41735359E+04</totfact>
</mgrwt>
</event>
<event>
 7    1  0.2787125E-009  0.9061764E+02  0.7818608E-02  0.1301363E+00
          1   -1    0    0  501    0  0.00000000000E+00  0.00000000000E+00  0.18960748682E+03  0.18960748688E+03  0.50400000000E-02 0. -1.
         -1   -1    0    0    0  501 -0.00000000000E+00 -0.00000000000E+00 -0.10827045215E+02  0.10827046388E+02  0.50400000000E-02 0.  1.
         23    2    1    2    0    0  0.00000000000E+00  0.00000000000E+00  0.17878044160E+03  0.20043453327E+03  0.90617635305E+02 0.  0.
    9000005    2    3    3    0    0  0.36923437940E+02  0.22249629824E+02  0.11741390492E+03  0.12543961264E+03  0.95228700147E+01 0.  0.
         22    1    3    3    0    0 -0.36923437940E+02 -0.22249629824E+02  0.61366536683E+02  0.74994920636E+02  0.00000000000E+00 0.  1.
         22    1    4    4    0    0  0.11859440609E+02  0.22682071593E+01  0.30473473028E+02  0.32778402244E+02  0.00000000000E+00 0.  1.
         22    1    4    4    0    0  0.25063997331E+02  0.19981422665E+02  0.86940431891E+02  0.92661210392E+02  0.00000000000E+00 0.  1.
<mgrwt>
<rscale>  0 0.90617635E+02</rscale>
<asrwt>0</asrwt>
<pdfrwt beam="1">  1        1 0.29170381E-01 0.90617635E+02</pdfrwt>
<pdfrwt beam="2">  1       -1 0.16656994E-02 0.90617635E+02</pdfrwt>
<totfact> 0.11914059E+05</totfact>
</mgrwt>
</event>
<event>
 7    1  0.2787125E-009  0.9087199E+02  0.7818608E-02  0.1300754E+00
         -1   -1    0    0    0  501 -0.00000000000E+00  0.00000000000E+00  0.66467277821E+01  0.66467296930E+01  0.50400000000E-02 0.  1.
          1   -1    0    0  501    0  0.00000000000E+00 -0.00000000000E+00 -0.31059332173E+03  0.31059332177E+03  0.50400000000E-02 0. -1.
         23    2    1    2    0    0  0.00000000000E+00  0.00000000000E+00 -0.30394659395E+03  0.31724005146E+03  0.90871988425E+02 0.  0.
    9000005    2    3    3    0    0  0.43628137495E+02  0.65006425218E+01 -0.16814086831E+03  0.17445045853E+03  0.14694834144E+02 0.  0.
         22    1    3    3    0    0 -0.43628137495E+02 -0.65006425218E+01 -0.13580572564E+03  0.14278959294E+03  0.00000000000E+00 0. -1.
         22    1    4    4    0    0  0.27647671126E+02 -0.21018156035E-01 -0.80199935894E+02  0.84831738623E+02  0.00000000000E+00 0.  1.
         22    1    4    4    0    0  0.15980466369E+02  0.65216606778E+01 -0.87940932415E+02  0.89618719905E+02  0.00000000000E+00 0.  1.
<mgrwt>
<rscale>  0 0.90871988E+02</rscale>
<asrwt>0</asrwt>
<pdfrwt beam="2">  1        1 0.47783577E-01 0.90871988E+02</pdfrwt>
<pdfrwt beam="1">  1       -1 0.10225739E-02 0.90871988E+02</pdfrwt>
<totfact> 0.13012299E+05</totfact>
</mgrwt>
</event>
<event>
 7    1  0.2787125E-009  0.1003259E+03  0.7818608E-02  0.1279612E+00
         -1   -1    0    0    0  501 -0.00000000000E+00  0.00000000000E+00  0.42592464535E+02  0.42592464833E+02  0.50400000000E-02 0.  1.
          1   -1    0    0  501    0  0.00000000000E+00 -0.00000000000E+00 -0.59079005402E+02  0.59079005617E+02  0.50400000000E-02 0. -1.
         23    2    1    2    0    0 -0.17763568394E-14  0.00000000000E+00 -0.16486540867E+02  0.10167147045E+03  0.10032587838E+03 0.  0.
    9000005    2    3    3    0    0  0.97386922211E+01  0.48216024860E+02 -0.15253524168E+02  0.52466313101E+02  0.10020819897E+02 0.  0.
         22    1    3    3    0    0 -0.97386922211E+01 -0.48216024860E+02 -0.12330166987E+01  0.49205157348E+02  0.00000000000E+00 0. -1.
         22    1    4    4    0    0  0.96170041937E+00  0.59790422093E+01  0.14145477400E+01  0.62189033395E+01  0.00000000000E+00 0. -1.
         22    1    4    4    0    0  0.87769918017E+01  0.42236982651E+02 -0.16668071908E+02  0.46247409762E+02  0.00000000000E+00 0. -1.
<mgrwt>
<rscale>  0 0.10032588E+03</rscale>
<asrwt>0</asrwt>
<pdfrwt beam="2">  1        1 0.90890778E-02 0.10032588E+03</pdfrwt>
<pdfrwt beam="1">  1       -1 0.65526869E-02 0.10032588E+03</pdfrwt>
<totfact> 0.73576650E+04</totfact>
</mgrwt>
</event>
<event>
 7    1  0.2787125E-009  0.9060017E+02  0.7818608E-02  0.1301405E+00
          1   -1    0    0  501    0  0.00000000000E+00  0.00000000000E+00  0.60986943533E+02  0.60986943741E+02  0.50400000000E-02 0. -1.
         -1   -1    0    0    0  501 -0.00000000000E+00 -0.00000000000E+00 -0.33648150993E+02  0.33648151370E+02  0.50400000000E-02 0.  1.
         23    2    1    2    0    0  0.00000000000E+00 -0.35527136788E-14  0.27338792540E+02  0.94635095112E+02  0.90600174664E+02 0.  0.
    9000005    2    3    3    0    0 -0.18575218847E+02 -0.26371858291E+02 -0.17962377210E+02  0.39022959335E+02  0.12634504156E+02 0.  0.
         22    1    3    3    0    0  0.18575218847E+02  0.26371858291E+02  0.45301169750E+02  0.55612135777E+02  0.00000000000E+00 0. -1.
         22    1    4    4    0    0 -0.14657528589E+02 -0.14659684947E+02 -0.16677679938E+02  0.26606287137E+02  0.00000000000E+00 0.  1.
         22    1    4    4    0    0 -0.39176902581E+01 -0.11712173343E+02 -0.12846972721E+01  0.12416672198E+02  0.00000000000E+00 0.  1.
<mgrwt>
<rscale>  0 0.90600175E+02</rscale>
<asrwt>0</asrwt>
<pdfrwt beam="1">  1        1 0.93826067E-02 0.90600175E+02</pdfrwt>
<pdfrwt beam="2">  1       -1 0.51766387E-02 0.90600175E+02</pdfrwt>
<totfact> 0.98322204E+04</totfact>
</mgrwt>
</event>
<event>
 7    1  0.2787125E-009  0.8994348E+02  0.7818608E-02  0.1302989E+00
          1   -1    0    0  501    0  0.00000000000E+00  0.00000000000E+00  0.94224374831E+02  0.94224374966E+02  0.50400000000E-02 0. -1.
         -1   -1    0    0    0  501 -0.00000000000E+00 -0.00000000000E+00 -0.21464271376E+02  0.21464271968E+02  0.50400000000E-02 0.  1.
         23    2    1    2    0    0  0.71054273576E-14  0.00000000000E+00  0.72760103455E+02  0.11568864693E+03  0.89943484337E+02 0.  0.
    9000005    2    3    3    0    0  0.36234291234E+02 -0.45218528388E+01  0.29584750331E+01  0.36912772806E+02  0.45198680676E+01 0.  0.
         22    1    3    3    0    0 -0.36234291234E+02  0.45218528388E+01  0.69801628422E+02  0.78775874128E+02  0.00000000000E+00 0. -1.
         22    1    4    4    0    0  0.34319839418E+01 -0.17513680683E+01  0.70178939844E+00  0.39164157398E+01  0.00000000000E+00 0.  1.
         22    1    4    4    0    0  0.32802307292E+02 -0.27704847705E+01  0.22566856347E+01  0.32996357066E+02  0.00000000000E+00 0.  1.
<mgrwt>
<rscale>  0 0.89943484E+02</rscale>
<asrwt>0</asrwt>
<pdfrwt beam="1">  1        1 0.14496058E-01 0.89943484E+02</pdfrwt>
<pdfrwt beam="2">  1       -1 0.33021957E-02 0.89943484E+02</pdfrwt>
<totfact> 0.10734368E+05</totfact>
</mgrwt>
</event>
<event>
 7    1  0.2787125E-009  0.8842993E+02  0.7818608E-02  0.1306699E+00
          1   -1    0    0  501    0  0.00000000000E+00  0.00000000000E+00  0.12105178825E+03  0.12105178836E+03  0.50400000000E-02 0. -1.
         -1   -1    0    0    0  501 -0.00000000000E+00 -0.00000000000E+00 -0.16149808205E+02  0.16149808992E+02  0.50400000000E-02 0.  1.
         23    2    1    2    0    0  0.00000000000E+00  0.00000000000E+00  0.10490198005E+03  0.13720159735E+03  0.88429932135E+02 0.  0.
    9000005    2    3    3    0    0  0.15351866523E+02  0.12174946276E+02  0.11328241018E+03  0.11589101942E+03  0.14625826545E+02 0.  0.
         22    1    3    3    0    0 -0.15351866523E+02 -0.12174946276E+02 -0.83804301353E+01  0.21310577933E+02  0.00000000000E+00 0.  1.
         22    1    4    4    0    0  0.15625692547E+01  0.10415852118E+02  0.46704152302E+02  0.47877024137E+02  0.00000000000E+00 0.  1.
         22    1    4    4    0    0  0.13789297269E+02  0.17590941573E+01  0.66578257880E+02  0.68013995279E+02  0.00000000000E+00 0.  1.
<mgrwt>
<rscale>  0 0.88429932E+02</rscale>
<asrwt>0</asrwt>
<pdfrwt beam="1">  1        1 0.18623352E-01 0.88429932E+02</pdfrwt>
<pdfrwt beam="2">  1       -1 0.24845859E-02 0.88429932E+02</pdfrwt>
<totfact> 0.11720846E+05</totfact>
</mgrwt>
</event>
<event>
 7    1  0.2787125E-009  0.9381287E+02  0.7818608E-02  0.1293872E+00
          1   -1    0    0  501    0  0.00000000000E+00  0.00000000000E+00  0.19162277880E+03  0.19162277887E+03  0.50400000000E-02 0. -1.
         -1   -1    0    0    0  501 -0.00000000000E+00 -0.00000000000E+00 -0.11482004499E+02  0.11482005605E+02  0.50400000000E-02 0.  1.
         23    2    1    2    0    0 -0.44408920985E-15  0.00000000000E+00  0.18014077430E+03  0.20310478447E+03  0.93812871768E+02 0.  0.
    9000005    2    3    3    0    0 -0.30830779456E+01  0.38691239635E+02  0.14631454784E+03  0.15161953424E+03  0.86034215165E+01 0.  0.
         22    1    3    3    0    0  0.30830779456E+01 -0.38691239635E+02  0.33826226467E+02  0.51485250229E+02  0.00000000000E+00 0.  1.
         22    1    4    4    0    0  0.26319563987E+01  0.89857593455E+01  0.29404365921E+02  0.30859160726E+02  0.00000000000E+00 0.  1.
         22    1    4    4    0    0 -0.57150343444E+01  0.29705480290E+02  0.11691018192E+03  0.12076037352E+03  0.00000000000E+00 0.  1.
<mgrwt>
<rscale>  0 0.93812872E+02</rscale>
<asrwt>0</asrwt>
<pdfrwt beam="1">  1        1 0.29480427E-01 0.93812872E+02</pdfrwt>
<pdfrwt beam="2">  1       -1 0.17664623E-02 0.93812872E+02</pdfrwt>
<totfact> 0.10876251E+05</totfact>
</mgrwt>
</event>
<event>
 7    1  0.2787125E-009  0.8909424E+02  0.7818608E-02  0.1305060E+00
          1   -1    0    0  501    0  0.00000000000E+00  0.00000000000E+00  0.30883472680E+03  0.30883472684E+03  0.50400000000E-02 0. -1.
         -1   -1    0    0    0  501 -0.00000000000E+00 -0.00000000000E+00 -0.64255908847E+01  0.64255928613E+01  0.50400000000E-02 0.  1.
         23    2    1    2    0    0  0.00000000000E+00 -0.35527136788E-14  0.30240913592E+03  0.31526031971E+03  0.89094240521E+02 0.  0.
    9000005    2    3    3    0    0  0.17609072203E+02 -0.29322855595E+02  0.25207549346E+03  0.25440487749E+03  0.31429291082E+01 0.  0.
         22    1    3    3    0    0 -0.17609072203E+02  0.29322855595E+02  0.50333642455E+02  0.60855442212E+02  0.00000000000E+00 0.  1.
         22    1    4    4    0    0  0.74258827319E+01 -0.11410914306E+02  0.11128404966E+03  0.11211374764E+03  0.00000000000E+00 0. -1.
         22    1    4    4    0    0  0.10183189471E+02 -0.17911941289E+02  0.14079144380E+03  0.14229112986E+03  0.00000000000E+00 0. -1.
<mgrwt>
<rscale>  0 0.89094241E+02</rscale>
<asrwt>0</asrwt>
<pdfrwt beam="1">  1        1 0.47513038E-01 0.89094241E+02</pdfrwt>
<pdfrwt beam="2">  1       -1 0.98855253E-03 0.89094241E+02</pdfrwt>
<totfact> 0.13699294E+05</totfact>
</mgrwt>
</event>
<event>
 7    1  0.2787125E-009  0.9254787E+02  0.7818608E-02  0.1296796E+00
          1   -1    0    0  501    0  0.00000000000E+00  0.00000000000E+00  0.96081368729E+03  0.96081368730E+03  0.50400000000E-02 0. -1.
         -1   -1    0    0    0  501 -0.00000000000E+00 -0.00000000000E+00 -0.22286048956E+01  0.22286105946E+01  0.50400000000E-02 0.  1.
         23    2    1    2    0    0  0.00000000000E+00  0.00000000000E+00  0.95858508240E+03  0.96304229790E+03  0.92547865190E+02 0.  0.
    9000005    2    3    3    0    0  0.19273678402E+02 -0.71502468609E+01  0.90963698124E+03  0.90995258782E+03  0.12315589144E+02 0.  0.
         22    1    3    3    0    0 -0.19273678402E+02  0.71502468609E+01  0.48948101159E+02  0.53089710080E+02  0.00000000000E+00 0.  1.
         22    1    4    4    0    0  0.41689824440E+01 -0.76411318129E+01  0.28547078330E+03  0.28560345836E+03  0.00000000000E+00 0.  1.
         22    1    4    4    0    0  0.15104695958E+02  0.49088495203E+00  0.62416619794E+03  0.62434912946E+03  0.00000000000E+00 0.  1.
<mgrwt>
<rscale>  0 0.92547865E+02</rscale>
<asrwt>0</asrwt>
<pdfrwt beam="1">  1        1 0.14781803E+00 0.92547865E+02</pdfrwt>
<pdfrwt beam="2">  1       -1 0.34286147E-03 0.92547865E+02</pdfrwt>
<totfact> 0.13204719E+05</totfact>
</mgrwt>
</event>
<event>
 7    1  0.2787125E-009  0.8599152E+02  0.7818608E-02  0.1312860E+00
          1   -1    0    0  501    0  0.00000000000E+00  0.00000000000E+00  0.20707360939E+03  0.20707360945E+03  0.50400000000E-02 0. -1.
         -1   -1    0    0    0  501 -0.00000000000E+00 -0.00000000000E+00 -0.89274293577E+01  0.89274307804E+01  0.50400000000E-02 0.  1.
         23    2    1    2    0    0  0.00000000000E+00 -0.88817841970E-15  0.19814618003E+03  0.21600104023E+03  0.85991515394E+02 0.  0.
    9000005    2    3    3    0    0  0.39338767319E+02  0.72460307301E+01  0.69069231248E+02  0.80868134235E+02  0.13002032688E+02 0.  0.
         22    1    3    3    0    0 -0.39338767319E+02 -0.72460307301E+01  0.12907694878E+03  0.13513290599E+03  0.00000000000E+00 0. -1.
         22    1    4    4    0    0  0.26835817910E+02  0.10994815065E+02  0.46946304055E+02  0.55181541711E+02  0.00000000000E+00 0.  1.
         22    1    4    4    0    0  0.12502949409E+02 -0.37487843349E+01  0.22122927193E+02  0.25686592524E+02  0.00000000000E+00 0.  1.
<mgrwt>
<rscale>  0 0.85991515E+02</rscale>
<asrwt>0</asrwt>
<pdfrwt beam="1">  1        1 0.31857474E-01 0.85991515E+02</pdfrwt>
<pdfrwt beam="2">  1       -1 0.13734510E-02 0.85991515E+02</pdfrwt>
<totfact> 0.13937999E+05</totfact>
</mgrwt>
</event>
<event>
 7    1  0.2787125E-009  0.9132962E+02  0.7818608E-02  0.1299663E+00
         -1   -1    0    0    0  501 -0.00000000000E+00  0.00000000000E+00  0.49377741333E+02  0.49377741590E+02  0.50400000000E-02 0.  1.
          1   -1    0    0  501    0  0.00000000000E+00 -0.00000000000E+00 -0.42231066936E+02  0.42231067237E+02  0.50400000000E-02 0. -1.
         23    2    1    2    0    0  0.00000000000E+00  0.00000000000E+00  0.71466743962E+01  0.91608808827E+02  0.91329616772E+02 0.  0.
    9000005    2    3    3    0    0  0.16490278703E+02  0.36892966410E+02 -0.15493877645E+02  0.45288026678E+02  0.13338847539E+02 0.  0.
         22    1    3    3    0    0 -0.16490278703E+02 -0.36892966410E+02  0.22640552041E+02  0.46320782150E+02  0.00000000000E+00 0.  1.
         22    1    4    4    0    0  0.12262039261E+02  0.14460724834E+02 -0.11321114350E+02  0.22082522494E+02  0.00000000000E+00 0. -1.
         22    1    4    4    0    0  0.42282394413E+01  0.22432241576E+02 -0.41727632944E+01  0.23205504183E+02  0.00000000000E+00 0. -1.
<mgrwt>
<rscale>  0 0.91329617E+02</rscale>
<asrwt>0</asrwt>
<pdfrwt beam="2">  1        1 0.64970873E-02 0.91329617E+02</pdfrwt>
<pdfrwt beam="1">  1       -1 0.75965756E-02 0.91329617E+02</pdfrwt>
<totfact> 0.90981770E+04</totfact>
</mgrwt>
</event>
<event>
 7    1  0.2787125E-009  0.9588083E+02  0.7818608E-02  0.1289204E+00
          1   -1    0    0  501    0  0.00000000000E+00  0.00000000000E+00  0.11844877265E+03  0.11844877276E+03  0.50400000000E-02 0. -1.
         -1   -1    0    0    0  501 -0.00000000000E+00 -0.00000000000E+00 -0.19403185430E+02  0.19403186084E+02  0.50400000000E-02 0.  1.
         23    2    1    2    0    0  0.00000000000E+00 -0.35527136788E-14  0.99045587220E+02  0.13785195884E+03  0.95880833375E+02 0.  0.
    9000005    2    3    3    0    0  0.17689043258E+02 -0.28963545791E+02  0.43027352536E+01  0.37214007576E+02  0.14648535524E+02 0.  0.
         22    1    3    3    0    0 -0.17689043258E+02  0.28963545791E+02  0.94742851967E+02  0.10063795127E+03  0.00000000000E+00 0. -1.
         22    1    4    4    0    0  0.34899560397E+00 -0.95432239685E+01 -0.32799257453E+01  0.10097169630E+02  0.00000000000E+00 0.  1.
         22    1    4    4    0    0  0.17340047654E+02 -0.19420321823E+02  0.75826609988E+01  0.27116837946E+02  0.00000000000E+00 0.  1.
<mgrwt>
<rscale>  0 0.95880833E+02</rscale>
<asrwt>0</asrwt>
<pdfrwt beam="1">  1        1 0.18222888E-01 0.95880833E+02</pdfrwt>
<pdfrwt beam="2">  1       -1 0.29851056E-02 0.95880833E+02</pdfrwt>
<totfact> 0.93731389E+04</totfact>
</mgrwt>
</event>
<event>
 7    1  0.2787125E-009  0.8671005E+02  0.7818608E-02  0.1311020E+00
         -1   -1    0    0    0  501 -0.00000000000E+00  0.00000000000E+00  0.63869064297E+02  0.63869064496E+02  0.50400000000E-02 0.  1.
          1   -1    0    0  501    0  0.00000000000E+00 -0.00000000000E+00 -0.29429868862E+02  0.29429869294E+02  0.50400000000E-02 0. -1.
         23    2    1    2    0    0  0.71054273576E-14  0.00000000000E+00  0.34439195434E+02  0.93298933790E+02  0.86710050537E+02 0.  0.
    9000005    2    3    3    0    0  0.37392937562E+02  0.20911560574E+02  0.23459671967E+02  0.49071396206E+02  0.47032511870E+01 0.  0.
         22    1    3    3    0    0 -0.37392937562E+02 -0.20911560574E+02  0.10979523467E+02  0.44227537583E+02  0.00000000000E+00 0.  1.
         22    1    4    4    0    0  0.20509394964E+02  0.13091984496E+02  0.11174401933E+02  0.26775036851E+02  0.00000000000E+00 0.  1.
         22    1    4    4    0    0  0.16883542598E+02  0.78195760781E+01  0.12285270034E+02  0.22296359355E+02  0.00000000000E+00 0.  1.
<mgrwt>
<rscale>  0 0.86710051E+02</rscale>
<asrwt>0</asrwt>
<pdfrwt beam="2">  1        1 0.45276723E-02 0.86710051E+02</pdfrwt>
<pdfrwt beam="1">  1       -1 0.98260097E-02 0.86710051E+02</pdfrwt>
<totfact> 0.99757674E+04</totfact>
</mgrwt>
</event>
<event>
 7    1  0.2787125E-009  0.9175979E+02  0.7818608E-02  0.1298645E+00
         -1   -1    0    0    0  501 -0.00000000000E+00  0.00000000000E+00  0.44298926583E+01  0.44298955254E+01  0.50400000000E-02 0.  1.
          1   -1    0    0  501    0  0.00000000000E+00 -0.00000000000E+00 -0.47517274605E+03  0.47517274608E+03  0.50400000000E-02 0. -1.
         23    2    1    2    0    0  0.00000000000E+00  0.00000000000E+00 -0.47074285339E+03  0.47960264160E+03  0.91759794095E+02 0.  0.
    9000005    2    3    3    0    0 -0.23091744271E+02  0.22432792377E+02 -0.40613253360E+03  0.40741571584E+03  0.27334664114E+01 0.  0.
         22    1    3    3    0    0  0.23091744271E+02 -0.22432792377E+02 -0.64610319795E+02  0.72186925764E+02  0.00000000000E+00 0.  1.
         22    1    4    4    0    0 -0.93889671869E+01  0.10488973357E+02 -0.18913661668E+03  0.18965977707E+03  0.00000000000E+00 0.  1.
         22    1    4    4    0    0 -0.13702777084E+02  0.11943819020E+02 -0.21699591692E+03  0.21775593877E+03  0.00000000000E+00 0.  1.
<mgrwt>
<rscale>  0 0.91759794E+02</rscale>
<asrwt>0</asrwt>
<pdfrwt beam="2">  1        1 0.73103459E-01 0.91759794E+02</pdfrwt>
<pdfrwt beam="1">  1       -1 0.68152254E-03 0.91759794E+02</pdfrwt>
<totfact> 0.13606452E+05</totfact>
</mgrwt>
</event>
<event>
 7    1  0.2787125E-009  0.8945311E+02  0.7818608E-02  0.1304182E+00
         -1   -1    0    0    0  501 -0.00000000000E+00  0.00000000000E+00  0.36266266633E+01  0.36266301654E+01  0.50400000000E-02 0.  1.
          1   -1    0    0  501    0  0.00000000000E+00 -0.00000000000E+00 -0.55160450514E+03  0.55160450516E+03  0.50400000000E-02 0. -1.
         23    2    1    2    0    0  0.00000000000E+00  0.00000000000E+00 -0.54797787848E+03  0.55523113533E+03  0.89453106924E+02 0.  0.
    9000005    2    3    3    0    0  0.14351556404E+02  0.40973717512E+02 -0.32748119859E+03  0.33050107828E+03  0.10110124589E+02 0.  0.
         22    1    3    3    0    0 -0.14351556404E+02 -0.40973717512E+02 -0.22049667989E+03  0.22473005705E+03  0.00000000000E+00 0.  1.
         22    1    4    4    0    0  0.95004621091E+01  0.34637098264E+02 -0.24239761736E+03  0.24504406187E+03  0.00000000000E+00 0. -1.
         22    1    4    4    0    0  0.48510942949E+01  0.63366192479E+01 -0.85083581224E+02  0.85457016407E+02  0.00000000000E+00 0. -1.
<mgrwt>
<rscale>  0 0.89453107E+02</rscale>
<asrwt>0</asrwt>
<pdfrwt beam="2">  1        1 0.84862165E-01 0.89453107E+02</pdfrwt>
<pdfrwt beam="1">  1       -1 0.55794327E-03 0.89453107E+02</pdfrwt>
<totfact> 0.14798228E+05</totfact>
</mgrwt>
</event>
<event>
 7    1  0.4094482E-009  0.9026262E+02  0.7818608E-02  0.1302217E+00
         -1   -1    0    0    0  501 -0.00000000000E+00  0.00000000000E+00  0.95496590763E+02  0.95496590896E+02  0.50400000000E-02 0.  1.
          1   -1    0    0  501    0  0.00000000000E+00 -0.00000000000E+00 -0.21328875569E+02  0.21328876165E+02  0.50400000000E-02 0. -1.
         23    2    1    2    0    0  0.00000000000E+00 -0.17763568394E-14  0.74167715193E+02  0.11682546706E+03  0.90262615610E+02 0.  0.
    9000005    2    3    3    0    0 -0.24122205480E+01  0.99509732291E+01  0.93309194429E+02  0.95117475364E+02  0.15358635308E+02 0.  0.
         22    1    3    3    0    0  0.24122205480E+01 -0.99509732291E+01 -0.19141479235E+02  0.21707991696E+02  0.00000000000E+00 0. -1.
         22    1    4    4    0    0 -0.44797190564E+00 -0.37676853458E+00 -0.47010668187E+00  0.75075538575E+00  0.00000000000E+00 0. -1.
         22    1    4    4    0    0 -0.19642486423E+01  0.10327741764E+02  0.93779301110E+02  0.94366719978E+02  0.00000000000E+00 0. -1.
<mgrwt>
<rscale>  0 0.90262616E+02</rscale>
<asrwt>0</asrwt>
<pdfrwt beam="2">  1        1 0.32813655E-02 0.90262616E+02</pdfrwt>
<pdfrwt beam="1">  1       -1 0.14691783E-01 0.90262616E+02</pdfrwt>
<totfact> 0.84216502E+04</totfact>
</mgrwt>
</event>
<event>
 7    1  0.2787125E-009  0.9061935E+02  0.7818608E-02  0.1301359E+00
         -1   -1    0    0    0  501 -0.00000000000E+00  0.00000000000E+00  0.16893154904E+02  0.16893155656E+02  0.50400000000E-02 0.  1.
          1   -1    0    0  501    0  0.00000000000E+00 -0.00000000000E+00 -0.12152654756E+03  0.12152654766E+03  0.50400000000E-02 0. -1.
         23    2    1    2    0    0  0.00000000000E+00  0.71054273576E-14 -0.10463339265E+03  0.13841970332E+03  0.90619354491E+02 0.  0.
    9000005    2    3    3    0    0  0.44772493429E+01 -0.43353875047E+02 -0.33552404125E+02  0.55040382300E+02  0.20188159627E+01 0.  0.
         22    1    3    3    0    0 -0.44772493429E+01  0.43353875047E+02 -0.71080988528E+02  0.83379321018E+02  0.00000000000E+00 0. -1.
         22    1    4    4    0    0  0.22505039745E-01 -0.48136476886E+01 -0.42468534976E+01  0.64193048827E+01  0.00000000000E+00 0.  1.
         22    1    4    4    0    0  0.44547443031E+01 -0.38540227358E+02 -0.29305550627E+02  0.48621077417E+02  0.00000000000E+00 0.  1.
<mgrwt>
<rscale>  0 0.90619354E+02</rscale>
<asrwt>0</asrwt>
<pdfrwt beam="2">  1        1 0.18696391E-01 0.90619354E+02</pdfrwt>
<pdfrwt beam="1">  1       -1 0.25989471E-02 0.90619354E+02</pdfrwt>
<totfact> 0.10978499E+05</totfact>
</mgrwt>
</event>
<event>
 7    1  0.2787125E-009  0.8766215E+02  0.7818608E-02  0.1308614E+00
          1   -1    0    0  501    0  0.00000000000E+00  0.00000000000E+00  0.25930129394E+03  0.25930129399E+03  0.50400000000E-02 0. -1.
         -1   -1    0    0    0  501 -0.00000000000E+00 -0.00000000000E+00 -0.74089985585E+01  0.74090002728E+01  0.50400000000E-02 0.  1.
         23    2    1    2    0    0  0.00000000000E+00  0.00000000000E+00  0.25189229538E+03  0.26671029426E+03  0.87662150285E+02 0.  0.
    9000005    2    3    3    0    0  0.30061613406E+01 -0.43211706745E+02  0.14197158134E+03  0.14856270867E+03  0.62177080406E+01 0.  0.
         22    1    3    3    0    0 -0.30061613406E+01  0.43211706745E+02  0.10992071404E+03  0.11814758560E+03  0.00000000000E+00 0. -1.
         22    1    4    4    0    0  0.97270966013E-02 -0.34744598548E+00  0.15698329339E+00  0.38138836327E+00  0.00000000000E+00 0.  1.
         22    1    4    4    0    0  0.29964342440E+01 -0.42864260760E+02  0.14181459804E+03  0.14818132030E+03  0.00000000000E+00 0.  1.
<mgrwt>
<rscale>  0 0.87662150E+02</rscale>
<asrwt>0</asrwt>
<pdfrwt beam="1">  1        1 0.39892499E-01 0.87662150E+02</pdfrwt>
<pdfrwt beam="2">  1       -1 0.11398463E-02 0.87662150E+02</pdfrwt>
<totfact> 0.13829969E+05</totfact>
</mgrwt>
</event>
<event>
 7    1  0.2787125E-009  0.9044114E+02  0.7818608E-02  0.1301787E+00
          1   -1    0    0  501    0  0.00000000000E+00  0.00000000000E+00  0.24440733407E+02  0.24440733926E+02  0.50400000000E-02 0. -1.
         -1   -1    0    0    0  501 -0.00000000000E+00 -0.00000000000E+00 -0.83667694504E+02  0.83667694656E+02  0.50400000000E-02 0.  1.
         23    2    1    2    0    0  0.00000000000E+00  0.00000000000E+00 -0.59226961098E+02  0.10810842858E+03  0.90441137817E+02 0.  0.
    9000005    2    3    3    0    0 -0.91484480638E+01  0.43163201926E+02 -0.23599530461E+02  0.51398024631E+02  0.11750021086E+02 0.  0.
         22    1    3    3    0    0  0.91484480638E+01 -0.43163201926E+02 -0.35627430637E+02  0.56710403951E+02  0.00000000000E+00 0.  1.
         22    1    4    4    0    0 -0.94213363084E+01  0.43476436183E+02 -0.21778944166E+02  0.49530641930E+02  0.00000000000E+00 0.  1.
         22    1    4    4    0    0  0.27288824460E+00 -0.31323425707E+00 -0.18205862953E+01  0.18673827012E+01  0.00000000000E+00 0.  1.
<mgrwt>
<rscale>  0 0.90441138E+02</rscale>
<asrwt>0</asrwt>
<pdfrwt beam="1">  1        1 0.37601129E-02 0.90441138E+02</pdfrwt>
<pdfrwt beam="2">  1       -1 0.12871953E-01 0.90441138E+02</pdfrwt>
<totfact> 0.85767456E+04</totfact>
</mgrwt>
</event>
<event>
 7    1  0.2787125E-009  0.8771234E+02  0.7818608E-02  0.1308488E+00
          1   -1    0    0  501    0  0.00000000000E+00  0.00000000000E+00  0.27671197338E+03  0.27671197343E+03  0.50400000000E-02 0. -1.
         -1   -1    0    0    0  501 -0.00000000000E+00 -0.00000000000E+00 -0.69507771588E+01  0.69507789860E+01  0.50400000000E-02 0.  1.
         23    2    1    2    0    0  0.00000000000E+00  0.00000000000E+00  0.26976119622E+03  0.28366275242E+03  0.87712337327E+02 0.  0.
    9000005    2    3    3    0    0 -0.42748311755E+02  0.77525426278E+01  0.13699958940E+03  0.14397322410E+03  0.84783067880E+01 0.  0.
         22    1    3    3    0    0  0.42748311755E+02 -0.77525426278E+01  0.13276160682E+03  0.13968952832E+03  0.00000000000E+00 0.  1.
         22    1    4    4    0    0 -0.19874389336E+02 -0.27062346149E+00  0.55902544190E+02  0.59330928152E+02  0.00000000000E+00 0.  1.
         22    1    4    4    0    0 -0.22873922420E+02  0.80231660893E+01  0.81097045213E+02  0.84642295948E+02  0.00000000000E+00 0.  1.
<mgrwt>
<rscale>  0 0.87712337E+02</rscale>
<asrwt>0</asrwt>
<pdfrwt beam="1">  1        1 0.42571067E-01 0.87712337E+02</pdfrwt>
<pdfrwt beam="2">  1       -1 0.10693506E-02 0.87712337E+02</pdfrwt>
<totfact> 0.13983881E+05</totfact>
</mgrwt>
</event>
<event>
 7    1  0.2787125E-009  0.8977868E+02  0.7818608E-02  0.1303389E+00
         -1   -1    0    0    0  501 -0.00000000000E+00  0.00000000000E+00  0.10307847267E+03  0.10307847279E+03  0.50400000000E-02 0.  1.
          1   -1    0    0  501    0  0.00000000000E+00 -0.00000000000E+00 -0.19548727132E+02  0.19548727782E+02  0.50400000000E-02 0. -1.
         23    2    1    2    0    0  0.00000000000E+00  0.17763568394E-14  0.83529745539E+02  0.12262720058E+03  0.89778683056E+02 0.  0.
    9000005    2    3    3    0    0 -0.41620136131E+02 -0.15479481242E+02  0.38895648731E+02  0.59666477351E+02  0.86814145337E+01 0.  0.
         22    1    3    3    0    0  0.41620136131E+02  0.15479481242E+02  0.44634096808E+02  0.62960723224E+02  0.00000000000E+00 0.  1.
         22    1    4    4    0    0 -0.32226956957E+02 -0.14267650386E+02  0.26649647041E+02  0.44185362843E+02  0.00000000000E+00 0. -1.
         22    1    4    4    0    0 -0.93931791742E+01 -0.12118308557E+01  0.12246001690E+02  0.15481114508E+02  0.00000000000E+00 0. -1.
<mgrwt>
<rscale>  0 0.89778683E+02</rscale>
<asrwt>0</asrwt>
<pdfrwt beam="2">  1        1 0.30074966E-02 0.89778683E+02</pdfrwt>
<pdfrwt beam="1">  1       -1 0.15858227E-01 0.89778683E+02</pdfrwt>
<totfact> 0.84193207E+04</totfact>
</mgrwt>
</event>
<event>
 7    1  0.2787125E-009  0.9401432E+02  0.7818608E-02  0.1293412E+00
          1   -1    0    0  501    0  0.00000000000E+00  0.00000000000E+00  0.74936594505E+03  0.74936594507E+03  0.50400000000E-02 0. -1.
         -1   -1    0    0    0  501 -0.00000000000E+00 -0.00000000000E+00 -0.29487215517E+01  0.29487258590E+01  0.50400000000E-02 0.  1.
         23    2    1    2    0    0  0.00000000000E+00  0.00000000000E+00  0.74641722350E+03  0.75231467092E+03  0.94014321013E+02 0.  0.
    9000005    2    3    3    0    0 -0.88148370601E+01 -0.42332035062E+02  0.51174407339E+03  0.51369113913E+03  0.11264423030E+02 0.  0.
         22    1    3    3    0    0  0.88148370601E+01  0.42332035062E+02  0.23467315011E+03  0.23862353180E+03  0.00000000000E+00 0.  1.
         22    1    4    4    0    0 -0.92458938719E+01 -0.30959380252E+02  0.32551437731E+03  0.32711401623E+03  0.00000000000E+00 0. -1.
         22    1    4    4    0    0  0.43105681181E+00 -0.11372654811E+02  0.18622969608E+03  0.18657712290E+03  0.00000000000E+00 0. -1.
<mgrwt>
<rscale>  0 0.94014321E+02</rscale>
<asrwt>0</asrwt>
<pdfrwt beam="1">  1        1 0.11528716E+00 0.94014321E+02</pdfrwt>
<pdfrwt beam="2">  1       -1 0.45364945E-03 0.94014321E+02</pdfrwt>
<totfact> 0.13084940E+05</totfact>
</mgrwt>
</event>
<event>
 7    1  0.2787125E-009  0.9189336E+02  0.7818608E-02  0.1298330E+00
          1   -1    0    0  501    0  0.00000000000E+00  0.00000000000E+00  0.14120841630E+03  0.14120841639E+03  0.50400000000E-02 0. -1.
         -1   -1    0    0    0  501 -0.00000000000E+00 -0.00000000000E+00 -0.14950223571E+02  0.14950224421E+02  0.50400000000E-02 0.  1.
         23    2    1    2    0    0  0.00000000000E+00  0.00000000000E+00  0.12625819273E+03  0.15615864081E+03  0.91893361397E+02 0.  0.
    9000005    2    3    3    0    0 -0.96872910252E+01 -0.28138392475E+02  0.49235948321E+01  0.31227870441E+02  0.80824110111E+01 0.  0.
         22    1    3    3    0    0  0.96872910252E+01  0.28138392475E+02  0.12133459790E+03  0.12493077037E+03  0.00000000000E+00 0. -1.
         22    1    4    4    0    0  0.27739334637E+00 -0.80833903572E+01 -0.75986335232E+00  0.81237638475E+01  0.00000000000E+00 0.  1.
         22    1    4    4    0    0 -0.99646843716E+01 -0.20055002118E+02  0.56834581845E+01  0.23104106594E+02  0.00000000000E+00 0.  1.
<mgrwt>
<rscale>  0 0.91893361E+02</rscale>
<asrwt>0</asrwt>
<pdfrwt beam="1">  1        1 0.21724372E-01 0.91893361E+02</pdfrwt>
<pdfrwt beam="2">  1       -1 0.23000344E-02 0.91893361E+02</pdfrwt>
<totfact> 0.10857893E+05</totfact>
</mgrwt>
</event>
<event>
 7    1  0.3865195E-009  0.9248400E+02  0.7818608E-02  0.1296945E+00
         -1   -1    0    0    0  501 -0.00000000000E+00  0.00000000000E+00  0.20127931662E+03  0.20127931668E+03  0.50400000000E-02 0.  1.
          1   -1    0    0  501    0  0.00000000000E+00 -0.00000000000E+00 -0.10623656728E+02  0.10623657923E+02  0.50400000000E-02 0. -1.
         23    2    1    2    0    0  0.00000000000E+00  0.00000000000E+00  0.19065565989E+03  0.21190297460E+03  0.92483998606E+02 0.  0.
    9000005    2    3    3    0    0  0.10231289853E+02  0.20530680278E+01  0.19825651001E+03  0.19899300547E+03  0.13552788842E+02 0.  0.
         22    1    3    3    0    0 -0.10231289853E+02 -0.20530680278E+01 -0.76008501214E+01  0.12909969130E+02  0.00000000000E+00 0. -1.
         22    1    4    4    0    0  0.12853382136E+01 -0.29812266655E+00  0.14166698705E+01  0.19359558284E+01  0.00000000000E+00 0. -1.
         22    1    4    4    0    0  0.89459516389E+01  0.23511906943E+01  0.19683984014E+03  0.19705704965E+03  0.00000000000E+00 0. -1.
<mgrwt>
<rscale>  0 0.92483999E+02</rscale>
<asrwt>0</asrwt>
<pdfrwt beam="2">  1        1 0.16344089E-02 0.92483999E+02</pdfrwt>
<pdfrwt beam="1">  1       -1 0.30966047E-01 0.92483999E+02</pdfrwt>
<totfact> 0.66771502E+04</totfact>
</mgrwt>
</event>
<event>
 7    1  0.2787125E-009  0.9049622E+02  0.7818608E-02  0.1301654E+00
          1   -1    0    0  501    0  0.00000000000E+00  0.00000000000E+00  0.20092443718E+02  0.20092444351E+02  0.50400000000E-02 0. -1.
         -1   -1    0    0    0  501 -0.00000000000E+00 -0.00000000000E+00 -0.10189856684E+03  0.10189856696E+03  0.50400000000E-02 0.  1.
         23    2    1    2    0    0 -0.35527136788E-14  0.00000000000E+00 -0.81806123119E+02  0.12199101131E+03  0.90496215729E+02 0.  0.
    9000005    2    3    3    0    0 -0.31780013922E+02 -0.17809200031E+02 -0.48198500552E+01  0.36820458122E+02  0.23191142959E+01 0.  0.
         22    1    3    3    0    0  0.31780013922E+02  0.17809200031E+02 -0.76986273064E+02  0.85170553191E+02  0.00000000000E+00 0.  1.
         22    1    4    4    0    0 -0.17604337635E+02 -0.85546691180E+01 -0.27599458068E+01  0.19766445511E+02  0.00000000000E+00 0. -1.
         22    1    4    4    0    0 -0.14175676287E+02 -0.92545309135E+01 -0.20599042484E+01  0.17054012611E+02  0.00000000000E+00 0. -1.
<mgrwt>
<rscale>  0 0.90496216E+02</rscale>
<asrwt>0</asrwt>
<pdfrwt beam="1">  1        1 0.30911453E-02 0.90496216E+02</pdfrwt>
<pdfrwt beam="2">  1       -1 0.15676702E-01 0.90496216E+02</pdfrwt>
<totfact> 0.82664498E+04</totfact>
</mgrwt>
</event>
<event>
 7    1  0.2787125E-009  0.1021345E+03  0.7818608E-02  0.1275870E+00
          1   -1    0    0  501    0  0.00000000000E+00  0.00000000000E+00  0.12442565193E+02  0.12442566214E+02  0.50400000000E-02 0. -1.
         -1   -1    0    0    0  501 -0.00000000000E+00 -0.00000000000E+00 -0.20959220929E+03  0.20959220935E+03  0.50400000000E-02 0.  1.
         23    2    1    2    0    0  0.00000000000E+00 -0.22204460493E-15 -0.19714964410E+03  0.22203477556E+03  0.10213451617E+03 0.  0.
    9000005    2    3    3    0    0  0.13632026420E+02  0.18337714335E+01 -0.20547523486E+03  0.20595651933E+03  0.29699918845E+01 0.  0.
         22    1    3    3    0    0 -0.13632026420E+02 -0.18337714335E+01  0.83255907635E+01  0.16078256234E+02  0.00000000000E+00 0. -1.
         22    1    4    4    0    0  0.12637608789E+02  0.18501111239E+01 -0.19853132593E+03  0.19894174887E+03  0.00000000000E+00 0. -1.
         22    1    4    4    0    0  0.99441763033E+00 -0.16339690458E-01 -0.69439089326E+01  0.70147704648E+01  0.00000000000E+00 0. -1.
<mgrwt>
<rscale>  0 0.10213452E+03</rscale>
<asrwt>0</asrwt>
<pdfrwt beam="1">  1        1 0.19142410E-02 0.10213452E+03</pdfrwt>
<pdfrwt beam="2">  1       -1 0.32244953E-01 0.10213452E+03</pdfrwt>
<totfact> 0.50890014E+04</totfact>
</mgrwt>
</event>
<event>
 7    1  0.2787125E-009  0.8998988E+02  0.7818608E-02  0.1302876E+00
          1   -1    0    0  501    0  0.00000000000E+00  0.00000000000E+00  0.33526362397E+02  0.33526362776E+02  0.50400000000E-02 0. -1.
         -1   -1    0    0    0  501 -0.00000000000E+00 -0.00000000000E+00 -0.60386647424E+02  0.60386647634E+02  0.50400000000E-02 0.  1.
         23    2    1    2    0    0 -0.71054273576E-14  0.22204460493E-15 -0.26860285026E+02  0.93913010410E+02  0.89989880612E+02 0.  0.
    9000005    2    3    3    0    0  0.41518626847E+02 -0.57546165438E+00 -0.31155110884E+02  0.52168872373E+02  0.51790712555E+01 0.  0.
         22    1    3    3    0    0 -0.41518626847E+02  0.57546165438E+00  0.42948258576E+01  0.41744138038E+02  0.00000000000E+00 0.  1.
         22    1    4    4    0    0  0.31832744614E+02  0.17325761414E+01 -0.23318906745E+02  0.39498061491E+02  0.00000000000E+00 0. -1.
         22    1    4    4    0    0  0.96858822331E+01 -0.23080377958E+01 -0.78362041388E+01  0.12670810882E+02  0.00000000000E+00 0. -1.
<mgrwt>
<rscale>  0 0.89989881E+02</rscale>
<asrwt>0</asrwt>
<pdfrwt beam="1">  1        1 0.51579020E-02 0.89989881E+02</pdfrwt>
<pdfrwt beam="2">  1       -1 0.92902535E-02 0.89989881E+02</pdfrwt>
<totfact> 0.91582572E+04</totfact>
</mgrwt>
</event>
<event>
 7    1  0.2787125E-009  0.8816860E+02  0.7818608E-02  0.1307348E+00
          1   -1    0    0  501    0  0.00000000000E+00  0.00000000000E+00  0.78486157693E+03  0.78486157694E+03  0.50400000000E-02 0. -1.
         -1   -1    0    0    0  501 -0.00000000000E+00 -0.00000000000E+00 -0.24761355201E+01  0.24761406494E+01  0.50400000000E-02 0.  1.
         23    2    1    2    0    0  0.35527136788E-14  0.00000000000E+00  0.78238544141E+03  0.78733771759E+03  0.88168603359E+02 0.  0.
    9000005    2    3    3    0    0 -0.24571386876E+02 -0.82511938433E+01  0.70644953381E+03  0.70709996267E+03  0.15734615683E+02 0.  0.
         22    1    3    3    0    0  0.24571386876E+02  0.82511938433E+01  0.75935907593E+02  0.80237754922E+02  0.00000000000E+00 0.  1.
         22    1    4    4    0    0 -0.78924162932E+01  0.35699950671E+01  0.13014949258E+03  0.13043743909E+03  0.00000000000E+00 0. -1.
         22    1    4    4    0    0 -0.16678970583E+02 -0.11821188910E+02  0.57630004124E+03  0.57666252358E+03  0.00000000000E+00 0. -1.
<mgrwt>
<rscale>  0 0.88168603E+02</rscale>
<asrwt>0</asrwt>
<pdfrwt beam="1">  1        1 0.12074790E+00 0.88168603E+02</pdfrwt>
<pdfrwt beam="2">  1       -1 0.38094443E-03 0.88168603E+02</pdfrwt>
<totfact> 0.15462137E+05</totfact>
</mgrwt>
</event>
<event>
 7    1  0.2787125E-009  0.9197530E+02  0.7818608E-02  0.1298138E+00
          1   -1    0    0  501    0  0.00000000000E+00  0.00000000000E+00  0.98595217657E+02  0.98595217785E+02  0.50400000000E-02 0. -1.
         -1   -1    0    0    0  501 -0.00000000000E+00 -0.00000000000E+00 -0.21449964914E+02  0.21449965506E+02  0.50400000000E-02 0.  1.
         23    2    1    2    0    0  0.00000000000E+00  0.00000000000E+00  0.77145252743E+02  0.12004518329E+03  0.91975301091E+02 0.  0.
    9000005    2    3    3    0    0 -0.21442640282E+02 -0.33061533311E+02  0.80971980281E+01  0.40543701123E+02  0.50373879839E+01 0.  0.
         22    1    3    3    0    0  0.21442640282E+02  0.33061533311E+02  0.69048054715E+02  0.79501482169E+02  0.00000000000E+00 0. -1.
         22    1    4    4    0    0 -0.20962236613E+02 -0.29886466637E+02  0.71841960231E+01  0.37205227110E+02  0.00000000000E+00 0. -1.
         22    1    4    4    0    0 -0.48040366935E+00 -0.31750666743E+01  0.91300200499E+00  0.33384740126E+01  0.00000000000E+00 0. -1.
<mgrwt>
<rscale>  0 0.91975301E+02</rscale>
<asrwt>0</asrwt>
<pdfrwt beam="1">  1        1 0.15168495E-01 0.91975301E+02</pdfrwt>
<pdfrwt beam="2">  1       -1 0.32999947E-02 0.91975301E+02</pdfrwt>
<totfact> 0.10175443E+05</totfact>
</mgrwt>
</event>
<event>
 7    1  0.2787125E-009  0.9207298E+02  0.7818608E-02  0.1297908E+00
         -1   -1    0    0    0  501 -0.00000000000E+00  0.00000000000E+00  0.56366859104E+02  0.56366859329E+02  0.50400000000E-02 0.  1.
          1   -1    0    0  501    0  0.00000000000E+00 -0.00000000000E+00 -0.37599371358E+02  0.37599371696E+02  0.50400000000E-02 0. -1.
         23    2    1    2    0    0  0.00000000000E+00  0.17763568394E-14  0.18767487746E+02  0.93966231025E+02  0.92072981795E+02 0.  0.
    9000005    2    3    3    0    0 -0.86317267158E+01  0.11225447456E+02 -0.34937955682E+02  0.38425326904E+02  0.74382540793E+01 0.  0.
         22    1    3    3    0    0  0.86317267158E+01 -0.11225447456E+02  0.53705443428E+02  0.55540904120E+02  0.00000000000E+00 0.  1.
         22    1    4    4    0    0  0.11492797469E+01  0.26184048885E+01 -0.81481047039E+01  0.86353053428E+01  0.00000000000E+00 0. -1.
         22    1    4    4    0    0 -0.97810064627E+01  0.86070425674E+01 -0.26789850978E+02  0.29790021561E+02  0.00000000000E+00 0. -1.
<mgrwt>
<rscale>  0 0.92072982E+02</rscale>
<asrwt>0</asrwt>
<pdfrwt beam="2">  1        1 0.57845187E-02 0.92072982E+02</pdfrwt>
<pdfrwt beam="1">  1       -1 0.86718245E-02 0.92072982E+02</pdfrwt>
<totfact> 0.87351747E+04</totfact>
</mgrwt>
</event>
<event>
 7    1  0.2787125E-009  0.8956586E+02  0.7818608E-02  0.1303906E+00
          1   -1    0    0  501    0  0.00000000000E+00  0.00000000000E+00  0.13594269836E+02  0.13594270770E+02  0.50400000000E-02 0.  1.
         -1   -1    0    0    0  501 -0.00000000000E+00 -0.00000000000E+00 -0.14752617025E+03  0.14752617033E+03  0.50400000000E-02 0. -1.
         23    2    1    2    0    0  0.00000000000E+00  0.00000000000E+00 -0.13393190041E+03  0.16112044110E+03  0.89565856183E+02 0.  0.
    9000005    2    3    3    0    0  0.16377951402E+02 -0.99193051010E+01 -0.13939571801E+03  0.14120855499E+03  0.11918888257E+02 0.  0.
         22    1    3    3    0    0 -0.16377951402E+02  0.99193051010E+01  0.54638175991E+01  0.19911886113E+02  0.00000000000E+00 0.  1.
         22    1    4    4    0    0  0.70742801652E+01 -0.42540113410E+00 -0.81450013218E+02  0.81757758404E+02  0.00000000000E+00 0.  1.
         22    1    4    4    0    0  0.93036712366E+01 -0.94939039669E+01 -0.57945704793E+02  0.59450796588E+02  0.00000000000E+00 0.  1.
<mgrwt>
<rscale>  0 0.89565856E+02</rscale>
<asrwt>0</asrwt>
<pdfrwt beam="1">  1        1 0.20914263E-02 0.89565856E+02</pdfrwt>
<pdfrwt beam="2">  1       -1 0.22696333E-01 0.89565856E+02</pdfrwt>
<totfact> 0.78628869E+04</totfact>
</mgrwt>
</event>
<event>
 7    1  0.2787125E-009  0.9375731E+02  0.7818608E-02  0.1294000E+00
          1   -1    0    0  501    0  0.00000000000E+00  0.00000000000E+00  0.42670521456E+02  0.42670521753E+02  0.50400000000E-02 0. -1.
         -1   -1    0    0    0  501 -0.00000000000E+00 -0.00000000000E+00 -0.51501786838E+02  0.51501787085E+02  0.50400000000E-02 0.  1.
         23    2    1    2    0    0  0.00000000000E+00  0.35527136788E-14 -0.88312653824E+01  0.94172308838E+02  0.93757306401E+02 0.  0.
    9000005    2    3    3    0    0  0.19905001188E+02  0.19130145402E+02 -0.41935565972E+02  0.51067016206E+02  0.93315012390E+01 0.  0.
         22    1    3    3    0    0 -0.19905001188E+02 -0.19130145402E+02  0.33104300590E+02  0.43105292632E+02  0.00000000000E+00 0. -1.
         22    1    4    4    0    0  0.20006198508E+02  0.19934955679E+02 -0.41314707012E+02  0.50045533788E+02  0.00000000000E+00 0.  1.
         22    1    4    4    0    0 -0.10119731997E+00 -0.80481027769E+00 -0.62085896025E+00  0.10214824175E+01  0.00000000000E+00 0.  1.
<mgrwt>
<rscale>  0 0.93757306E+02</rscale>
<asrwt>0</asrwt>
<pdfrwt beam="1">  1        1 0.65646956E-02 0.93757306E+02</pdfrwt>
<pdfrwt beam="2">  1       -1 0.79233519E-02 0.93757306E+02</pdfrwt>
<totfact> 0.84614312E+04</totfact>
</mgrwt>
</event>
<event>
 7    1  0.2787125E-009  0.9242260E+02  0.7818608E-02  0.1297089E+00
          1   -1    0    0  501    0  0.00000000000E+00  0.00000000000E+00  0.29622958392E+02  0.29622958821E+02  0.50400000000E-02 0. -1.
         -1   -1    0    0    0  501 -0.00000000000E+00 -0.00000000000E+00 -0.72088826415E+02  0.72088826592E+02  0.50400000000E-02 0.  1.
         23    2    1    2    0    0  0.00000000000E+00  0.00000000000E+00 -0.42465868024E+02  0.10171178541E+03  0.92422601915E+02 0.  0.
    9000005    2    3    3    0    0  0.29548619094E+02  0.27620580494E+02 -0.44093490103E+02  0.61231339382E+02  0.13000911350E+02 0.  0.
         22    1    3    3    0    0 -0.29548619094E+02 -0.27620580494E+02  0.16276220790E+01  0.40480446030E+02  0.00000000000E+00 0. -1.
         22    1    4    4    0    0  0.36751174451E+01  0.11291768373E+02 -0.11587452187E+02  0.16591551146E+02  0.00000000000E+00 0. -1.
         22    1    4    4    0    0  0.25873501649E+02  0.16328812121E+02 -0.32506037915E+02  0.44639788236E+02  0.00000000000E+00 0. -1.
<mgrwt>
<rscale>  0 0.92422602E+02</rscale>
<asrwt>0</asrwt>
<pdfrwt beam="1">  1        1 0.45573783E-02 0.92422602E+02</pdfrwt>
<pdfrwt beam="2">  1       -1 0.11090589E-01 0.92422602E+02</pdfrwt>
<totfact> 0.83192075E+04</totfact>
</mgrwt>
</event>
<event>
 7    1  0.2787125E-009  0.9279924E+02  0.7818608E-02  0.1296211E+00
         -1   -1    0    0    0  501 -0.00000000000E+00  0.00000000000E+00  0.96781135350E+02  0.96781135482E+02  0.50400000000E-02 0.  1.
          1   -1    0    0  501    0  0.00000000000E+00 -0.00000000000E+00 -0.22245290435E+02  0.22245291006E+02  0.50400000000E-02 0. -1.
         23    2    1    2    0    0 -0.35527136788E-14  0.00000000000E+00  0.74535844916E+02  0.11902642649E+03  0.92799235046E+02 0.  0.
    9000005    2    3    3    0    0 -0.23676511615E+02 -0.38213153905E+02  0.29478623645E+02  0.55379152216E+02  0.13305597111E+02 0.  0.
         22    1    3    3    0    0  0.23676511615E+02  0.38213153905E+02  0.45057221270E+02  0.63647274272E+02  0.00000000000E+00 0.  1.
         22    1    4    4    0    0 -0.23943530556E+02 -0.33570856998E+02  0.29548297595E+02  0.50728660398E+02  0.00000000000E+00 0. -1.
         22    1    4    4    0    0  0.26701894044E+00 -0.46422969069E+01 -0.69673949377E-01  0.46504918176E+01  0.00000000000E+00 0. -1.
<mgrwt>
<rscale>  0 0.92799235E+02</rscale>
<asrwt>0</asrwt>
<pdfrwt beam="2">  1        1 0.34223523E-02 0.92799235E+02</pdfrwt>
<pdfrwt beam="1">  1       -1 0.14889406E-01 0.92799235E+02</pdfrwt>
<totfact> 0.78226761E+04</totfact>
</mgrwt>
</event>
<event>
 7    1  0.2787125E-009  0.9622429E+02  0.7818608E-02  0.1288442E+00
          1   -1    0    0  501    0  0.00000000000E+00  0.00000000000E+00  0.68397748735E+01  0.68397767304E+01  0.50400000000E-02 0. -1.
         -1   -1    0    0    0  501 -0.00000000000E+00 -0.00000000000E+00 -0.33842901114E+03  0.33842901118E+03  0.50400000000E-02 0.  1.
         23    2    1    2    0    0  0.35527136788E-14  0.17763568394E-14 -0.33158923627E+03  0.34526878791E+03  0.96224291609E+02 0.  0.
    9000005    2    3    3    0    0  0.30948639500E+02  0.99940571106E+01 -0.29231124085E+03  0.29427407849E+03  0.96784441658E+01 0.  0.
         22    1    3    3    0    0 -0.30948639500E+02 -0.99940571106E+01 -0.39277995421E+02  0.50994709419E+02  0.00000000000E+00 0. -1.
         22    1    4    4    0    0  0.60425750545E+01  0.18545505895E+01 -0.30074832036E+02  0.30731866087E+02  0.00000000000E+00 0. -1.
         22    1    4    4    0    0  0.24906064445E+02  0.81395065211E+01 -0.26223640881E+03  0.26354221240E+03  0.00000000000E+00 0. -1.
<mgrwt>
<rscale>  0 0.96224292E+02</rscale>
<asrwt>0</asrwt>
<pdfrwt beam="1">  1        1 0.10522735E-02 0.96224292E+02</pdfrwt>
<pdfrwt beam="2">  1       -1 0.52065989E-01 0.96224292E+02</pdfrwt>
<totfact> 0.50038420E+04</totfact>
</mgrwt>
</event>
<event>
 7    1  0.2787125E-009  0.9129951E+02  0.7818608E-02  0.1299735E+00
          1   -1    0    0  501    0  0.00000000000E+00  0.00000000000E+00  0.15002009846E+03  0.15002009855E+03  0.50400000000E-02 0. -1.
         -1   -1    0    0    0  501 -0.00000000000E+00 -0.00000000000E+00 -0.13890806673E+02  0.13890807588E+02  0.50400000000E-02 0.  1.
         23    2    1    2    0    0  0.00000000000E+00  0.00000000000E+00  0.13612929179E+03  0.16391090613E+03  0.91299512961E+02 0.  0.
    9000005    2    3    3    0    0 -0.37309323645E+02 -0.14541473646E+02  0.10738444248E+03  0.11461885355E+03  0.16195723447E+01 0.  0.
         22    1    3    3    0    0  0.37309323645E+02  0.14541473646E+02  0.28744849308E+02  0.49292052588E+02  0.00000000000E+00 0.  1.
         22    1    4    4    0    0 -0.25112090865E+02 -0.96878766607E+01  0.69992512334E+02  0.74989491561E+02  0.00000000000E+00 0.  1.
         22    1    4    4    0    0 -0.12197232780E+02 -0.48535969848E+01  0.37391930148E+02  0.39629361985E+02  0.00000000000E+00 0.  1.
<mgrwt>
<rscale>  0 0.91299513E+02</rscale>
<asrwt>0</asrwt>
<pdfrwt beam="1">  1        1 0.23080016E-01 0.91299513E+02</pdfrwt>
<pdfrwt beam="2">  1       -1 0.21370472E-02 0.91299513E+02</pdfrwt>
<totfact> 0.11172907E+05</totfact>
</mgrwt>
</event>
<event>
 7    1  0.2787125E-009  0.9193348E+02  0.7818608E-02  0.1298236E+00
          1   -1    0    0  501    0  0.00000000000E+00  0.00000000000E+00  0.51001768873E+03  0.51001768876E+03  0.50400000000E-02 0. -1.
         -1   -1    0    0    0  501 -0.00000000000E+00 -0.00000000000E+00 -0.41428769723E+01  0.41428800380E+01  0.50400000000E-02 0.  1.
         23    2    1    2    0    0 -0.17763568394E-14 -0.44408920985E-15  0.50587481176E+03  0.51416056880E+03  0.91933483186E+02 0.  0.
    9000005    2    3    3    0    0 -0.10247672702E+02  0.22164215040E+01  0.50296163182E+03  0.50327875197E+03  0.14462772138E+02 0.  0.
         22    1    3    3    0    0  0.10247672702E+02 -0.22164215040E+01  0.29131799370E+01  0.10881816826E+02  0.00000000000E+00 0.  1.
         22    1    4    4    0    0 -0.17531467529E+01 -0.22384118768E+01  0.18074859116E+02  0.18297118444E+02  0.00000000000E+00 0.  1.
         22    1    4    4    0    0 -0.84945259487E+01  0.44548333808E+01  0.48488677271E+03  0.48498163353E+03  0.00000000000E+00 0.  1.
<mgrwt>
<rscale>  0 0.91933483E+02</rscale>
<asrwt>0</asrwt>
<pdfrwt beam="1">  1        1 0.78464226E-01 0.91933483E+02</pdfrwt>
<pdfrwt beam="2">  1       -1 0.63736620E-03 0.91933483E+02</pdfrwt>
<totfact> 0.13655869E+05</totfact>
</mgrwt>
</event>
<event>
 7    1  0.2787125E-009  0.9391904E+02  0.7818608E-02  0.1293629E+00
         -1   -1    0    0    0  501 -0.00000000000E+00  0.00000000000E+00  0.28392275718E+01  0.28392320451E+01  0.50400000000E-02 0.  1.
          1   -1    0    0  501    0  0.00000000000E+00 -0.00000000000E+00 -0.77668831823E+03  0.77668831824E+03  0.50400000000E-02 0. -1.
         23    2    1    2    0    0 -0.35527136788E-14  0.35527136788E-14 -0.77384909065E+03  0.77952755029E+03  0.93919042535E+02 0.  0.
    9000005    2    3    3    0    0  0.25804954596E+02 -0.27592291606E+02 -0.61650025574E+03  0.61770701362E+03  0.78841050802E+01 0.  0.
         22    1    3    3    0    0 -0.25804954596E+02  0.27592291606E+02 -0.15734883492E+03  0.16182053667E+03  0.00000000000E+00 0.  1.
         22    1    4    4    0    0  0.71650963772E+01 -0.33140825333E+01 -0.11022800149E+03  0.11051033463E+03  0.00000000000E+00 0. -1.
         22    1    4    4    0    0  0.18639858219E+02 -0.24278209073E+02 -0.50627225425E+03  0.50719667898E+03  0.00000000000E+00 0. -1.
<mgrwt>
<rscale>  0 0.93919043E+02</rscale>
<asrwt>0</asrwt>
<pdfrwt beam="2">  1        1 0.11949034E+00 0.93919043E+02</pdfrwt>
<pdfrwt beam="1">  1       -1 0.43680520E-03 0.93919043E+02</pdfrwt>
<totfact> 0.13093637E+05</totfact>
</mgrwt>
</event>
<event>
 7    1  0.2787125E-009  0.9205200E+02  0.7818608E-02  0.1297957E+00
         -1   -1    0    0    0  501 -0.00000000000E+00  0.00000000000E+00  0.47712127077E+01  0.47712153697E+01  0.50400000000E-02 0.  1.
          1   -1    0    0  501    0  0.00000000000E+00 -0.00000000000E+00 -0.44399449147E+03  0.44399449150E+03  0.50400000000E-02 0. -1.
         23    2    1    2    0    0  0.00000000000E+00  0.00000000000E+00 -0.43922327876E+03  0.44876570687E+03  0.92052001903E+02 0.  0.
    9000005    2    3    3    0    0  0.31111609901E+02  0.31737516515E+02 -0.18106030687E+03  0.18680517113E+03  0.11753085294E+02 0.  0.
         22    1    3    3    0    0 -0.31111609901E+02 -0.31737516515E+02 -0.25816297190E+03  0.26196053574E+03  0.00000000000E+00 0. -1.
         22    1    4    4    0    0  0.17379492076E+02  0.25224078632E+02 -0.12771008245E+03  0.13133227344E+03  0.00000000000E+00 0.  1.
         22    1    4    4    0    0  0.13732117825E+02  0.65134378822E+01 -0.53350224422E+02  0.55472897697E+02  0.00000000000E+00 0.  1.
<mgrwt>
<rscale>  0 0.92052002E+02</rscale>
<asrwt>0</asrwt>
<pdfrwt beam="2">  1        1 0.68306813E-01 0.92052002E+02</pdfrwt>
<pdfrwt beam="1">  1       -1 0.73403328E-03 0.92052002E+02</pdfrwt>
<totfact> 0.13365824E+05</totfact>
</mgrwt>
</event>
<event>
 7    1  0.2787125E-009  0.8548666E+02  0.7818608E-02  0.1314165E+00
         -1   -1    0    0    0  501 -0.00000000000E+00  0.00000000000E+00  0.10477859449E+02  0.10477860661E+02  0.50400000000E-02 0.  1.
          1   -1    0    0  501    0  0.00000000000E+00 -0.00000000000E+00 -0.17436691280E+03  0.17436691287E+03  0.50400000000E-02 0. -1.
         23    2    1    2    0    0  0.00000000000E+00 -0.88817841970E-15 -0.16388905335E+03  0.18484477353E+03  0.85486656821E+02 0.  0.
    9000005    2    3    3    0    0  0.15094622598E+02  0.54926199404E+01 -0.16696502727E+03  0.16849001518E+03  0.15923202512E+02 0.  0.
         22    1    3    3    0    0 -0.15094622598E+02 -0.54926199404E+01  0.30759739228E+01  0.16354758352E+02  0.00000000000E+00 0.  1.
         22    1    4    4    0    0  0.16871571396E+02  0.65932446406E+01 -0.16303964646E+03  0.16404282097E+03  0.00000000000E+00 0. -1.
         22    1    4    4    0    0 -0.17769487981E+01 -0.11006247002E+01 -0.39253808124E+01  0.44471942035E+01  0.00000000000E+00 0. -1.
<mgrwt>
<rscale>  0 0.85486657E+02</rscale>
<asrwt>0</asrwt>
<pdfrwt beam="2">  1        1 0.26825677E-01 0.85486657E+02</pdfrwt>
<pdfrwt beam="1">  1       -1 0.16119786E-02 0.85486657E+02</pdfrwt>
<totfact> 0.13704337E+05</totfact>
</mgrwt>
</event>
<event>
 7    1  0.2787125E-009  0.9897312E+02  0.7818608E-02  0.1282470E+00
         -1   -1    0    0    0  501 -0.00000000000E+00  0.00000000000E+00  0.48345361994E+02  0.48345362256E+02  0.50400000000E-02 0.  1.
          1   -1    0    0  501    0  0.00000000000E+00 -0.00000000000E+00 -0.50654692123E+02  0.50654692373E+02  0.50400000000E-02 0. -1.
         23    2    1    2    0    0  0.00000000000E+00  0.00000000000E+00 -0.23093301292E+01  0.99000054630E+02  0.98973116608E+02 0.  0.
    9000005    2    3    3    0    0  0.14662447605E+02  0.39761360551E+02  0.22997039998E+02  0.49640501029E+02  0.11805182382E+02 0.  0.
         22    1    3    3    0    0 -0.14662447605E+02 -0.39761360551E+02 -0.25306370127E+02  0.49359553601E+02  0.00000000000E+00 0. -1.
         22    1    4    4    0    0 -0.18699087462E+01  0.70336903376E+01  0.29638846034E+01  0.78583694509E+01  0.00000000000E+00 0.  1.
         22    1    4    4    0    0  0.16532356351E+02  0.32727670214E+02  0.20033155395E+02  0.41782131578E+02  0.00000000000E+00 0.  1.
<mgrwt>
<rscale>  0 0.98973117E+02</rscale>
<asrwt>0</asrwt>
<pdfrwt beam="2">  1        1 0.77930296E-02 0.98973117E+02</pdfrwt>
<pdfrwt beam="1">  1       -1 0.74377481E-02 0.98973117E+02</pdfrwt>
<totfact> 0.74577395E+04</totfact>
</mgrwt>
</event>
<event>
 7    1  0.2787125E-009  0.9089223E+02  0.7818608E-02  0.1300705E+00
          1   -1    0    0  501    0  0.00000000000E+00  0.00000000000E+00  0.19060244243E+02  0.19060244909E+02  0.50400000000E-02 0. -1.
         -1   -1    0    0    0  501 -0.00000000000E+00 -0.00000000000E+00 -0.10835900932E+03  0.10835900944E+03  0.50400000000E-02 0.  1.
         23    2    1    2    0    0 -0.88817841970E-15  0.00000000000E+00 -0.89298765079E+02  0.12741925435E+03  0.90892227027E+02 0.  0.
    9000005    2    3    3    0    0 -0.47204226315E+01 -0.38563421382E+02 -0.14901837318E+02  0.43488790756E+02  0.12640819096E+02 0.  0.
         22    1    3    3    0    0  0.47204226315E+01  0.38563421382E+02 -0.74396927761E+02  0.83930463592E+02  0.00000000000E+00 0.  1.
         22    1    4    4    0    0 -0.63729652126E+01 -0.23519579905E+02 -0.36712252076E+01  0.24642711276E+02  0.00000000000E+00 0. -1.
         22    1    4    4    0    0  0.16525425811E+01 -0.15043841477E+02 -0.11230612110E+02  0.18846079479E+02  0.00000000000E+00 0. -1.
<mgrwt>
<rscale>  0 0.90892227E+02</rscale>
<asrwt>0</asrwt>
<pdfrwt beam="1">  1        1 0.29323454E-02 0.90892227E+02</pdfrwt>
<pdfrwt beam="2">  1       -1 0.16670617E-01 0.90892227E+02</pdfrwt>
<totfact> 0.80790050E+04</totfact>
</mgrwt>
</event>
<event>
 7    1  0.2787125E-009  0.9132321E+02  0.7818608E-02  0.1299679E+00
         -1   -1    0    0    0  501 -0.00000000000E+00  0.00000000000E+00  0.23708782878E+02  0.23708783414E+02  0.50400000000E-02 0.  1.
          1   -1    0    0  501    0  0.00000000000E+00 -0.00000000000E+00 -0.87941341619E+02  0.87941341763E+02  0.50400000000E-02 0. -1.
         23    2    1    2    0    0  0.00000000000E+00  0.00000000000E+00 -0.64232558740E+02  0.11165012518E+03  0.91323210904E+02 0.  0.
    9000005    2    3    3    0    0  0.18823357966E+02  0.19260486629E+02  0.11845000447E+02  0.30946468741E+02  0.95966005247E+01 0.  0.
         22    1    3    3    0    0 -0.18823357966E+02 -0.19260486629E+02 -0.76077559187E+02  0.80703656437E+02  0.00000000000E+00 0. -1.
         22    1    4    4    0    0 -0.10602565495E+01  0.51717506976E+00  0.10045889477E+01  0.15494556971E+01  0.00000000000E+00 0. -1.
         22    1    4    4    0    0  0.19883614516E+02  0.18743311559E+02  0.10840411499E+02  0.29397013044E+02  0.00000000000E+00 0. -1.
<mgrwt>
<rscale>  0 0.91323211E+02</rscale>
<asrwt>0</asrwt>
<pdfrwt beam="2">  1        1 0.13529437E-01 0.91323211E+02</pdfrwt>
<pdfrwt beam="1">  1       -1 0.36475052E-02 0.91323211E+02</pdfrwt>
<totfact> 0.10182843E+05</totfact>
</mgrwt>
</event>
<event>
 7    1  0.2787125E-009  0.9232047E+02  0.7818608E-02  0.1297328E+00
          1   -1    0    0  501    0  0.00000000000E+00  0.00000000000E+00  0.43556755031E+02  0.43556755323E+02  0.50400000000E-02 0. -1.
         -1   -1    0    0    0  501 -0.00000000000E+00 -0.00000000000E+00 -0.48919335106E+02  0.48919335366E+02  0.50400000000E-02 0.  1.
         23    2    1    2    0    0  0.00000000000E+00  0.35527136788E-14 -0.53625800754E+01  0.92476090688E+02  0.92320474890E+02 0.  0.
    9000005    2    3    3    0    0  0.70644605756E+01 -0.30091100761E+02  0.31527509938E+02  0.44348555020E+02  0.41748654112E+01 0.  0.
         22    1    3    3    0    0 -0.70644605756E+01  0.30091100761E+02 -0.36890090014E+02  0.48127535668E+02  0.00000000000E+00 0.  1.
         22    1    4    4    0    0  0.35259966201E+01 -0.20146947481E+02  0.23004325878E+02  0.30781993991E+02  0.00000000000E+00 0.  1.
         22    1    4    4    0    0  0.35384639555E+01 -0.99441532804E+01  0.85231840608E+01  0.13566561029E+02  0.00000000000E+00 0.  1.
<mgrwt>
<rscale>  0 0.92320475E+02</rscale>
<asrwt>0</asrwt>
<pdfrwt beam="1">  1        1 0.67010392E-02 0.92320475E+02</pdfrwt>
<pdfrwt beam="2">  1       -1 0.75260516E-02 0.92320475E+02</pdfrwt>
<totfact> 0.88669116E+04</totfact>
</mgrwt>
</event>
<event>
 7    1  0.2787125E-009  0.9277913E+02  0.7818608E-02  0.1296258E+00
          1   -1    0    0  501    0  0.00000000000E+00  0.00000000000E+00  0.29685489903E+03  0.29685489908E+03  0.50400000000E-02 0. -1.
         -1   -1    0    0    0  501 -0.00000000000E+00 -0.00000000000E+00 -0.72493049387E+01  0.72493066907E+01  0.50400000000E-02 0.  1.
         23    2    1    2    0    0  0.00000000000E+00  0.00000000000E+00  0.28960559410E+03  0.30410420577E+03  0.92779134692E+02 0.  0.
    9000005    2    3    3    0    0 -0.40930460268E+02 -0.16680717138E+02  0.18109974551E+03  0.18694163462E+03  0.14018132062E+02 0.  0.
         22    1    3    3    0    0  0.40930460268E+02  0.16680717138E+02  0.10850584858E+03  0.11716257115E+03  0.00000000000E+00 0. -1.
         22    1    4    4    0    0 -0.24415261526E+02 -0.32233947096E+01  0.84197389626E+02  0.87725114355E+02  0.00000000000E+00 0. -1.
         22    1    4    4    0    0 -0.16515198742E+02 -0.13457322428E+02  0.96902355885E+02  0.99216520260E+02  0.00000000000E+00 0. -1.
<mgrwt>
<rscale>  0 0.92779135E+02</rscale>
<asrwt>0</asrwt>
<pdfrwt beam="1">  1        1 0.45669983E-01 0.92779135E+02</pdfrwt>
<pdfrwt beam="2">  1       -1 0.11152779E-02 0.92779135E+02</pdfrwt>
<totfact> 0.12205535E+05</totfact>
</mgrwt>
</event>
<event>
 7    1  0.2787125E-009  0.9237926E+02  0.7818608E-02  0.1297190E+00
          1   -1    0    0  501    0  0.00000000000E+00  0.00000000000E+00  0.21058950609E+01  0.21059010919E+01  0.50400000000E-02 0. -1.
         -1   -1    0    0    0  501 -0.00000000000E+00 -0.00000000000E+00 -0.10130984232E+04  0.10130984232E+04  0.50400000000E-02 0.  1.
         23    2    1    2    0    0  0.00000000000E+00 -0.35527136788E-14 -0.10109925281E+04  0.10152043243E+04  0.92379262463E+02 0.  0.
    9000005    2    3    3    0    0  0.85020827904E+01  0.30122539883E+02 -0.87841330291E+03  0.87898059736E+03  0.41601660258E+01 0.  0.
         22    1    3    3    0    0 -0.85020827904E+01 -0.30122539883E+02 -0.13257922521E+03  0.13622372693E+03  0.00000000000E+00 0. -1.
         22    1    4    4    0    0  0.52351887275E+01  0.12164212533E+02 -0.40030287594E+03  0.40052186926E+03  0.00000000000E+00 0.  1.
         22    1    4    4    0    0  0.32668940628E+01  0.17958327350E+02 -0.47811042697E+03  0.47845872810E+03  0.00000000000E+00 0.  1.
<mgrwt>
<rscale>  0 0.92379262E+02</rscale>
<asrwt>0</asrwt>
<pdfrwt beam="1">  1        1 0.32398513E-03 0.92379262E+02</pdfrwt>
<pdfrwt beam="2">  1       -1 0.15586091E+00 0.92379262E+02</pdfrwt>
<totfact> 0.24387419E+04</totfact>
</mgrwt>
</event>
<event>
 7    1  0.2787125E-009  0.8779626E+02  0.7818608E-02  0.1308278E+00
         -1   -1    0    0    0  501 -0.00000000000E+00  0.00000000000E+00  0.17019859532E+02  0.17019860278E+02  0.50400000000E-02 0.  1.
          1   -1    0    0  501    0  0.00000000000E+00 -0.00000000000E+00 -0.11322337696E+03  0.11322337707E+03  0.50400000000E-02 0. -1.
         23    2    1    2    0    0  0.35527136788E-14  0.35527136788E-14 -0.96203517431E+02  0.13024323735E+03  0.87796264785E+02 0.  0.
    9000005    2    3    3    0    0  0.16800845898E+02  0.31866247966E+02 -0.84288908837E+02  0.92300068268E+02  0.10814632084E+02 0.  0.
         22    1    3    3    0    0 -0.16800845898E+02 -0.31866247966E+02 -0.11914608594E+02  0.37943169085E+02  0.00000000000E+00 0.  1.
         22    1    4    4    0    0 -0.71086605793E+00  0.77417089726E-02 -0.28278988266E+00  0.76508862501E+00  0.00000000000E+00 0. -1.
         22    1    4    4    0    0  0.17511711956E+02  0.31858506257E+02 -0.84006118954E+02  0.91534979643E+02  0.00000000000E+00 0. -1.
<mgrwt>
<rscale>  0 0.87796265E+02</rscale>
<asrwt>0</asrwt>
<pdfrwt beam="2">  1        1 0.17418981E-01 0.87796265E+02</pdfrwt>
<pdfrwt beam="1">  1       -1 0.26184401E-02 0.87796265E+02</pdfrwt>
<totfact> 0.11815370E+05</totfact>
</mgrwt>
</event>
<event>
 7    1  0.2787125E-009  0.9249284E+02  0.7818608E-02  0.1296925E+00
         -1   -1    0    0    0  501 -0.00000000000E+00  0.00000000000E+00  0.78830621729E+02  0.78830621890E+02  0.50400000000E-02 0.  1.
          1   -1    0    0  501    0  0.00000000000E+00 -0.00000000000E+00 -0.27130719870E+02  0.27130720338E+02  0.50400000000E-02 0. -1.
         23    2    1    2    0    0 -0.71054273576E-14  0.00000000000E+00  0.51699901859E+02  0.10596134223E+03  0.92492844018E+02 0.  0.
    9000005    2    3    3    0    0  0.37629260554E+02 -0.43009996218E+01 -0.40057459370E+01  0.38599787584E+02  0.62799485218E+01 0.  0.
         22    1    3    3    0    0 -0.37629260554E+02  0.43009996218E+01  0.55705647796E+02  0.67361554644E+02  0.00000000000E+00 0.  1.
         22    1    4    4    0    0  0.12261744809E+02 -0.31170916318E+01 -0.37774744218E+01  0.13203634311E+02  0.00000000000E+00 0. -1.
         22    1    4    4    0    0  0.25367515745E+02 -0.11839079900E+01 -0.22827151515E+00  0.25396153274E+02  0.00000000000E+00 0. -1.
<mgrwt>
<rscale>  0 0.92492844E+02</rscale>
<asrwt>0</asrwt>
<pdfrwt beam="2">  1        1 0.41739571E-02 0.92492844E+02</pdfrwt>
<pdfrwt beam="1">  1       -1 0.12127788E-01 0.92492844E+02</pdfrwt>
<totfact> 0.81802315E+04</totfact>
</mgrwt>
</event>
<event>
 7    1  0.2787125E-009  0.9295562E+02  0.7818608E-02  0.1295848E+00
          1   -1    0    0  501    0  0.00000000000E+00  0.00000000000E+00  0.16597578546E+02  0.16597579312E+02  0.50400000000E-02 0. -1.
         -1   -1    0    0    0  501 -0.00000000000E+00 -0.00000000000E+00 -0.13015072630E+03  0.13015072640E+03  0.50400000000E-02 0.  1.
         23    2    1    2    0    0  0.00000000000E+00  0.00000000000E+00 -0.11355314776E+03  0.14674830571E+03  0.92955623090E+02 0.  0.
    9000005    2    3    3    0    0 -0.35256320745E+02  0.10522956533E+02 -0.10143107102E+03  0.10800962335E+03  0.49067097838E+01 0.  0.
         22    1    3    3    0    0  0.35256320745E+02 -0.10522956533E+02 -0.12122076733E+02  0.38738682360E+02  0.00000000000E+00 0. -1.
         22    1    4    4    0    0 -0.32403415569E+02  0.10623689588E+02 -0.95953792182E+02  0.10183307103E+03  0.00000000000E+00 0. -1.
         22    1    4    4    0    0 -0.28529051759E+01 -0.10073305507E+00 -0.54772788419E+01  0.61765523234E+01  0.00000000000E+00 0. -1.
<mgrwt>
<rscale>  0 0.92955623E+02</rscale>
<asrwt>0</asrwt>
<pdfrwt beam="1">  1        1 0.25534738E-02 0.92955623E+02</pdfrwt>
<pdfrwt beam="2">  1       -1 0.20023188E-01 0.92955623E+02</pdfrwt>
<totfact> 0.73433340E+04</totfact>
</mgrwt>
</event>
<event>
 7    1  0.2787125E-009  0.9442246E+02  0.7818608E-02  0.1292482E+00
         -1   -1    0    0    0  501 -0.00000000000E+00  0.00000000000E+00  0.74393735427E+01  0.74393752500E+01  0.50400000000E-02 0.  1.
          1   -1    0    0  501    0  0.00000000000E+00 -0.00000000000E+00 -0.29960855109E+03  0.29960855113E+03  0.50400000000E-02 0. -1.
         23    2    1    2    0    0  0.00000000000E+00  0.00000000000E+00 -0.29216917755E+03  0.30704792638E+03  0.94422459124E+02 0.  0.
    9000005    2    3    3    0    0 -0.33941612201E+02  0.24014047423E+02 -0.78074089333E+02  0.88952960118E+02  0.93999029853E+01 0.  0.
         22    1    3    3    0    0  0.33941612201E+02 -0.24014047423E+02 -0.21409508822E+03  0.21809496627E+03  0.00000000000E+00 0. -1.
         22    1    4    4    0    0 -0.69382510318E+01  0.45867447562E+01 -0.88164691649E+01  0.12120547982E+02  0.00000000000E+00 0.  1.
         22    1    4    4    0    0 -0.27003361169E+02  0.19427302667E+02 -0.69257620168E+02  0.76832412136E+02  0.00000000000E+00 0.  1.
<mgrwt>
<rscale>  0 0.94422459E+02</rscale>
<asrwt>0</asrwt>
<pdfrwt beam="2">  1        1 0.46093614E-01 0.94422459E+02</pdfrwt>
<pdfrwt beam="1">  1       -1 0.11445194E-02 0.94422459E+02</pdfrwt>
<totfact> 0.11666535E+05</totfact>
</mgrwt>
</event>
<event>
 7    1  0.2787125E-009  0.9169590E+02  0.7818608E-02  0.1298796E+00
          1   -1    0    0  501    0  0.00000000000E+00  0.00000000000E+00  0.44778587549E+02  0.44778587832E+02  0.50400000000E-02 0. -1.
         -1   -1    0    0    0  501 -0.00000000000E+00 -0.00000000000E+00 -0.46942847050E+02  0.46942847321E+02  0.50400000000E-02 0.  1.
         23    2    1    2    0    0  0.88817841970E-15 -0.71054273576E-14 -0.21642595018E+01  0.91721435153E+02  0.91695897658E+02 0.  0.
    9000005    2    3    3    0    0  0.62667229854E+01 -0.38432200318E+02 -0.24523544383E+02  0.46818835466E+02  0.86193553737E+01 0.  0.
         22    1    3    3    0    0 -0.62667229854E+01  0.38432200318E+02  0.22359284881E+02  0.44902599687E+02  0.00000000000E+00 0. -1.
         22    1    4    4    0    0  0.29334886317E+01 -0.31456330662E+02 -0.22622523998E+02  0.38857234672E+02  0.00000000000E+00 0. -1.
         22    1    4    4    0    0  0.33332343537E+01 -0.69758696554E+01 -0.19010203851E+01  0.79616007944E+01  0.00000000000E+00 0. -1.
<mgrwt>
<rscale>  0 0.91695898E+02</rscale>
<asrwt>0</asrwt>
<pdfrwt beam="1">  1        1 0.68890135E-02 0.91695898E+02</pdfrwt>
<pdfrwt beam="2">  1       -1 0.72219765E-02 0.91695898E+02</pdfrwt>
<totfact> 0.90762112E+04</totfact>
</mgrwt>
</event>
<event>
 7    1  0.2787125E-009  0.8979365E+02  0.7818608E-02  0.1303352E+00
          1   -1    0    0  501    0  0.00000000000E+00  0.00000000000E+00  0.36829626574E+01  0.36829661060E+01  0.50400000000E-02 0. -1.
         -1   -1    0    0    0  501 -0.00000000000E+00 -0.00000000000E+00 -0.54731044428E+03  0.54731044430E+03  0.50400000000E-02 0.  1.
         23    2    1    2    0    0  0.00000000000E+00  0.00000000000E+00 -0.54362748162E+03  0.55099341041E+03  0.89793649770E+02 0.  0.
    9000005    2    3    3    0    0  0.29119761926E+02  0.23622066687E+02 -0.42126653061E+03  0.42301620579E+03  0.84414442025E+01 0.  0.
         22    1    3    3    0    0 -0.29119761926E+02 -0.23622066687E+02 -0.12236095101E+03  0.12797720461E+03  0.00000000000E+00 0. -1.
         22    1    4    4    0    0  0.23856284186E+02  0.16644146143E+02 -0.35211588412E+03  0.35331536302E+03  0.00000000000E+00 0.  1.
         22    1    4    4    0    0  0.52634777400E+01  0.69779205441E+01 -0.69150646492E+02  0.69700842774E+02  0.00000000000E+00 0.  1.
<mgrwt>
<rscale>  0 0.89793650E+02</rscale>
<asrwt>0</asrwt>
<pdfrwt beam="1">  1        1 0.56661034E-03 0.89793650E+02</pdfrwt>
<pdfrwt beam="2">  1       -1 0.84201543E-01 0.89793650E+02</pdfrwt>
<totfact> 0.46199253E+04</totfact>
</mgrwt>
</event>
<event>
 7    1  0.2787125E-009  0.9317989E+02  0.7818608E-02  0.1295329E+00
          1   -1    0    0  501    0  0.00000000000E+00  0.00000000000E+00  0.40690443880E+03  0.40690443883E+03  0.50400000000E-02 0. -1.
         -1   -1    0    0    0  501 -0.00000000000E+00 -0.00000000000E+00 -0.53344773240E+01  0.53344797049E+01  0.50400000000E-02 0.  1.
         23    2    1    2    0    0  0.00000000000E+00 -0.44408920985E-15  0.40156996147E+03  0.41223891853E+03  0.93179890513E+02 0.  0.
    9000005    2    3    3    0    0  0.42334131240E+02  0.36444223844E+01  0.27837435213E+03  0.28192154193E+03  0.13491308323E+02 0.  0.
         22    1    3    3    0    0 -0.42334131240E+02 -0.36444223844E+01  0.12319560934E+03  0.13031737660E+03  0.00000000000E+00 0.  1.
         22    1    4    4    0    0  0.32627978277E+01  0.10114236397E+01  0.57590836966E+02  0.57692056038E+02  0.00000000000E+00 0.  1.
         22    1    4    4    0    0  0.39071333412E+02  0.26329987447E+01  0.22078351516E+03  0.22422948590E+03  0.00000000000E+00 0.  1.
<mgrwt>
<rscale>  0 0.93179891E+02</rscale>
<asrwt>0</asrwt>
<pdfrwt beam="1">  1        1 0.62600669E-01 0.93179891E+02</pdfrwt>
<pdfrwt beam="2">  1       -1 0.82068919E-03 0.93179891E+02</pdfrwt>
<totfact> 0.12767250E+05</totfact>
</mgrwt>
</event>
<event>
 7    1  0.2787125E-009  0.6574431E+02  0.7818608E-02  0.1375193E+00
         -1   -1    0    0    0  501 -0.00000000000E+00  0.00000000000E+00  0.98555640286E+01  0.98555653173E+01  0.50400000000E-02 0.  1.
          1   -1    0    0  501    0  0.00000000000E+00 -0.00000000000E+00 -0.10964146311E+03  0.10964146323E+03  0.50400000000E-02 0. -1.
         23    2    1    2    0    0  0.00000000000E+00  0.00000000000E+00 -0.99785899083E+02  0.11949702855E+03  0.65744309071E+02 0.  0.
    9000005    2    3    3    0    0 -0.17554711409E+02  0.22431415469E+02 -0.77660643056E+02  0.83429546697E+02  0.10861744317E+02 0.  0.
         22    1    3    3    0    0  0.17554711409E+02 -0.22431415469E+02 -0.22125256027E+02  0.36067481848E+02  0.00000000000E+00 0.  1.
         22    1    4    4    0    0  0.62922421289E+00  0.52245462917E+01 -0.10281871187E+02  0.11550267623E+02  0.00000000000E+00 0.  1.
         22    1    4    4    0    0 -0.18183935622E+02  0.17206869177E+02 -0.67378771869E+02  0.71879279074E+02  0.00000000000E+00 0.  1.
<mgrwt>
<rscale>  0 0.65744309E+02</rscale>
<asrwt>0</asrwt>
<pdfrwt beam="2">  1        1 0.16867917E-01 0.65744309E+02</pdfrwt>
<pdfrwt beam="1">  1       -1 0.15162408E-02 0.65744309E+02</pdfrwt>
<totfact> 0.25337595E+05</totfact>
</mgrwt>
</event>
<event>
 7    1  0.2787125E-009  0.1135110E+03  0.7818608E-02  0.1254203E+00
          1   -1    0    0  501    0  0.00000000000E+00  0.00000000000E+00  0.54351019172E+03  0.54351019174E+03  0.50400000000E-02 0. -1.
         -1   -1    0    0    0  501 -0.00000000000E+00 -0.00000000000E+00 -0.59266375361E+01  0.59266396792E+01  0.50400000000E-02 0.  1.
         23    2    1    2    0    0  0.00000000000E+00  0.71054273576E-14  0.53758355418E+03  0.54943683142E+03  0.11351103028E+03 0.  0.
    9000005    2    3    3    0    0 -0.15936685119E+02 -0.53433413646E+02  0.31760564256E+03  0.32250206276E+03  0.50128505475E+01 0.  0.
         22    1    3    3    0    0  0.15936685119E+02  0.53433413646E+02  0.21997791162E+03  0.22693476866E+03  0.00000000000E+00 0. -1.
         22    1    4    4    0    0 -0.14618326183E+02 -0.45531250757E+02  0.26305402053E+03  0.26736530810E+03  0.00000000000E+00 0.  1.
         22    1    4    4    0    0 -0.13183589359E+01 -0.79021628897E+01  0.54551622029E+02  0.55136754661E+02  0.00000000000E+00 0.  1.
<mgrwt>
<rscale>  0 0.11351103E+03</rscale>
<asrwt>0</asrwt>
<pdfrwt beam="1">  1        1 0.83616974E-01 0.11351103E+03</pdfrwt>
<pdfrwt beam="2">  1       -1 0.91179033E-03 0.11351103E+03</pdfrwt>
<totfact> 0.78156583E+04</totfact>
</mgrwt>
</event>
<event>
 7    1  0.2787125E-009  0.9183205E+02  0.7818608E-02  0.1298475E+00
          1   -1    0    0  501    0  0.00000000000E+00  0.00000000000E+00  0.41349252873E+02  0.41349253180E+02  0.50400000000E-02 0. -1.
         -1   -1    0    0    0  501 -0.00000000000E+00 -0.00000000000E+00 -0.50987165404E+02  0.50987165653E+02  0.50400000000E-02 0.  1.
         23    2    1    2    0    0  0.35527136788E-14 -0.17763568394E-14 -0.96379125312E+01  0.92336418833E+02  0.91832047157E+02 0.  0.
    9000005    2    3    3    0    0 -0.21807397399E+02  0.13238765530E+02 -0.42962243804E+02  0.50368114736E+02  0.63533530750E+01 0.  0.
         22    1    3    3    0    0  0.21807397399E+02 -0.13238765530E+02  0.33324331272E+02  0.41968304098E+02  0.00000000000E+00 0. -1.
         22    1    4    4    0    0 -0.21253770162E+02  0.13347293702E+02 -0.43015263185E+02  0.49801464458E+02  0.00000000000E+00 0.  1.
         22    1    4    4    0    0 -0.55362723728E+00 -0.10852817247E+00  0.53019381740E-01  0.56665027744E+00  0.00000000000E+00 0.  1.
<mgrwt>
<rscale>  0 0.91832047E+02</rscale>
<asrwt>0</asrwt>
<pdfrwt beam="1">  1        1 0.63614236E-02 0.91832047E+02</pdfrwt>
<pdfrwt beam="2">  1       -1 0.78441793E-02 0.91832047E+02</pdfrwt>
<totfact> 0.89296649E+04</totfact>
</mgrwt>
</event>
<event>
 6    1  0.2787125E-009  0.1433099E+03  0.7818608E-02  0.1208943E+00
          1   -1    0    0  501    0  0.00000000000E+00  0.00000000000E+00  0.80354673881E+03  0.80354673882E+03  0.50400000000E-02 0. -1.
         -1   -1    0    0    0  501 -0.00000000000E+00 -0.00000000000E+00 -0.63897080307E+01  0.63897100184E+01  0.50400000000E-02 0.  1.
    9000005    2    1    2    0    0 -0.34226451434E+02  0.21003574783E+02  0.73326146383E+03  0.73446961105E+03  0.12674189490E+02 0.  0.
         22    1    1    2    0    0  0.34226451434E+02 -0.21003574783E+02  0.63895566943E+02  0.75466837792E+02  0.00000000000E+00 0.  1.
         22    1    3    3    0    0 -0.15464222541E+02  0.67311398279E+01  0.20944554630E+03  0.21012350484E+03  0.00000000000E+00 0.  1.
         22    1    3    3    0    0 -0.18762228893E+02  0.14272434955E+02  0.52381591753E+03  0.52434610621E+03  0.00000000000E+00 0.  1.
<mgrwt>
<rscale>  0 0.14330987E+03</rscale>
<asrwt>0</asrwt>
<pdfrwt beam="1">  1        1 0.12362246E+00 0.14330987E+03</pdfrwt>
<pdfrwt beam="2">  1       -1 0.98303304E-03 0.14330987E+03</pdfrwt>
<totfact> 0.41645821E+04</totfact>
</mgrwt>
</event>
<event>
 7    1  0.2787125E-009  0.9048354E+02  0.7818608E-02  0.1301685E+00
          1   -1    0    0  501    0  0.00000000000E+00  0.00000000000E+00  0.13681140406E+02  0.13681141334E+02  0.50400000000E-02 0. -1.
         -1   -1    0    0    0  501 -0.00000000000E+00 -0.00000000000E+00 -0.14960871497E+03  0.14960871505E+03  0.50400000000E-02 0.  1.
         23    2    1    2    0    0 -0.71054273576E-14 -0.16653345369E-15 -0.13592757456E+03  0.16328985639E+03  0.90483543655E+02 0.  0.
    9000005    2    3    3    0    0  0.39971766506E+02  0.25153182167E+00 -0.10419853208E+03  0.11225518657E+03  0.12086663722E+02 0.  0.
         22    1    3    3    0    0 -0.39971766506E+02 -0.25153182167E+00 -0.31729042485E+02  0.51034669812E+02  0.00000000000E+00 0. -1.
         22    1    4    4    0    0  0.37437764216E+01 -0.17308478447E+01 -0.42380453984E+01  0.59137741719E+01  0.00000000000E+00 0. -1.
         22    1    4    4    0    0  0.36227990084E+02  0.19823796664E+01 -0.99960486678E+02  0.10634141240E+03  0.00000000000E+00 0. -1.
<mgrwt>
<rscale>  0 0.90483544E+02</rscale>
<asrwt>0</asrwt>
<pdfrwt beam="1">  1        1 0.21047910E-02 0.90483544E+02</pdfrwt>
<pdfrwt beam="2">  1       -1 0.23016724E-01 0.90483544E+02</pdfrwt>
<totfact> 0.76330372E+04</totfact>
</mgrwt>
</event>
<event>
 7    1  0.3254324E-009  0.1216683E+03  0.7818608E-02  0.1240370E+00
          1   -1    0    0  501    0  0.00000000000E+00  0.00000000000E+00  0.13935987328E+04  0.13935987328E+04  0.50400000000E-02 0. -1.
         -1   -1    0    0    0  501 -0.00000000000E+00 -0.00000000000E+00 -0.26555640561E+01  0.26555688388E+01  0.50400000000E-02 0.  1.
         23    2    1    2    0    0  0.00000000000E+00  0.71054273576E-14  0.13909431687E+04  0.13962543016E+04  0.12166830398E+03 0.  0.
    9000005    2    3    3    0    0 -0.29968639086E+01 -0.37559382176E+02  0.12412182583E+04  0.12418611762E+04  0.13293900629E+02 0.  0.
         22    1    3    3    0    0  0.29968639086E+01  0.37559382176E+02  0.14972491042E+03  0.15439312544E+03  0.00000000000E+00 0.  1.
         22    1    4    4    0    0 -0.72038399096E+01 -0.25568271220E+02  0.93943023464E+03  0.93980572331E+03  0.00000000000E+00 0.  1.
         22    1    4    4    0    0  0.42069760009E+01 -0.11991110956E+02  0.30178802364E+03  0.30205545286E+03  0.00000000000E+00 0.  1.
<mgrwt>
<rscale>  0 0.12166830E+03</rscale>
<asrwt>0</asrwt>
<pdfrwt beam="1">  1        1 0.21439982E+00 0.12166830E+03</pdfrwt>
<pdfrwt beam="2">  1       -1 0.40854867E-03 0.12166830E+03</pdfrwt>
<totfact> 0.53877997E+04</totfact>
</mgrwt>
</event>
<event>
 7    1  0.3449866E-009  0.9029082E+02  0.7818608E-02  0.1302149E+00
          1   -1    0    0  501    0  0.00000000000E+00  0.00000000000E+00  0.79406734424E+01  0.79406750419E+01  0.50400000000E-02 0. -1.
         -1   -1    0    0    0  501 -0.00000000000E+00 -0.00000000000E+00 -0.25666685823E+03  0.25666685828E+03  0.50400000000E-02 0.  1.
         23    2    1    2    0    0 -0.22204460493E-15  0.00000000000E+00 -0.24872618478E+03  0.26460753332E+03  0.90290817314E+02 0.  0.
    9000005    2    3    3    0    0  0.14523563016E+01 -0.27213117159E+02 -0.22862128765E+03  0.23074206457E+03  0.15216573665E+02 0.  0.
         22    1    3    3    0    0 -0.14523563016E+01  0.27213117159E+02 -0.20104897137E+02  0.33865468744E+02  0.00000000000E+00 0. -1.
         22    1    4    4    0    0 -0.22208084836E+01 -0.14358200626E+02 -0.16980477738E+03  0.17042521039E+03  0.00000000000E+00 0. -1.
         22    1    4    4    0    0  0.36731647853E+01 -0.12854916533E+02 -0.58816510269E+02  0.60316854185E+02  0.00000000000E+00 0. -1.
<mgrwt>
<rscale>  0 0.90290817E+02</rscale>
<asrwt>0</asrwt>
<pdfrwt beam="1">  1        1 0.12216424E-02 0.90290817E+02</pdfrwt>
<pdfrwt beam="2">  1       -1 0.39487203E-01 0.90290817E+02</pdfrwt>
<totfact> 0.65840599E+04</totfact>
</mgrwt>
</event>
<event>
 7    1  0.2787125E-009  0.9060653E+02  0.7818608E-02  0.1301390E+00
         -1   -1    0    0    0  501 -0.00000000000E+00  0.00000000000E+00  0.79980055234E+02  0.79980055392E+02  0.50400000000E-02 0.  1.
          1   -1    0    0  501    0  0.00000000000E+00 -0.00000000000E+00 -0.25661220979E+02  0.25661221474E+02  0.50400000000E-02 0. -1.
         23    2    1    2    0    0  0.00000000000E+00  0.00000000000E+00  0.54318834255E+02  0.10564127687E+03  0.90606531901E+02 0.  0.
    9000005    2    3    3    0    0  0.32869388374E+02 -0.29267153027E+02  0.21689637874E+02  0.50854167116E+02  0.13369479557E+02 0.  0.
         22    1    3    3    0    0 -0.32869388374E+02  0.29267153027E+02  0.32629196380E+02  0.54787109750E+02  0.00000000000E+00 0.  1.
         22    1    4    4    0    0  0.24751818826E+02 -0.14336503499E+02  0.10328090355E+02  0.30411466886E+02  0.00000000000E+00 0.  1.
         22    1    4    4    0    0  0.81175695474E+01 -0.14930649527E+02  0.11361547519E+02  0.20442700230E+02  0.00000000000E+00 0.  1.
<mgrwt>
<rscale>  0 0.90606532E+02</rscale>
<asrwt>0</asrwt>
<pdfrwt beam="2">  1        1 0.39478803E-02 0.90606532E+02</pdfrwt>
<pdfrwt beam="1">  1       -1 0.12304624E-01 0.90606532E+02</pdfrwt>
<totfact> 0.86024014E+04</totfact>
</mgrwt>
</event>
<event>
 7    1  0.2787125E-009  0.9011542E+02  0.7818608E-02  0.1302572E+00
         -1   -1    0    0    0  501 -0.00000000000E+00  0.00000000000E+00  0.83982380581E+02  0.83982380732E+02  0.50400000000E-02 0.  1.
          1   -1    0    0  501    0  0.00000000000E+00 -0.00000000000E+00 -0.24174085481E+02  0.24174086007E+02  0.50400000000E-02 0. -1.
         23    2    1    2    0    0  0.00000000000E+00 -0.16653345369E-15  0.59808295099E+02  0.10815646674E+03  0.90115421181E+02 0.  0.
    9000005    2    3    3    0    0 -0.13991245468E+02  0.42093946937E+00  0.81171871577E+02  0.82615626116E+02  0.63668519260E+01 0.  0.
         22    1    3    3    0    0  0.13991245468E+02 -0.42093946937E+00 -0.21363576478E+02  0.25540840622E+02  0.00000000000E+00 0. -1.
         22    1    4    4    0    0 -0.65574747095E+01  0.31813409770E+01  0.32984477062E+02  0.33780129248E+02  0.00000000000E+00 0. -1.
         22    1    4    4    0    0 -0.74337707585E+01 -0.27604015077E+01  0.48187394515E+02  0.48835496868E+02  0.00000000000E+00 0. -1.
<mgrwt>
<rscale>  0 0.90115421E+02</rscale>
<asrwt>0</asrwt>
<pdfrwt beam="2">  1        1 0.37190901E-02 0.90115421E+02</pdfrwt>
<pdfrwt beam="1">  1       -1 0.12920366E-01 0.90115421E+02</pdfrwt>
<totfact> 0.86507609E+04</totfact>
</mgrwt>
</event>
<event>
 7    1  0.2787125E-009  0.9053439E+02  0.7818608E-02  0.1301563E+00
         -1   -1    0    0    0  501 -0.00000000000E+00  0.00000000000E+00  0.77945981615E+02  0.77945981778E+02  0.50400000000E-02 0. -1.
          1   -1    0    0  501    0  0.00000000000E+00 -0.00000000000E+00 -0.26288961450E+02  0.26288961933E+02  0.50400000000E-02 0.  1.
         23    2    1    2    0    0  0.17763568394E-14  0.00000000000E+00  0.51657020165E+02  0.10423494371E+03  0.90534389920E+02 0.  0.
    9000005    2    3    3    0    0 -0.95143653981E+01  0.11001979660E+02  0.75005340318E+02  0.76726567544E+02  0.70426121219E+01 0.  0.
         22    1    3    3    0    0  0.95143653981E+01 -0.11001979660E+02 -0.23348320154E+02  0.27508376167E+02  0.00000000000E+00 0.  1.
         22    1    4    4    0    0 -0.11504648791E+01  0.16242507261E+01  0.27963154931E+01  0.34323665591E+01  0.00000000000E+00 0.  1.
         22    1    4    4    0    0 -0.83639005190E+01  0.93777289336E+01  0.72209024825E+02  0.73294200985E+02  0.00000000000E+00 0.  1.
<mgrwt>
<rscale>  0 0.90534390E+02</rscale>
<asrwt>0</asrwt>
<pdfrwt beam="2">  1        1 0.40444557E-02 0.90534390E+02</pdfrwt>
<pdfrwt beam="1">  1       -1 0.11991689E-01 0.90534390E+02</pdfrwt>
<totfact> 0.86572692E+04</totfact>
</mgrwt>
</event>
<event>
 7    1  0.2787125E-009  0.9359208E+02  0.7818608E-02  0.1294379E+00
          1   -1    0    0  501    0  0.00000000000E+00  0.00000000000E+00  0.58772055862E+02  0.58772056078E+02  0.50400000000E-02 0. -1.
         -1   -1    0    0    0  501 -0.00000000000E+00 -0.00000000000E+00 -0.37260384820E+02  0.37260385161E+02  0.50400000000E-02 0.  1.
         23    2    1    2    0    0  0.35527136788E-14  0.00000000000E+00  0.21511671041E+02  0.96032441239E+02  0.93592081819E+02 0.  0.
    9000005    2    3    3    0    0  0.22172505232E+02  0.10717620601E+02  0.51211367433E+02  0.57450588699E+02  0.84545022240E+01 0.  0.
         22    1    3    3    0    0 -0.22172505232E+02 -0.10717620601E+02 -0.29699696392E+02  0.38581852540E+02  0.00000000000E+00 0.  1.
         22    1    4    4    0    0  0.26698086782E+01  0.11627607371E+01  0.14557804879E+02  0.14846197284E+02  0.00000000000E+00 0.  1.
         22    1    4    4    0    0  0.19502696554E+02  0.95548598639E+01  0.36653562555E+02  0.42604391415E+02  0.00000000000E+00 0.  1.
<mgrwt>
<rscale>  0 0.93592082E+02</rscale>
<asrwt>0</asrwt>
<pdfrwt beam="1">  1        1 0.90418548E-02 0.93592082E+02</pdfrwt>
<pdfrwt beam="2">  1       -1 0.57323670E-02 0.93592082E+02</pdfrwt>
<totfact> 0.89325865E+04</totfact>
</mgrwt>
</event>
<event>
 7    1  0.2787125E-009  0.9094052E+02  0.7818608E-02  0.1300590E+00
          1   -1    0    0  501    0  0.00000000000E+00  0.00000000000E+00  0.63208546810E+01  0.63208566903E+01  0.50400000000E-02 0. -1.
         -1   -1    0    0    0  501 -0.00000000000E+00 -0.00000000000E+00 -0.32709882671E+03  0.32709882675E+03  0.50400000000E-02 0.  1.
         23    2    1    2    0    0  0.71054273576E-14  0.00000000000E+00 -0.32077797203E+03  0.33341968344E+03  0.90940518833E+02 0.  0.
    9000005    2    3    3    0    0 -0.40026981695E+02  0.92697895086E+01 -0.99998755155E+02  0.10884998187E+03  0.12668040831E+02 0.  0.
         22    1    3    3    0    0  0.40026981695E+02 -0.92697895086E+01 -0.22077921688E+03  0.22456970158E+03  0.00000000000E+00 0.  1.
         22    1    4    4    0    0 -0.18093831551E+02  0.75410091675E+01 -0.61012438278E+02  0.64084094626E+02  0.00000000000E+00 0.  1.
         22    1    4    4    0    0 -0.21933150144E+02  0.17287803411E+01 -0.38986316877E+02  0.44765887240E+02  0.00000000000E+00 0.  1.
<mgrwt>
<rscale>  0 0.90940519E+02</rscale>
<asrwt>0</asrwt>
<pdfrwt beam="1">  1        1 0.97243959E-03 0.90940519E+02</pdfrwt>
<pdfrwt beam="2">  1       -1 0.50322884E-01 0.90940519E+02</pdfrwt>
<totfact> 0.58883808E+04</totfact>
</mgrwt>
</event>
<event>
 7    1  0.2787125E-009  0.9105075E+02  0.7818608E-02  0.1300327E+00
          1   -1    0    0  501    0  0.00000000000E+00  0.00000000000E+00  0.53488922159E+03  0.53488922162E+03  0.50400000000E-02 0.  1.
         -1   -1    0    0    0  501 -0.00000000000E+00 -0.00000000000E+00 -0.38747440753E+01  0.38747473532E+01  0.50400000000E-02 0. -1.
         23    2    1    2    0    0  0.00000000000E+00  0.00000000000E+00  0.53101447752E+03  0.53876396897E+03  0.91050749183E+02 0.  0.
    9000005    2    3    3    0    0 -0.26955953378E+02  0.59936267673E+01  0.47892098004E+03  0.47980398709E+03  0.91659105236E+01 0.  0.
         22    1    3    3    0    0  0.26955953378E+02 -0.59936267673E+01  0.52093497473E+02  0.58959981880E+02  0.00000000000E+00 0. -1.
         22    1    4    4    0    0 -0.18673564576E+02  0.37283472490E+01  0.25098081974E+03  0.25170215427E+03  0.00000000000E+00 0.  1.
         22    1    4    4    0    0 -0.82823888020E+01  0.22652795183E+01  0.22794016030E+03  0.22810183282E+03  0.00000000000E+00 0.  1.
<mgrwt>
<rscale>  0 0.91050749E+02</rscale>
<asrwt>0</asrwt>
<pdfrwt beam="1">  1        1 0.82290693E-01 0.91050749E+02</pdfrwt>
<pdfrwt beam="2">  1       -1 0.59611442E-03 0.91050749E+02</pdfrwt>
<totfact> 0.14080535E+05</totfact>
</mgrwt>
</event>
<event>
 7    1  0.2787125E-009  0.9038262E+02  0.7818608E-02  0.1301928E+00
          1   -1    0    0  501    0  0.00000000000E+00  0.00000000000E+00  0.75614542487E+03  0.75614542488E+03  0.50400000000E-02 0. -1.
         -1   -1    0    0    0  501 -0.00000000000E+00 -0.00000000000E+00 -0.27008727868E+01  0.27008774893E+01  0.50400000000E-02 0.  1.
         23    2    1    2    0    0  0.00000000000E+00  0.27755575616E-16  0.75344455208E+03  0.75884630237E+03  0.90382617610E+02 0.  0.
    9000005    2    3    3    0    0  0.35864745887E+02 -0.18720395049E+00  0.60598255966E+03  0.60708545679E+03  0.71815175306E+01 0.  0.
         22    1    3    3    0    0 -0.35864745887E+02  0.18720395049E+00  0.14746199242E+03  0.15176084558E+03  0.00000000000E+00 0.  1.
         22    1    4    4    0    0  0.32844541489E+02 -0.72642814916E+00  0.57852162781E+03  0.57945367843E+03  0.00000000000E+00 0. -1.
         22    1    4    4    0    0  0.30202043974E+01  0.53922419867E+00  0.27460931849E+02  0.27631778361E+02  0.00000000000E+00 0. -1.
<mgrwt>
<rscale>  0 0.90382618E+02</rscale>
<asrwt>0</asrwt>
<pdfrwt beam="1">  1        1 0.11633027E+00 0.90382618E+02</pdfrwt>
<pdfrwt beam="2">  1       -1 0.41551854E-03 0.90382618E+02</pdfrwt>
<totfact> 0.14516856E+05</totfact>
</mgrwt>
</event>
<event>
 7    1  0.2787125E-009  0.9137201E+02  0.7818608E-02  0.1299563E+00
         -1   -1    0    0    0  501 -0.00000000000E+00  0.00000000000E+00  0.64701892249E+01  0.64701911879E+01  0.50400000000E-02 0.  1.
          1   -1    0    0  501    0  0.00000000000E+00 -0.00000000000E+00 -0.32258881047E+03  0.32258881051E+03  0.50400000000E-02 0. -1.
         23    2    1    2    0    0 -0.35527136788E-14  0.00000000000E+00 -0.31611862124E+03  0.32905900170E+03  0.91372008296E+02 0.  0.
    9000005    2    3    3    0    0  0.25269086660E+02 -0.42426656277E+01 -0.29313147685E+03  0.29463610583E+03  0.15094541669E+02 0.  0.
         22    1    3    3    0    0 -0.25269086660E+02  0.42426656277E+01 -0.22987144398E+02  0.34422895867E+02  0.00000000000E+00 0.  1.
         22    1    4    4    0    0  0.40274273358E+01 -0.65170770324E+00 -0.13293328901E+03  0.13299588047E+03  0.00000000000E+00 0. -1.
         22    1    4    4    0    0  0.21241659325E+02 -0.35909579244E+01 -0.16019818783E+03  0.16164022536E+03  0.00000000000E+00 0. -1.
<mgrwt>
<rscale>  0 0.91372008E+02</rscale>
<asrwt>0</asrwt>
<pdfrwt beam="2">  1        1 0.49629036E-01 0.91372008E+02</pdfrwt>
<pdfrwt beam="1">  1       -1 0.99541413E-03 0.91372008E+02</pdfrwt>
<totfact> 0.12914831E+05</totfact>
</mgrwt>
</event>
<event>
 7    1  0.2787125E-009  0.8572658E+02  0.7818608E-02  0.1313543E+00
          1   -1    0    0  501    0  0.00000000000E+00  0.00000000000E+00  0.53799595519E+02  0.53799595755E+02  0.50400000000E-02 0. -1.
         -1   -1    0    0    0  501 -0.00000000000E+00 -0.00000000000E+00 -0.34150099094E+02  0.34150099466E+02  0.50400000000E-02 0.  1.
         23    2    1    2    0    0  0.00000000000E+00  0.00000000000E+00  0.19649496425E+02  0.87949695220E+02  0.85726578023E+02 0.  0.
    9000005    2    3    3    0    0  0.18340430552E+02  0.14734551617E+02  0.45600082592E+02  0.52922401197E+02  0.12958958748E+02 0.  0.
         22    1    3    3    0    0 -0.18340430552E+02 -0.14734551617E+02 -0.25950586167E+02  0.35027294024E+02  0.00000000000E+00 0.  1.
         22    1    4    4    0    0  0.19802351929E+02  0.10614296982E+02  0.38895537441E+02  0.44918362338E+02  0.00000000000E+00 0. -1.
         22    1    4    4    0    0 -0.14619213762E+01  0.41202546349E+01  0.67045451509E+01  0.80040388584E+01  0.00000000000E+00 0. -1.
<mgrwt>
<rscale>  0 0.85726578E+02</rscale>
<asrwt>0</asrwt>
<pdfrwt beam="1">  1        1 0.82768609E-02 0.85726578E+02</pdfrwt>
<pdfrwt beam="2">  1       -1 0.52538615E-02 0.85726578E+02</pdfrwt>
<totfact> 0.11245478E+05</totfact>
</mgrwt>
</event>
<event>
 7    1  0.2787125E-009  0.9146907E+02  0.7818608E-02  0.1299333E+00
         -1   -1    0    0    0  501 -0.00000000000E+00  0.00000000000E+00  0.14386834360E+03  0.14386834369E+03  0.50400000000E-02 0.  1.
          1   -1    0    0  501    0  0.00000000000E+00 -0.00000000000E+00 -0.14538623641E+02  0.14538624515E+02  0.50400000000E-02 0. -1.
         23    2    1    2    0    0  0.00000000000E+00  0.00000000000E+00  0.12932971996E+03  0.15840696820E+03  0.91469071881E+02 0.  0.
    9000005    2    3    3    0    0  0.14163745857E+02 -0.41295809224E+02  0.43022939065E+02  0.61686670518E+02  0.69510055077E+01 0.  0.
         22    1    3    3    0    0 -0.14163745857E+02  0.41295809224E+02  0.86306780891E+02  0.96720297683E+02  0.00000000000E+00 0. -1.
         22    1    4    4    0    0  0.19339738837E+01 -0.15550202116E+02  0.16436865140E+02  0.22709460066E+02  0.00000000000E+00 0.  1.
         22    1    4    4    0    0  0.12229771973E+02 -0.25745607108E+02  0.26586073925E+02  0.38977210452E+02  0.00000000000E+00 0.  1.
<mgrwt>
<rscale>  0 0.91469072E+02</rscale>
<asrwt>0</asrwt>
<pdfrwt beam="2">  1        1 0.22367115E-02 0.91469072E+02</pdfrwt>
<pdfrwt beam="1">  1       -1 0.22133590E-01 0.91469072E+02</pdfrwt>
<totfact> 0.74888431E+04</totfact>
</mgrwt>
</event>
<event>
 7    1  0.2787125E-009  0.8972797E+02  0.7818608E-02  0.1303512E+00
         -1   -1    0    0    0  501 -0.00000000000E+00  0.00000000000E+00  0.92244207660E+02  0.92244207798E+02  0.50400000000E-02 0.  1.
          1   -1    0    0  501    0  0.00000000000E+00 -0.00000000000E+00 -0.21820093935E+02  0.21820094517E+02  0.50400000000E-02 0. -1.
         23    2    1    2    0    0  0.17763568394E-14  0.00000000000E+00  0.70424113725E+02  0.11406430232E+03  0.89727973725E+02 0.  0.
    9000005    2    3    3    0    0 -0.10020713498E+02  0.43583983639E+02  0.37943217688E+02  0.58792366071E+02  0.41080665591E+01 0.  0.
         22    1    3    3    0    0  0.10020713498E+02 -0.43583983639E+02  0.32480896037E+02  0.55271936244E+02  0.00000000000E+00 0. -1.
         22    1    4    4    0    0 -0.69078245399E+01  0.23355691354E+02  0.18787713864E+02  0.30760112983E+02  0.00000000000E+00 0.  1.
         22    1    4    4    0    0 -0.31128889582E+01  0.20228292285E+02  0.19155503824E+02  0.28032253088E+02  0.00000000000E+00 0.  1.
<mgrwt>
<rscale>  0 0.89727974E+02</rscale>
<asrwt>0</asrwt>
<pdfrwt beam="2">  1        1 0.33569375E-02 0.89727974E+02</pdfrwt>
<pdfrwt beam="1">  1       -1 0.14191417E-01 0.89727974E+02</pdfrwt>
<totfact> 0.86045282E+04</totfact>
</mgrwt>
</event>
<event>
 7    1  0.2787125E-009  0.1044004E+03  0.7818608E-02  0.1271306E+00
         -1   -1    0    0    0  501 -0.00000000000E+00  0.00000000000E+00  0.39902582269E+02  0.39902582588E+02  0.50400000000E-02 0.  1.
          1   -1    0    0  501    0  0.00000000000E+00 -0.00000000000E+00 -0.68287789602E+02  0.68287789788E+02  0.50400000000E-02 0. -1.
         23    2    1    2    0    0 -0.71054273576E-14  0.00000000000E+00 -0.28385207333E+02  0.10819037238E+03  0.10440036724E+03 0.  0.
    9000005    2    3    3    0    0  0.44225715253E+02 -0.22645194432E+02  0.20543771604E+01  0.49921280872E+02  0.43812210440E+01 0.  0.
         22    1    3    3    0    0 -0.44225715253E+02  0.22645194432E+02 -0.30439584493E+02  0.58269091504E+02  0.00000000000E+00 0. -1.
         22    1    4    4    0    0  0.25347078882E+01 -0.25444687667E+01 -0.10885152559E-01  0.35915433827E+01  0.00000000000E+00 0.  1.
         22    1    4    4    0    0  0.41691007365E+02 -0.20100725665E+02  0.20652623129E+01  0.46329737489E+02  0.00000000000E+00 0.  1.
<mgrwt>
<rscale>  0 0.10440037E+03</rscale>
<asrwt>0</asrwt>
<pdfrwt beam="2">  1        1 0.10505814E-01 0.10440037E+03</pdfrwt>
<pdfrwt beam="1">  1       -1 0.61388589E-02 0.10440037E+03</pdfrwt>
<totfact> 0.67366922E+04</totfact>
</mgrwt>
</event>
<event>
 7    1  0.3223795E-009  0.8877868E+02  0.7818608E-02  0.1305837E+00
          1   -1    0    0  501    0  0.00000000000E+00  0.00000000000E+00  0.36934571452E+03  0.36934571456E+03  0.50400000000E-02 0. -1.
         -1   -1    0    0    0  501 -0.00000000000E+00 -0.00000000000E+00 -0.53348740231E+01  0.53348764038E+01  0.50400000000E-02 0.  1.
         23    2    1    2    0    0  0.35527136788E-14 -0.17763568394E-14  0.36401084050E+03  0.37468059096E+03  0.88778675601E+02 0.  0.
    9000005    2    3    3    0    0 -0.27513672256E+02  0.99734978762E+01  0.32106434750E+03  0.32271065656E+03  0.14261128964E+02 0.  0.
         22    1    3    3    0    0  0.27513672256E+02 -0.99734978762E+01  0.42946492998E+02  0.51969934401E+02  0.00000000000E+00 0.  1.
         22    1    4    4    0    0 -0.86510891302E+01  0.62190241461E+01  0.59984509036E+02  0.60923385730E+02  0.00000000000E+00 0. -1.
         22    1    4    4    0    0 -0.18862583125E+02  0.37544737302E+01  0.26107983847E+03  0.26178727083E+03  0.00000000000E+00 0. -1.
<mgrwt>
<rscale>  0 0.88778676E+02</rscale>
<asrwt>0</asrwt>
<pdfrwt beam="1">  1        1 0.56822427E-01 0.88778676E+02</pdfrwt>
<pdfrwt beam="2">  1       -1 0.82074991E-03 0.88778676E+02</pdfrwt>
<totfact> 0.14283540E+05</totfact>
</mgrwt>
</event>
<event>
 7    1  0.2787125E-009  0.9053922E+02  0.7818608E-02  0.1301551E+00
         -1   -1    0    0    0  501 -0.00000000000E+00  0.00000000000E+00  0.19026847914E+02  0.19026848581E+02  0.50400000000E-02 0.  1.
          1   -1    0    0  501    0  0.00000000000E+00 -0.00000000000E+00 -0.10770766362E+03  0.10770766374E+03  0.50400000000E-02 0. -1.
         23    2    1    2    0    0  0.00000000000E+00 -0.17763568394E-14 -0.88680815708E+02  0.12673451232E+03  0.90539215473E+02 0.  0.
    9000005    2    3    3    0    0 -0.27380153017E+02 -0.14571397531E+02  0.15383289711E+01  0.31332769822E+02  0.41686452782E+01 0.  0.
         22    1    3    3    0    0  0.27380153017E+02  0.14571397531E+02 -0.90219144679E+02  0.95401742499E+02  0.00000000000E+00 0. -1.
         22    1    4    4    0    0 -0.24084112346E+02 -0.11397881845E+02  0.20762311405E+01  0.26725772464E+02  0.00000000000E+00 0.  1.
         22    1    4    4    0    0 -0.32960406712E+01 -0.31735156856E+01 -0.53790216946E+00  0.46069973580E+01  0.00000000000E+00 0.  1.
<mgrwt>
<rscale>  0 0.90539215E+02</rscale>
<asrwt>0</asrwt>
<pdfrwt beam="2">  1        1 0.16570409E-01 0.90539215E+02</pdfrwt>
<pdfrwt beam="1">  1       -1 0.29272075E-02 0.90539215E+02</pdfrwt>
<totfact> 0.10779757E+05</totfact>
</mgrwt>
</event>
<event>
 7    1  0.2787125E-009  0.9125290E+02  0.7818608E-02  0.1299846E+00
         -1   -1    0    0    0  501 -0.00000000000E+00  0.00000000000E+00  0.53109279625E+02  0.53109279864E+02  0.50400000000E-02 0.  1.
          1   -1    0    0  501    0  0.00000000000E+00 -0.00000000000E+00 -0.39197915013E+02  0.39197915337E+02  0.50400000000E-02 0. -1.
         23    2    1    2    0    0  0.00000000000E+00  0.00000000000E+00  0.13911364612E+02  0.92307195201E+02  0.91252902532E+02 0.  0.
    9000005    2    3    3    0    0  0.31630112714E+02  0.14352251134E+02  0.36002876850E+02  0.51143059648E+02  0.10627994436E+02 0.  0.
         22    1    3    3    0    0 -0.31630112714E+02 -0.14352251134E+02 -0.22091512238E+02  0.41164135554E+02  0.00000000000E+00 0.  1.
         22    1    4    4    0    0  0.26483194488E+02  0.74827581125E+01  0.24931860608E+02  0.37134201657E+02  0.00000000000E+00 0.  1.
         22    1    4    4    0    0  0.51469182259E+01  0.68694930215E+01  0.11071016242E+02  0.14008857991E+02  0.00000000000E+00 0.  1.
<mgrwt>
<rscale>  0 0.91252903E+02</rscale>
<asrwt>0</asrwt>
<pdfrwt beam="2">  1        1 0.60304485E-02 0.91252903E+02</pdfrwt>
<pdfrwt beam="1">  1       -1 0.81706585E-02 0.91252903E+02</pdfrwt>
<totfact> 0.90171546E+04</totfact>
</mgrwt>
</event>
<event>
 7    1  0.2787125E-009  0.9363796E+02  0.7818608E-02  0.1294274E+00
         -1   -1    0    0    0  501 -0.00000000000E+00  0.00000000000E+00  0.16059068064E+03  0.16059068072E+03  0.50400000000E-02 0.  1.
          1   -1    0    0  501    0  0.00000000000E+00 -0.00000000000E+00 -0.13649712761E+02  0.13649713692E+02  0.50400000000E-02 0. -1.
         23    2    1    2    0    0  0.71054273576E-14  0.00000000000E+00  0.14694096788E+03  0.17424039441E+03  0.93637957066E+02 0.  0.
    9000005    2    3    3    0    0  0.44186788922E+02 -0.32877989188E+01  0.49213540241E+02  0.66937402609E+02  0.97653155650E+01 0.  0.
         22    1    3    3    0    0 -0.44186788922E+02  0.32877989188E+01  0.97727427641E+02  0.10730299180E+03  0.00000000000E+00 0.  1.
         22    1    4    4    0    0  0.14470734951E+02 -0.50396405453E+01  0.13293347981E+02  0.20285789296E+02  0.00000000000E+00 0. -1.
         22    1    4    4    0    0  0.29716053971E+02  0.17518416264E+01  0.35920192259E+02  0.46651613312E+02  0.00000000000E+00 0. -1.
<mgrwt>
<rscale>  0 0.93637957E+02</rscale>
<asrwt>0</asrwt>
<pdfrwt beam="2">  1        1 0.20999560E-02 0.93637957E+02</pdfrwt>
<pdfrwt beam="1">  1       -1 0.24706258E-01 0.93637957E+02</pdfrwt>
<totfact> 0.68650178E+04</totfact>
</mgrwt>
</event>
<event>
 7    1  0.2787125E-009  0.9051357E+02  0.7818608E-02  0.1301613E+00
         -1   -1    0    0    0  501 -0.00000000000E+00  0.00000000000E+00  0.49996780629E+02  0.49996780883E+02  0.50400000000E-02 0.  1.
          1   -1    0    0  501    0  0.00000000000E+00 -0.00000000000E+00 -0.40966173335E+02  0.40966173645E+02  0.50400000000E-02 0. -1.
         23    2    1    2    0    0  0.71054273576E-14  0.44408920985E-15  0.90306072939E+01  0.90962954528E+02  0.90513574829E+02 0.  0.
    9000005    2    3    3    0    0 -0.36771961407E+02  0.22907498054E+01  0.28642957628E+02  0.49224854834E+02  0.15660224498E+02 0.  0.
         22    1    3    3    0    0  0.36771961407E+02 -0.22907498054E+01 -0.19612350334E+02  0.41738099694E+02  0.00000000000E+00 0. -1.
         22    1    4    4    0    0 -0.18469783232E+01  0.46645526067E+01  0.32165926764E+01  0.59595174631E+01  0.00000000000E+00 0.  1.
         22    1    4    4    0    0 -0.34924983084E+02 -0.23738028013E+01  0.25426364952E+02  0.43265337371E+02  0.00000000000E+00 0.  1.
<mgrwt>
<rscale>  0 0.90513575E+02</rscale>
<asrwt>0</asrwt>
<pdfrwt beam="2">  1        1 0.63024883E-02 0.90513575E+02</pdfrwt>
<pdfrwt beam="1">  1       -1 0.76918124E-02 0.90513575E+02</pdfrwt>
<totfact> 0.92884217E+04</totfact>
</mgrwt>
</event>
<event>
 7    1  0.2787125E-009  0.9286447E+02  0.7818608E-02  0.1296060E+00
         -1   -1    0    0    0  501 -0.00000000000E+00  0.00000000000E+00  0.28220119177E+01  0.28220164183E+01  0.50400000000E-02 0.  1.
          1   -1    0    0  501    0  0.00000000000E+00 -0.00000000000E+00 -0.76397648273E+03  0.76397648275E+03  0.50400000000E-02 0. -1.
         23    2    1    2    0    0  0.00000000000E+00  0.00000000000E+00 -0.76115447081E+03  0.76679849917E+03  0.92864470515E+02 0.  0.
    9000005    2    3    3    0    0 -0.26650558462E+02 -0.77282076040E+01 -0.68710544538E+03  0.68772109641E+03  0.87427636794E+01 0.  0.
         22    1    3    3    0    0  0.26650558462E+02  0.77282076040E+01 -0.74049025437E+02  0.79077402760E+02  0.00000000000E+00 0.  1.
         22    1    4    4    0    0 -0.57466004369E+01 -0.54396585294E+01 -0.22075559120E+03  0.22089736156E+03  0.00000000000E+00 0. -1.
         22    1    4    4    0    0 -0.20903958025E+02 -0.22885490746E+01 -0.46634985418E+03  0.46682373484E+03  0.00000000000E+00 0. -1.
<mgrwt>
<rscale>  0 0.92864471E+02</rscale>
<asrwt>0</asrwt>
<pdfrwt beam="2">  1        1 0.11753468E+00 0.92864471E+02</pdfrwt>
<pdfrwt beam="1">  1       -1 0.43415663E-03 0.92864471E+02</pdfrwt>
<totfact> 0.13505398E+05</totfact>
</mgrwt>
</event>
<event>
 7    1  0.2787125E-009  0.9180035E+02  0.7818608E-02  0.1298550E+00
          1   -1    0    0  501    0  0.00000000000E+00  0.00000000000E+00  0.33843234560E+01  0.33843272088E+01  0.50400000000E-02 0. -1.
         -1   -1    0    0    0  501 -0.00000000000E+00 -0.00000000000E+00 -0.62252468167E+03  0.62252468169E+03  0.50400000000E-02 0.  1.
         23    2    1    2    0    0  0.22204460493E-15  0.71054273576E-14 -0.61914035821E+03  0.62590900890E+03  0.91800349954E+02 0.  0.
    9000005    2    3    3    0    0  0.11368936495E+01  0.39387667324E+02 -0.46803033915E+03  0.46974589314E+03  0.74916543891E+01 0.  0.
         22    1    3    3    0    0 -0.11368936495E+01 -0.39387667324E+02 -0.15111001906E+03  0.15616311576E+03  0.00000000000E+00 0. -1.
         22    1    4    4    0    0 -0.15454175060E+01  0.32627964812E+02 -0.39838813261E+03  0.39972500123E+03  0.00000000000E+00 0. -1.
         22    1    4    4    0    0  0.26823111555E+01  0.67597025124E+01 -0.69642206542E+02  0.70020891905E+02  0.00000000000E+00 0. -1.
<mgrwt>
<rscale>  0 0.91800350E+02</rscale>
<asrwt>0</asrwt>
<pdfrwt beam="1">  1        1 0.52066593E-03 0.91800350E+02</pdfrwt>
<pdfrwt beam="2">  1       -1 0.95772937E-01 0.91800350E+02</pdfrwt>
<totfact> 0.39771275E+04</totfact>
</mgrwt>
</event>
<event>
 7    1  0.2787125E-009  0.9251145E+02  0.7818608E-02  0.1296881E+00
         -1   -1    0    0    0  501 -0.00000000000E+00  0.00000000000E+00  0.68039310955E+02  0.68039311141E+02  0.50400000000E-02 0.  1.
          1   -1    0    0  501    0  0.00000000000E+00 -0.00000000000E+00 -0.31446412108E+02  0.31446412512E+02  0.50400000000E-02 0. -1.
         23    2    1    2    0    0  0.00000000000E+00  0.71054273576E-14  0.36592898847E+02  0.99485723653E+02  0.92511453155E+02 0.  0.
    9000005    2    3    3    0    0  0.14135754190E+02 -0.38127508279E+02 -0.27490320526E+01  0.42905568466E+02  0.13409108625E+02 0.  0.
         22    1    3    3    0    0 -0.14135754190E+02  0.38127508279E+02  0.39341930899E+02  0.56580155187E+02  0.00000000000E+00 0.  1.
         22    1    4    4    0    0  0.12250054680E+02 -0.30694891483E+02  0.31954381600E+01  0.33203177978E+02  0.00000000000E+00 0.  1.
         22    1    4    4    0    0  0.18856995105E+01 -0.74326167963E+01 -0.59444702126E+01  0.97023904886E+01  0.00000000000E+00 0.  1.
<mgrwt>
<rscale>  0 0.92511453E+02</rscale>
<asrwt>0</asrwt>
<pdfrwt beam="2">  1        1 0.48379096E-02 0.92511453E+02</pdfrwt>
<pdfrwt beam="1">  1       -1 0.10467586E-01 0.92511453E+02</pdfrwt>
<totfact> 0.83774046E+04</totfact>
</mgrwt>
</event>
<event>
 7    1  0.2787125E-009  0.9099647E+02  0.7818608E-02  0.1300456E+00
          1   -1    0    0  501    0  0.00000000000E+00  0.00000000000E+00  0.52361531097E+03  0.52361531100E+03  0.50400000000E-02 0. -1.
         -1   -1    0    0    0  501 -0.00000000000E+00 -0.00000000000E+00 -0.39534528215E+01  0.39534560341E+01  0.50400000000E-02 0.  1.
         23    2    1    2    0    0  0.00000000000E+00 -0.35527136788E-14  0.51966185815E+03  0.52756876703E+03  0.90996467675E+02 0.  0.
    9000005    2    3    3    0    0  0.39184526848E+02  0.22872077283E+02  0.26961973802E+03  0.27344355989E+03  0.42447912897E+01 0.  0.
         22    1    3    3    0    0 -0.39184526848E+02 -0.22872077283E+02  0.25004212013E+03  0.25412520714E+03  0.00000000000E+00 0. -1.
         22    1    4    4    0    0  0.20246487478E+02  0.12441723151E+02  0.15342879175E+03  0.15525820708E+03  0.00000000000E+00 0.  1.
         22    1    4    4    0    0  0.18938039369E+02  0.10430354132E+02  0.11619094627E+03  0.11818535281E+03  0.00000000000E+00 0.  1.
<mgrwt>
<rscale>  0 0.90996468E+02</rscale>
<asrwt>0</asrwt>
<pdfrwt beam="1">  1        1 0.80556274E-01 0.90996468E+02</pdfrwt>
<pdfrwt beam="2">  1       -1 0.60822322E-03 0.90996468E+02</pdfrwt>
<totfact> 0.14072150E+05</totfact>
</mgrwt>
</event>
<event>
 7    1  0.2787125E-009  0.9246539E+02  0.7818608E-02  0.1296989E+00
         -1   -1    0    0    0  501 -0.00000000000E+00  0.00000000000E+00  0.14184095006E+03  0.14184095015E+03  0.50400000000E-02 0.  1.
          1   -1    0    0  501    0  0.00000000000E+00 -0.00000000000E+00 -0.15069427765E+02  0.15069428607E+02  0.50400000000E-02 0. -1.
         23    2    1    2    0    0  0.00000000000E+00  0.00000000000E+00  0.12677152230E+03  0.15691037876E+03  0.92465388642E+02 0.  0.
    9000005    2    3    3    0    0 -0.36585547077E+01 -0.36490165683E+02  0.17430310206E+02  0.41582941106E+02  0.89670543117E+01 0.  0.
         22    1    3    3    0    0  0.36585547077E+01  0.36490165683E+02  0.10934121209E+03  0.11532743765E+03  0.00000000000E+00 0.  1.
         22    1    4    4    0    0 -0.18737626123E+01 -0.10658617899E+02  0.89182429009E+00  0.10858750960E+02  0.00000000000E+00 0.  1.
         22    1    4    4    0    0 -0.17847920954E+01 -0.25831547783E+02  0.16538485916E+02  0.30724190145E+02  0.00000000000E+00 0.  1.
<mgrwt>
<rscale>  0 0.92465389E+02</rscale>
<asrwt>0</asrwt>
<pdfrwt beam="2">  1        1 0.23183736E-02 0.92465389E+02</pdfrwt>
<pdfrwt beam="1">  1       -1 0.21821684E-01 0.92465389E+02</pdfrwt>
<totfact> 0.73046317E+04</totfact>
</mgrwt>
</event>
<event>
 7    1  0.3173103E-009  0.8973857E+02  0.7818608E-02  0.1303486E+00
         -1   -1    0    0    0  501 -0.00000000000E+00  0.00000000000E+00  0.27971827347E+02  0.27971827801E+02  0.50400000000E-02 0.  1.
          1   -1    0    0  501    0  0.00000000000E+00 -0.00000000000E+00 -0.71974307652E+02  0.71974307828E+02  0.50400000000E-02 0. -1.
         23    2    1    2    0    0  0.00000000000E+00  0.00000000000E+00 -0.44002480305E+02  0.99946135629E+02  0.89738574505E+02 0.  0.
    9000005    2    3    3    0    0  0.10535570173E+02 -0.66354338573E+01  0.24113248092E+02  0.30701788016E+02  0.14357013355E+02 0.  0.
         22    1    3    3    0    0 -0.10535570173E+02  0.66354338573E+01 -0.68115728397E+02  0.69244347613E+02  0.00000000000E+00 0. -1.
         22    1    4    4    0    0  0.72404493308E+01  0.36531963640E+01  0.11838750608E+02  0.14350120771E+02  0.00000000000E+00 0. -1.
         22    1    4    4    0    0  0.32951208423E+01 -0.10288630221E+02  0.12274497484E+02  0.16351667245E+02  0.00000000000E+00 0. -1.
<mgrwt>
<rscale>  0 0.89738575E+02</rscale>
<asrwt>0</asrwt>
<pdfrwt beam="2">  1        1 0.11072970E-01 0.89738575E+02</pdfrwt>
<pdfrwt beam="1">  1       -1 0.43033581E-02 0.89738575E+02</pdfrwt>
<totfact> 0.10352118E+05</totfact>
</mgrwt>
</event>
<event>
 6    1  0.2787125E-009  0.1335105E+03  0.7818608E-02  0.1222338E+00
          1   -1    0    0  501    0  0.00000000000E+00  0.00000000000E+00  0.86016175769E+03  0.86016175771E+03  0.50400000000E-02 0. -1.
         -1   -1    0    0    0  501 -0.00000000000E+00 -0.00000000000E+00 -0.51807288260E+01  0.51807312776E+01  0.50400000000E-02 0.  1.
    9000005    2    1    2    0    0 -0.69317715603E+01  0.63199056438E+02  0.55181360655E+03  0.55558023153E+03  0.11356368162E+02 0.  0.
         22    1    1    2    0    0  0.69317715603E+01 -0.63199056438E+02  0.30316742232E+03  0.30976225746E+03  0.00000000000E+00 0. -1.
         22    1    3    3    0    0  0.56494746816E+00  0.43389389011E+02  0.37549473616E+03  0.37799372367E+03  0.00000000000E+00 0.  1.
         22    1    3    3    0    0 -0.74967190284E+01  0.19809667427E+02  0.17631887039E+03  0.17758650786E+03  0.00000000000E+00 0.  1.
<mgrwt>
<rscale>  0 0.13351054E+03</rscale>
<asrwt>0</asrwt>
<pdfrwt beam="1">  1        1 0.13233250E+00 0.13351054E+03</pdfrwt>
<pdfrwt beam="2">  1       -1 0.79703587E-03 0.13351054E+03</pdfrwt>
<totfact> 0.50217436E+04</totfact>
</mgrwt>
</event>
<event>
 7    1  0.2787125E-009  0.9140922E+02  0.7818608E-02  0.1299475E+00
          1   -1    0    0  501    0  0.00000000000E+00  0.00000000000E+00  0.18698510659E+03  0.18698510666E+03  0.50400000000E-02 0. -1.
         -1   -1    0    0    0  501 -0.00000000000E+00 -0.00000000000E+00 -0.11171537389E+02  0.11171538526E+02  0.50400000000E-02 0.  1.
         23    2    1    2    0    0 -0.22204460493E-15  0.00000000000E+00  0.17581356921E+03  0.19815664519E+03  0.91409216798E+02 0.  0.
    9000005    2    3    3    0    0  0.85477292678E+00 -0.23726411641E+02  0.17229626636E+03  0.17415571468E+03  0.89742023302E+01 0.  0.
         22    1    3    3    0    0 -0.85477292678E+00  0.23726411641E+02  0.35173028470E+01  0.24000930511E+02  0.00000000000E+00 0.  1.
         22    1    4    4    0    0 -0.26315430042E+01 -0.38082565644E+01  0.48319456300E+02  0.48540680812E+02  0.00000000000E+00 0.  1.
         22    1    4    4    0    0  0.34863159309E+01 -0.19918155076E+02  0.12397681006E+03  0.12561503386E+03  0.00000000000E+00 0.  1.
<mgrwt>
<rscale>  0 0.91409217E+02</rscale>
<asrwt>0</asrwt>
<pdfrwt beam="1">  1        1 0.28766941E-01 0.91409217E+02</pdfrwt>
<pdfrwt beam="2">  1       -1 0.17186981E-02 0.91409217E+02</pdfrwt>
<totfact> 0.11607980E+05</totfact>
</mgrwt>
</event>
<event>
 7    1  0.2787125E-009  0.5815367E+02  0.7818608E-02  0.1405747E+00
          1   -1    0    0  501    0  0.00000000000E+00  0.00000000000E+00  0.20316623368E+03  0.20316623374E+03  0.50400000000E-02 0. -1.
         -1   -1    0    0    0  501 -0.00000000000E+00 -0.00000000000E+00 -0.41614302154E+01  0.41614332675E+01  0.50400000000E-02 0.  1.
         23    2    1    2    0    0  0.00000000000E+00  0.00000000000E+00  0.19900480346E+03  0.20732766701E+03  0.58153673192E+02 0.  0.
    9000005    2    3    3    0    0  0.16789857961E+02 -0.18768887223E+00  0.18393979573E+03  0.18476909845E+03  0.48822874626E+01 0.  0.
         22    1    3    3    0    0 -0.16789857961E+02  0.18768887223E+00  0.15065007732E+02  0.22558568559E+02  0.00000000000E+00 0.  1.
         22    1    4    4    0    0  0.27549018379E+01 -0.10373842359E+01  0.51737883768E+02  0.51821561796E+02  0.00000000000E+00 0. -1.
         22    1    4    4    0    0  0.14034956123E+02  0.84969536366E+00  0.13220191196E+03  0.13294753665E+03  0.00000000000E+00 0. -1.
<mgrwt>
<rscale>  0 0.58153673E+02</rscale>
<asrwt>0</asrwt>
<pdfrwt beam="1">  1        1 0.31256343E-01 0.58153673E+02</pdfrwt>
<pdfrwt beam="2">  1       -1 0.64022030E-03 0.58153673E+02</pdfrwt>
<totfact> 0.38480394E+05</totfact>
</mgrwt>
</event>
<event>
 7    1  0.2787125E-009  0.8979224E+02  0.7818608E-02  0.1303356E+00
         -1   -1    0    0    0  501 -0.00000000000E+00  0.00000000000E+00  0.16148517890E+02  0.16148518677E+02  0.50400000000E-02 0.  1.
          1   -1    0    0  501    0  0.00000000000E+00 -0.00000000000E+00 -0.12482022291E+03  0.12482022301E+03  0.50400000000E-02 0. -1.
         23    2    1    2    0    0  0.00000000000E+00 -0.71054273576E-14 -0.10867170502E+03  0.14096874169E+03  0.89792241655E+02 0.  0.
    9000005    2    3    3    0    0 -0.17083108331E+01  0.33242600074E+02 -0.10138987708E+03  0.10689508906E+03  0.62180466238E+01 0.  0.
         22    1    3    3    0    0  0.17083108331E+01 -0.33242600074E+02 -0.72818279366E+01  0.34073652632E+02  0.00000000000E+00 0.  1.
         22    1    4    4    0    0 -0.22635866518E+01  0.33055398886E+02 -0.10057065786E+03  0.10588786731E+03  0.00000000000E+00 0.  1.
         22    1    4    4    0    0  0.55527581867E+00  0.18720118840E+00 -0.81921922055E+00  0.10072217487E+01  0.00000000000E+00 0.  1.
<mgrwt>
<rscale>  0 0.89792242E+02</rscale>
<asrwt>0</asrwt>
<pdfrwt beam="2">  1        1 0.19203111E-01 0.89792242E+02</pdfrwt>
<pdfrwt beam="1">  1       -1 0.24843875E-02 0.89792242E+02</pdfrwt>
<totfact> 0.11306837E+05</totfact>
</mgrwt>
</event>
<event>
 7    1  0.2787125E-009  0.9087367E+02  0.7818608E-02  0.1300750E+00
          1   -1    0    0  501    0  0.00000000000E+00  0.00000000000E+00  0.16851093385E+03  0.16851093393E+03  0.50400000000E-02 0. -1.
         -1   -1    0    0    0  501 -0.00000000000E+00 -0.00000000000E+00 -0.12251464299E+02  0.12251465336E+02  0.50400000000E-02 0.  1.
         23    2    1    2    0    0  0.00000000000E+00  0.00000000000E+00  0.15625946955E+03  0.18076239926E+03  0.90873665945E+02 0.  0.
    9000005    2    3    3    0    0  0.21508152756E+02  0.33815002259E+02  0.11831397835E+03  0.12557258757E+03  0.12814923403E+02 0.  0.
         22    1    3    3    0    0 -0.21508152756E+02 -0.33815002259E+02  0.37945491203E+02  0.55189811699E+02  0.00000000000E+00 0.  1.
         22    1    4    4    0    0  0.15006252896E+02  0.27486512818E+02  0.74244845229E+02  0.80579110543E+02  0.00000000000E+00 0. -1.
         22    1    4    4    0    0  0.65018998595E+01  0.63284894412E+01  0.44069133122E+02  0.44993477022E+02  0.00000000000E+00 0. -1.
<mgrwt>
<rscale>  0 0.90873666E+02</rscale>
<asrwt>0</asrwt>
<pdfrwt beam="1">  1        1 0.25924760E-01 0.90873666E+02</pdfrwt>
<pdfrwt beam="2">  1       -1 0.18848407E-02 0.90873666E+02</pdfrwt>
<totfact> 0.11561697E+05</totfact>
</mgrwt>
</event>
<event>
 7    1  0.2787125E-009  0.9150150E+02  0.7818608E-02  0.1299256E+00
          1   -1    0    0  501    0  0.00000000000E+00  0.00000000000E+00  0.86015324877E+02  0.86015325025E+02  0.50400000000E-02 0. -1.
         -1   -1    0    0    0  501 -0.00000000000E+00 -0.00000000000E+00 -0.24334395285E+02  0.24334395807E+02  0.50400000000E-02 0.  1.
         23    2    1    2    0    0  0.00000000000E+00  0.44408920985E-15  0.61680929592E+02  0.11034972083E+03  0.91501496230E+02 0.  0.
    9000005    2    3    3    0    0 -0.45556827077E+02  0.20745983924E+01  0.33256939071E+02  0.56612846259E+02  0.43888396346E+01 0.  0.
         22    1    3    3    0    0  0.45556827077E+02 -0.20745983924E+01  0.28423990521E+02  0.53736874573E+02  0.00000000000E+00 0.  1.
         22    1    4    4    0    0 -0.34440021926E+02  0.25292050189E+01  0.27100577288E+02  0.43897075957E+02  0.00000000000E+00 0. -1.
         22    1    4    4    0    0 -0.11116805151E+02 -0.45460662646E+00  0.61563617837E+01  0.12715770302E+02  0.00000000000E+00 0. -1.
<mgrwt>
<rscale>  0 0.91501496E+02</rscale>
<asrwt>0</asrwt>
<pdfrwt beam="1">  1        1 0.13233127E-01 0.91501496E+02</pdfrwt>
<pdfrwt beam="2">  1       -1 0.37437531E-02 0.91501496E+02</pdfrwt>
<totfact> 0.10092473E+05</totfact>
</mgrwt>
</event>
<event>
 7    1  0.2787125E-009  0.9092573E+02  0.7818608E-02  0.1300625E+00
          1   -1    0    0  501    0  0.00000000000E+00  0.00000000000E+00  0.16727439095E+02  0.16727439854E+02  0.50400000000E-02 0. -1.
         -1   -1    0    0    0  501 -0.00000000000E+00 -0.00000000000E+00 -0.12356177269E+03  0.12356177280E+03  0.50400000000E-02 0.  1.
         23    2    1    2    0    0  0.00000000000E+00  0.00000000000E+00 -0.10683433360E+03  0.14028921265E+03  0.90925729862E+02 0.  0.
    9000005    2    3    3    0    0  0.16316650176E+02  0.41079975908E+02 -0.49806237607E+02  0.68136588125E+02  0.14426913847E+02 0.  0.
         22    1    3    3    0    0 -0.16316650176E+02 -0.41079975908E+02 -0.57028095992E+02  0.72152624527E+02  0.00000000000E+00 0.  1.
         22    1    4    4    0    0  0.90721454885E+01  0.11661524532E+02 -0.24732132794E+02  0.28809258420E+02  0.00000000000E+00 0. -1.
         22    1    4    4    0    0  0.72445046879E+01  0.29418451376E+02 -0.25074104813E+02  0.39327329705E+02  0.00000000000E+00 0. -1.
<mgrwt>
<rscale>  0 0.90925730E+02</rscale>
<asrwt>0</asrwt>
<pdfrwt beam="1">  1        1 0.25734523E-02 0.90925730E+02</pdfrwt>
<pdfrwt beam="2">  1       -1 0.19009503E-01 0.90925730E+02</pdfrwt>
<totfact> 0.78617038E+04</totfact>
</mgrwt>
</event>
<event>
 7    1  0.2787125E-009  0.9249956E+02  0.7818608E-02  0.1296909E+00
          1   -1    0    0  501    0  0.00000000000E+00  0.00000000000E+00  0.40145923586E+01  0.40145955223E+01  0.50400000000E-02 0. -1.
         -1   -1    0    0    0  501 -0.00000000000E+00 -0.00000000000E+00 -0.53281657281E+03  0.53281657283E+03  0.50400000000E-02 0.  1.
         23    2    1    2    0    0  0.00000000000E+00  0.35527136788E-14 -0.52880198045E+03  0.53683116835E+03  0.92499561022E+02 0.  0.
    9000005    2    3    3    0    0  0.18866182669E+02  0.29578750290E+02 -0.43609090843E+03  0.43770408733E+03  0.13369829231E+02 0.  0.
         22    1    3    3    0    0 -0.18866182669E+02 -0.29578750290E+02 -0.92711072023E+02  0.99127081027E+02  0.00000000000E+00 0. -1.
         22    1    4    4    0    0  0.15461824007E+02  0.24147546965E+02 -0.40161998059E+03  0.40264224919E+03  0.00000000000E+00 0. -1.
         22    1    4    4    0    0  0.34043586628E+01  0.54312033248E+01 -0.34470927837E+02  0.35061838135E+02  0.00000000000E+00 0. -1.
<mgrwt>
<rscale>  0 0.92499561E+02</rscale>
<asrwt>0</asrwt>
<pdfrwt beam="1">  1        1 0.61763026E-03 0.92499561E+02</pdfrwt>
<pdfrwt beam="2">  1       -1 0.81971725E-01 0.92499561E+02</pdfrwt>
<totfact> 0.43503647E+04</totfact>
</mgrwt>
</event>
<event>
 7    1  0.2787125E-009  0.9250030E+02  0.7818608E-02  0.1296907E+00
          1   -1    0    0  501    0  0.00000000000E+00  0.00000000000E+00  0.39816878609E+02  0.39816878928E+02  0.50400000000E-02 0. -1.
         -1   -1    0    0    0  501 -0.00000000000E+00 -0.00000000000E+00 -0.53722848825E+02  0.53722849062E+02  0.50400000000E-02 0.  1.
         23    2    1    2    0    0 -0.71054273576E-14  0.00000000000E+00 -0.13905970217E+02  0.93539727989E+02  0.92500295700E+02 0.  0.
    9000005    2    3    3    0    0 -0.38311935390E+02  0.20965133322E+02 -0.21625023808E+02  0.49189699840E+02  0.66815946505E+01 0.  0.
         22    1    3    3    0    0  0.38311935390E+02 -0.20965133322E+02  0.77190535911E+01  0.44350028150E+02  0.00000000000E+00 0. -1.
         22    1    4    4    0    0 -0.20037645074E+02  0.93087178846E+01 -0.75649784306E+01  0.23353551067E+02  0.00000000000E+00 0.  1.
         22    1    4    4    0    0 -0.18274290316E+02  0.11656415437E+02 -0.14060045377E+02  0.25836148773E+02  0.00000000000E+00 0.  1.
<mgrwt>
<rscale>  0 0.92500296E+02</rscale>
<asrwt>0</asrwt>
<pdfrwt beam="1">  1        1 0.61256737E-02 0.92500296E+02</pdfrwt>
<pdfrwt beam="2">  1       -1 0.82650537E-02 0.92500296E+02</pdfrwt>
<totfact> 0.86977799E+04</totfact>
</mgrwt>
</event>
<event>
 7    1  0.2787125E-009  0.9159675E+02  0.7818608E-02  0.1299030E+00
         -1   -1    0    0    0  501 -0.00000000000E+00  0.00000000000E+00  0.89631978308E+01  0.89631992478E+01  0.50400000000E-02 0.  1.
          1   -1    0    0  501    0  0.00000000000E+00 -0.00000000000E+00 -0.23401146299E+03  0.23401146304E+03  0.50400000000E-02 0. -1.
         23    2    1    2    0    0  0.00000000000E+00  0.00000000000E+00 -0.22504826516E+03  0.24297466229E+03  0.91596751387E+02 0.  0.
    9000005    2    3    3    0    0  0.34405730185E+02  0.15397914052E+02 -0.51580711685E+02  0.65458910498E+02  0.14263559125E+02 0.  0.
         22    1    3    3    0    0 -0.34405730185E+02 -0.15397914052E+02 -0.17346755347E+03  0.17751575179E+03  0.00000000000E+00 0. -1.
         22    1    4    4    0    0  0.13071592917E+02  0.76888384548E+01 -0.32318577069E+02  0.35699792743E+02  0.00000000000E+00 0. -1.
         22    1    4    4    0    0  0.21334137268E+02  0.77090755974E+01 -0.19262134616E+02  0.29759117754E+02  0.00000000000E+00 0. -1.
<mgrwt>
<rscale>  0 0.91596751E+02</rscale>
<asrwt>0</asrwt>
<pdfrwt beam="2">  1        1 0.36001759E-01 0.91596751E+02</pdfrwt>
<pdfrwt beam="1">  1       -1 0.13789538E-02 0.91596751E+02</pdfrwt>
<totfact> 0.12059386E+05</totfact>
</mgrwt>
</event>
<event>
 7    1  0.2787125E-009  0.9210715E+02  0.7818608E-02  0.1297828E+00
          1   -1    0    0  501    0  0.00000000000E+00  0.00000000000E+00  0.13608210362E+03  0.13608210372E+03  0.50400000000E-02 0. -1.
         -1   -1    0    0    0  501 -0.00000000000E+00 -0.00000000000E+00 -0.15585677516E+02  0.15585678331E+02  0.50400000000E-02 0.  1.
         23    2    1    2    0    0  0.17763568394E-14  0.00000000000E+00  0.12049642611E+03  0.15166778205E+03  0.92107151768E+02 0.  0.
    9000005    2    3    3    0    0  0.12792562921E+02  0.31465583970E+01  0.13257185107E+03  0.13379695711E+03  0.12360402164E+02 0.  0.
         22    1    3    3    0    0 -0.12792562921E+02 -0.31465583970E+01 -0.12075424961E+02  0.17870824934E+02  0.00000000000E+00 0.  1.
         22    1    4    4    0    0  0.76475814787E+00 -0.39925094946E+01  0.27818460460E+02  0.28113906336E+02  0.00000000000E+00 0.  1.
         22    1    4    4    0    0  0.12027804773E+02  0.71390678915E+01  0.10475339061E+03  0.10568305078E+03  0.00000000000E+00 0.  1.
<mgrwt>
<rscale>  0 0.92107152E+02</rscale>
<asrwt>0</asrwt>
<pdfrwt beam="1">  1        1 0.20935709E-01 0.92107152E+02</pdfrwt>
<pdfrwt beam="2">  1       -1 0.23977965E-02 0.92107152E+02</pdfrwt>
<totfact> 0.10717733E+05</totfact>
</mgrwt>
</event>
<event>
 7    1  0.2787125E-009  0.9076014E+02  0.7818608E-02  0.1301021E+00
         -1   -1    0    0    0  501 -0.00000000000E+00  0.00000000000E+00  0.10720868033E+03  0.10720868044E+03  0.50400000000E-02 0.  1.
          1   -1    0    0  501    0  0.00000000000E+00 -0.00000000000E+00 -0.19208803992E+02  0.19208804653E+02  0.50400000000E-02 0. -1.
         23    2    1    2    0    0  0.00000000000E+00  0.00000000000E+00  0.87999876333E+02  0.12641748510E+03  0.90760136093E+02 0.  0.
    9000005    2    3    3    0    0 -0.36250385475E+02  0.27055275504E+02  0.42629616281E+02  0.62350809853E+02  0.49255380746E+01 0.  0.
         22    1    3    3    0    0  0.36250385475E+02 -0.27055275504E+02  0.45370260052E+02  0.64066675244E+02  0.00000000000E+00 0.  1.
         22    1    4    4    0    0 -0.18894119259E+02  0.15494623514E+02  0.19988216869E+02  0.31568970747E+02  0.00000000000E+00 0.  1.
         22    1    4    4    0    0 -0.17356266216E+02  0.11560651990E+02  0.22641399412E+02  0.30781839106E+02  0.00000000000E+00 0.  1.
<mgrwt>
<rscale>  0 0.90760136E+02</rscale>
<asrwt>0</asrwt>
<pdfrwt beam="2">  1        1 0.29552006E-02 0.90760136E+02</pdfrwt>
<pdfrwt beam="1">  1       -1 0.16493644E-01 0.90760136E+02</pdfrwt>
<totfact> 0.81260334E+04</totfact>
</mgrwt>
</event>
<event>
 6    1  0.2799968E-009  0.1919942E+03  0.7818608E-02  0.1156675E+00
          1   -1    0    0  501    0  0.00000000000E+00  0.00000000000E+00  0.15946935686E+03  0.15946935694E+03  0.50400000000E-02 0. -1.
         -1   -1    0    0    0  501 -0.00000000000E+00 -0.00000000000E+00 -0.57788188418E+02  0.57788188638E+02  0.50400000000E-02 0.  1.
    9000005    2    1    2    0    0 -0.15753180481E+02  0.93563781590E+02  0.39938466096E+02  0.10405637415E+03  0.15175770350E+02 0.  0.
         22    1    1    2    0    0  0.15753180481E+02 -0.93563781590E+02  0.61742702349E+02  0.11320117143E+03  0.00000000000E+00 0. -1.
         22    1    3    3    0    0 -0.56579012203E+01  0.23859473297E+02  0.35394540659E+01  0.24775270882E+02  0.00000000000E+00 0.  1.
         22    1    3    3    0    0 -0.10095279261E+02  0.69704308293E+02  0.36399012030E+02  0.79281103264E+02  0.00000000000E+00 0.  1.
<mgrwt>
<rscale>  0 0.19199422E+03</rscale>
<asrwt>0</asrwt>
<pdfrwt beam="1">  1        1 0.24533746E-01 0.19199422E+03</pdfrwt>
<pdfrwt beam="2">  1       -1 0.88904909E-02 0.19199422E+03</pdfrwt>
<totfact> 0.13807148E+04</totfact>
</mgrwt>
</event>
<event>
 7    1  0.2787125E-009  0.9177729E+02  0.7818608E-02  0.1298604E+00
         -1   -1    0    0    0  501 -0.00000000000E+00  0.00000000000E+00  0.25575827330E+01  0.25575876989E+01  0.50400000000E-02 0.  1.
          1   -1    0    0  501    0  0.00000000000E+00 -0.00000000000E+00 -0.82334213149E+03  0.82334213151E+03  0.50400000000E-02 0. -1.
         23    2    1    2    0    0  0.00000000000E+00  0.00000000000E+00 -0.82078454876E+03  0.82589971921E+03  0.91777288604E+02 0.  0.
    9000005    2    3    3    0    0  0.36338013437E+02 -0.21040602639E+02 -0.57215182373E+03  0.57374621410E+03  0.79906583848E+01 0.  0.
         22    1    3    3    0    0 -0.36338013437E+02  0.21040602639E+02 -0.24863272503E+03  0.25215350510E+03  0.00000000000E+00 0. -1.
         22    1    4    4    0    0  0.57666600072E+01 -0.42046125823E+00 -0.90880347068E+02  0.91064090829E+02  0.00000000000E+00 0.  1.
         22    1    4    4    0    0  0.30571353430E+02 -0.20620141380E+02 -0.48127147666E+03  0.48268212327E+03  0.00000000000E+00 0.  1.
<mgrwt>
<rscale>  0 0.91777289E+02</rscale>
<asrwt>0</asrwt>
<pdfrwt beam="2">  1        1 0.12666781E+00 0.91777289E+02</pdfrwt>
<pdfrwt beam="1">  1       -1 0.39347531E-03 0.91777289E+02</pdfrwt>
<totfact> 0.13848090E+05</totfact>
</mgrwt>
</event>
<event>
 7    1  0.2787125E-009  0.9086589E+02  0.7818608E-02  0.1300768E+00
         -1   -1    0    0    0  501 -0.00000000000E+00  0.00000000000E+00  0.18326135986E+02  0.18326136679E+02  0.50400000000E-02 0.  1.
          1   -1    0    0  501    0  0.00000000000E+00 -0.00000000000E+00 -0.11263435191E+03  0.11263435202E+03  0.50400000000E-02 0. -1.
         23    2    1    2    0    0  0.00000000000E+00  0.00000000000E+00 -0.94308215926E+02  0.13096048870E+03  0.90865890246E+02 0.  0.
    9000005    2    3    3    0    0  0.34989017321E+02 -0.22297219316E+02 -0.71408910866E+02  0.83570874920E+02  0.12785196967E+02 0.  0.
         22    1    3    3    0    0 -0.34989017321E+02  0.22297219316E+02 -0.22899305060E+02  0.47389613783E+02  0.00000000000E+00 0.  1.
         22    1    4    4    0    0  0.22387324213E+02 -0.76512405046E+01 -0.33364428808E+02  0.40901330985E+02  0.00000000000E+00 0.  1.
         22    1    4    4    0    0  0.12601693108E+02 -0.14645978811E+02 -0.38044482058E+02  0.42669543935E+02  0.00000000000E+00 0.  1.
<mgrwt>
<rscale>  0 0.90865890E+02</rscale>
<asrwt>0</asrwt>
<pdfrwt beam="2">  1        1 0.17328361E-01 0.90865890E+02</pdfrwt>
<pdfrwt beam="1">  1       -1 0.28194057E-02 0.90865890E+02</pdfrwt>
<totfact> 0.10756221E+05</totfact>
</mgrwt>
</event>
<event>
 7    1  0.3233173E-009  0.7716896E+02  0.7818608E-02  0.1337283E+00
          1   -1    0    0  501    0  0.00000000000E+00  0.00000000000E+00  0.73636910556E+03  0.73636910558E+03  0.50400000000E-02 0. -1.
         -1   -1    0    0    0  501 -0.00000000000E+00 -0.00000000000E+00 -0.20217572767E+01  0.20217635587E+01  0.50400000000E-02 0.  1.
         23    2    1    2    0    0  0.35527136788E-14 -0.17763568394E-14  0.73434734828E+03  0.73839086914E+03  0.77168955497E+02 0.  0.
    9000005    2    3    3    0    0  0.16434119530E+02 -0.13634598804E+02  0.67122149436E+03  0.67175112122E+03  0.15977853262E+02 0.  0.
         22    1    3    3    0    0 -0.16434119530E+02  0.13634598804E+02  0.63125853922E+02  0.66639747918E+02  0.00000000000E+00 0.  1.
         22    1    4    4    0    0  0.10174995028E+02 -0.34435673616E+01  0.49865775505E+03  0.49877344091E+03  0.00000000000E+00 0. -1.
         22    1    4    4    0    0  0.62591245022E+01 -0.10191031442E+02  0.17256373931E+03  0.17297768031E+03  0.00000000000E+00 0. -1.
<mgrwt>
<rscale>  0 0.77168955E+02</rscale>
<asrwt>0</asrwt>
<pdfrwt beam="1">  1        1 0.11328748E+00 0.77168955E+02</pdfrwt>
<pdfrwt beam="2">  1       -1 0.31104027E-03 0.77168955E+02</pdfrwt>
<totfact> 0.21995231E+05</totfact>
</mgrwt>
</event>
<event>
 7    1  0.2787125E-009  0.8227721E+02  0.7818608E-02  0.1322710E+00
          1   -1    0    0  501    0  0.00000000000E+00  0.00000000000E+00  0.18396614190E+03  0.18396614197E+03  0.50400000000E-02 0. -1.
         -1   -1    0    0    0  501 -0.00000000000E+00 -0.00000000000E+00 -0.91994363619E+01  0.91994377425E+01  0.50400000000E-02 0.  1.
         23    2    1    2    0    0 -0.17763568394E-14  0.00000000000E+00  0.17476670554E+03  0.19316557971E+03  0.82277213253E+02 0.  0.
    9000005    2    3    3    0    0  0.14077198975E+02  0.91325886350E+01  0.17499661874E+03  0.17638390619E+03  0.14349009901E+02 0.  0.
         22    1    3    3    0    0 -0.14077198975E+02 -0.91325886350E+01 -0.22991320307E+00  0.16781673523E+02  0.00000000000E+00 0.  1.
         22    1    4    4    0    0  0.67126972783E+01  0.66275324721E+01  0.37529550532E+02  0.38696920479E+02  0.00000000000E+00 0.  1.
         22    1    4    4    0    0  0.73645016970E+01  0.25050561629E+01  0.13746706821E+03  0.13768698571E+03  0.00000000000E+00 0.  1.
<mgrwt>
<rscale>  0 0.82277213E+02</rscale>
<asrwt>0</asrwt>
<pdfrwt beam="1">  1        1 0.28302482E-01 0.82277213E+02</pdfrwt>
<pdfrwt beam="2">  1       -1 0.14152981E-02 0.82277213E+02</pdfrwt>
<totfact> 0.15326179E+05</totfact>
</mgrwt>
</event>
<event>
 7    1  0.2787125E-009  0.9128187E+02  0.7818608E-02  0.1299777E+00
          1   -1    0    0  501    0  0.00000000000E+00  0.00000000000E+00  0.14716036543E+03  0.14716036551E+03  0.50400000000E-02 0. -1.
         -1   -1    0    0    0  501 -0.00000000000E+00 -0.00000000000E+00 -0.14155269589E+02  0.14155270487E+02  0.50400000000E-02 0.  1.
         23    2    1    2    0    0  0.00000000000E+00  0.00000000000E+00  0.13300509584E+03  0.16131563600E+03  0.91281865117E+02 0.  0.
    9000005    2    3    3    0    0  0.73846960754E+01 -0.44994593365E+02  0.64901161461E+02  0.79357152328E+02  0.25198607777E+01 0.  0.
         22    1    3    3    0    0 -0.73846960754E+01  0.44994593365E+02  0.68103934376E+02  0.81958483672E+02  0.00000000000E+00 0. -1.
         22    1    4    4    0    0  0.46851138923E+01 -0.24041519365E+02  0.36618864854E+02  0.44055490109E+02  0.00000000000E+00 0.  1.
         22    1    4    4    0    0  0.26995821831E+01 -0.20953074001E+02  0.28282296607E+02  0.35301662219E+02  0.00000000000E+00 0.  1.
<mgrwt>
<rscale>  0 0.91281865E+02</rscale>
<asrwt>0</asrwt>
<pdfrwt beam="1">  1        1 0.22640056E-01 0.91281865E+02</pdfrwt>
<pdfrwt beam="2">  1       -1 0.21777339E-02 0.91281865E+02</pdfrwt>
<totfact> 0.11139322E+05</totfact>
</mgrwt>
</event>
<event>
 7    1  0.2787125E-009  0.8965446E+02  0.7818608E-02  0.1303691E+00
          1   -1    0    0  501    0  0.00000000000E+00  0.00000000000E+00  0.18429226999E+02  0.18429227688E+02  0.50400000000E-02 0. -1.
         -1   -1    0    0    0  501 -0.00000000000E+00 -0.00000000000E+00 -0.10903769165E+03  0.10903769176E+03  0.50400000000E-02 0.  1.
         23    2    1    2    0    0  0.71054273576E-14  0.00000000000E+00 -0.90608464649E+02  0.12746691945E+03  0.89654457160E+02 0.  0.
    9000005    2    3    3    0    0  0.32226592183E+02  0.82681515246E+00 -0.88476428508E+02  0.95159297363E+02  0.13710456088E+02 0.  0.
         22    1    3    3    0    0 -0.32226592183E+02 -0.82681515246E+00 -0.21320361415E+01  0.32307622090E+02  0.00000000000E+00 0. -1.
         22    1    4    4    0    0  0.11674041661E+02 -0.50983824354E+00 -0.15996446098E+02  0.19809832698E+02  0.00000000000E+00 0.  1.
         22    1    4    4    0    0  0.20552550521E+02  0.13366533960E+01 -0.72479982410E+02  0.75349464665E+02  0.00000000000E+00 0.  1.
<mgrwt>
<rscale>  0 0.89654457E+02</rscale>
<asrwt>0</asrwt>
<pdfrwt beam="1">  1        1 0.28352658E-02 0.89654457E+02</pdfrwt>
<pdfrwt beam="2">  1       -1 0.16775029E-01 0.89654457E+02</pdfrwt>
<totfact> 0.83593975E+04</totfact>
</mgrwt>
</event>
<event>
 7    1  0.2787125E-009  0.8852382E+02  0.7818608E-02  0.1306466E+00
         -1   -1    0    0    0  501 -0.00000000000E+00  0.00000000000E+00  0.20156561085E+03  0.20156561091E+03  0.50400000000E-02 0.  1.
          1   -1    0    0  501    0  0.00000000000E+00 -0.00000000000E+00 -0.97194976247E+01  0.97194989314E+01  0.50400000000E-02 0. -1.
         23    2    1    2    0    0  0.00000000000E+00  0.00000000000E+00  0.19184611322E+03  0.21128510984E+03  0.88523818728E+02 0.  0.
    9000005    2    3    3    0    0  0.27364964240E+02  0.20314607312E+02  0.33646787284E+02  0.49456338402E+02  0.12340930904E+02 0.  0.
         22    1    3    3    0    0 -0.27364964240E+02 -0.20314607312E+02  0.15819932594E+03  0.16182877144E+03  0.00000000000E+00 0.  1.
         22    1    4    4    0    0  0.18074740342E+02  0.10716949516E+02  0.27868054469E+02  0.34902402571E+02  0.00000000000E+00 0. -1.
         22    1    4    4    0    0  0.92902238980E+01  0.95976577953E+01  0.57787328146E+01  0.14553935831E+02  0.00000000000E+00 0. -1.
<mgrwt>
<rscale>  0 0.88523819E+02</rscale>
<asrwt>0</asrwt>
<pdfrwt beam="2">  1        1 0.14953077E-02 0.88523819E+02</pdfrwt>
<pdfrwt beam="1">  1       -1 0.31010088E-01 0.88523819E+02</pdfrwt>
<totfact> 0.74800643E+04</totfact>
</mgrwt>
</event>
<event>
 7    1  0.2787125E-009  0.9690151E+02  0.7818608E-02  0.1286950E+00
          1   -1    0    0  501    0  0.00000000000E+00  0.00000000000E+00  0.87479162932E+02  0.87479163077E+02  0.50400000000E-02 0. -1.
         -1   -1    0    0    0  501 -0.00000000000E+00 -0.00000000000E+00 -0.26834685053E+02  0.26834685526E+02  0.50400000000E-02 0.  1.
         23    2    1    2    0    0  0.71054273576E-14 -0.17763568394E-14  0.60644477879E+02  0.11431384860E+03  0.96901513328E+02 0.  0.
    9000005    2    3    3    0    0 -0.44424146439E+02  0.92513520459E+01  0.49027667893E+02  0.67473240412E+02  0.94780615751E+01 0.  0.
         22    1    3    3    0    0  0.44424146439E+02 -0.92513520459E+01  0.11616809986E+02  0.46840608191E+02  0.00000000000E+00 0.  1.
         22    1    4    4    0    0 -0.33001084292E+01  0.11164844525E+01  0.80332071620E+00  0.35752730455E+01  0.00000000000E+00 0.  1.
         22    1    4    4    0    0 -0.41124038009E+02  0.81348675934E+01  0.48224347177E+02  0.63897967367E+02  0.00000000000E+00 0.  1.
<mgrwt>
<rscale>  0 0.96901513E+02</rscale>
<asrwt>0</asrwt>
<pdfrwt beam="1">  1        1 0.13458333E-01 0.96901513E+02</pdfrwt>
<pdfrwt beam="2">  1       -1 0.41284131E-02 0.96901513E+02</pdfrwt>
<totfact> 0.86431459E+04</totfact>
</mgrwt>
</event>
<event>
 7    1  0.2787125E-009  0.9150381E+02  0.7818608E-02  0.1299250E+00
          1   -1    0    0  501    0  0.00000000000E+00  0.00000000000E+00  0.35469989445E+03  0.35469989448E+03  0.50400000000E-02 0. -1.
         -1   -1    0    0    0  501 -0.00000000000E+00 -0.00000000000E+00 -0.59014297836E+01  0.59014319357E+01  0.50400000000E-02 0.  1.
         23    2    1    2    0    0  0.00000000000E+00  0.00000000000E+00  0.34879846466E+03  0.36060132642E+03  0.91503812288E+02 0.  0.
    9000005    2    3    3    0    0  0.17029847356E+02  0.74485615580E+01  0.33895189987E+03  0.33956679271E+03  0.84687374430E+01 0.  0.
         22    1    3    3    0    0 -0.17029847356E+02 -0.74485615580E+01  0.98465647954E+01  0.21034533713E+02  0.00000000000E+00 0.  1.
         22    1    4    4    0    0  0.17696575266E+02  0.67831594734E+01  0.33317585979E+03  0.33371444916E+03  0.00000000000E+00 0. -1.
         22    1    4    4    0    0 -0.66672790955E+00  0.66540208461E+00  0.57760400748E+01  0.58523435464E+01  0.00000000000E+00 0. -1.
<mgrwt>
<rscale>  0 0.91503812E+02</rscale>
<asrwt>0</asrwt>
<pdfrwt beam="1">  1        1 0.54569225E-01 0.91503812E+02</pdfrwt>
<pdfrwt beam="2">  1       -1 0.90791228E-03 0.91503812E+02</pdfrwt>
<totfact> 0.13089301E+05</totfact>
</mgrwt>
</event>
<event>
 7    1  0.2787125E-009  0.9005938E+02  0.7818608E-02  0.1302708E+00
         -1   -1    0    0    0  501 -0.00000000000E+00  0.00000000000E+00  0.14794970475E+01  0.14795056320E+01  0.50400000000E-02 0.  1.
          1   -1    0    0  501    0  0.00000000000E+00 -0.00000000000E+00 -0.13705110504E+04  0.13705110504E+04  0.50400000000E-02 0. -1.
         23    2    1    2    0    0  0.00000000000E+00  0.00000000000E+00 -0.13690315533E+04  0.13719905560E+04  0.90059379253E+02 0.  0.
    9000005    2    3    3    0    0 -0.80181728572E+01  0.20656224587E+02 -0.12789969667E+04  0.12792694823E+04  0.14359560238E+02 0.  0.
         22    1    3    3    0    0  0.80181728572E+01 -0.20656224587E+02 -0.90034586655E+02  0.92721073679E+02  0.00000000000E+00 0.  1.
         22    1    4    4    0    0  0.39617294524E+01  0.55840912825E+01 -0.25704275202E+03  0.25713392180E+03  0.00000000000E+00 0. -1.
         22    1    4    4    0    0 -0.11979902310E+02  0.15072133305E+02 -0.10219542147E+04  0.10221355605E+04  0.00000000000E+00 0. -1.
<mgrwt>
<rscale>  0 0.90059379E+02</rscale>
<asrwt>0</asrwt>
<pdfrwt beam="2">  1        1 0.21084684E+00 0.90059379E+02</pdfrwt>
<pdfrwt beam="1">  1       -1 0.22761669E-03 0.90059379E+02</pdfrwt>
<totfact> 0.12204698E+05</totfact>
</mgrwt>
</event>
<event>
 7    1  0.2787125E-009  0.9016922E+02  0.7818608E-02  0.1302442E+00
         -1   -1    0    0    0  501 -0.00000000000E+00  0.00000000000E+00  0.54023531170E+01  0.54023554680E+01  0.50400000000E-02 0.  1.
          1   -1    0    0  501    0  0.00000000000E+00 -0.00000000000E+00 -0.37624743681E+03  0.37624743684E+03  0.50400000000E-02 0. -1.
         23    2    1    2    0    0 -0.35527136788E-14 -0.35527136788E-14 -0.37084508369E+03  0.38164979231E+03  0.90169217986E+02 0.  0.
    9000005    2    3    3    0    0  0.19323476216E+02  0.19785020749E+02 -0.33529060215E+03  0.33660575900E+03  0.10899785473E+02 0.  0.
         22    1    3    3    0    0 -0.19323476216E+02 -0.19785020749E+02 -0.35554481543E+02  0.45044033311E+02  0.00000000000E+00 0.  1.
         22    1    4    4    0    0  0.18067797600E+02  0.12110686553E+02 -0.22878634983E+03  0.22981798865E+03  0.00000000000E+00 0.  1.
         22    1    4    4    0    0  0.12556786163E+01  0.76743341968E+01 -0.10650425232E+03  0.10678777035E+03  0.00000000000E+00 0.  1.
<mgrwt>
<rscale>  0 0.90169218E+02</rscale>
<asrwt>0</asrwt>
<pdfrwt beam="2">  1        1 0.57884201E-01 0.90169218E+02</pdfrwt>
<pdfrwt beam="1">  1       -1 0.83113173E-03 0.90169218E+02</pdfrwt>
<totfact> 0.13750769E+05</totfact>
</mgrwt>
</event>
<event>
 7    1  0.2787125E-009  0.9133344E+02  0.7818608E-02  0.1299654E+00
         -1   -1    0    0    0  501 -0.00000000000E+00  0.00000000000E+00  0.15757481771E+02  0.15757482577E+02  0.50400000000E-02 0.  1.
          1   -1    0    0  501    0  0.00000000000E+00 -0.00000000000E+00 -0.13234661271E+03  0.13234661281E+03  0.50400000000E-02 0. -1.
         23    2    1    2    0    0  0.88817841970E-15  0.35527136788E-14 -0.11658913094E+03  0.14810409538E+03  0.91333441938E+02 0.  0.
    9000005    2    3    3    0    0 -0.76638415055E+01 -0.30063069269E+02 -0.11186676653E+03  0.11672220051E+03  0.12139853244E+02 0.  0.
         22    1    3    3    0    0  0.76638415055E+01  0.30063069269E+02 -0.47223644098E+01  0.31381894877E+02  0.00000000000E+00 0.  1.
         22    1    4    4    0    0 -0.96976266013E+01 -0.22161082732E+02 -0.69839148952E+02  0.73909838830E+02  0.00000000000E+00 0. -1.
         22    1    4    4    0    0  0.20337850957E+01 -0.79019865363E+01 -0.42027617578E+02  0.42812361677E+02  0.00000000000E+00 0. -1.
<mgrwt>
<rscale>  0 0.91333442E+02</rscale>
<asrwt>0</asrwt>
<pdfrwt beam="2">  1        1 0.20361017E-01 0.91333442E+02</pdfrwt>
<pdfrwt beam="1">  1       -1 0.24242281E-02 0.91333442E+02</pdfrwt>
<totfact> 0.10910786E+05</totfact>
</mgrwt>
</event>
<event>
 7    1  0.2787125E-009  0.8976164E+02  0.7818608E-02  0.1303430E+00
          1   -1    0    0  501    0  0.00000000000E+00  0.00000000000E+00  0.62941418210E+01  0.62941438389E+01  0.50400000000E-02 0. -1.
         -1   -1    0    0    0  501 -0.00000000000E+00 -0.00000000000E+00 -0.32002575045E+03  0.32002575049E+03  0.50400000000E-02 0.  1.
         23    2    1    2    0    0  0.00000000000E+00  0.11102230246E-15 -0.31373160863E+03  0.32631989433E+03  0.89761635355E+02 0.  0.
    9000005    2    3    3    0    0 -0.42486430891E+02 -0.60646636872E+00 -0.11408933277E+03  0.12220594840E+03  0.10604402938E+02 0.  0.
         22    1    3    3    0    0  0.42486430891E+02  0.60646636872E+00 -0.19964227586E+03  0.20411394593E+03  0.00000000000E+00 0. -1.
         22    1    4    4    0    0 -0.16038632885E+02  0.16196078374E+01 -0.57230919778E+02  0.59457876291E+02  0.00000000000E+00 0. -1.
         22    1    4    4    0    0 -0.26447798006E+02 -0.22260742061E+01 -0.56858412990E+02  0.62748072109E+02  0.00000000000E+00 0. -1.
<mgrwt>
<rscale>  0 0.89761635E+02</rscale>
<asrwt>0</asrwt>
<pdfrwt beam="1">  1        1 0.96832992E-03 0.89761635E+02</pdfrwt>
<pdfrwt beam="2">  1       -1 0.49234718E-01 0.89761635E+02</pdfrwt>
<totfact> 0.61486921E+04</totfact>
</mgrwt>
</event>
<event>
 7    1  0.2787125E-009  0.9075501E+02  0.7818608E-02  0.1301034E+00
         -1   -1    0    0    0  501 -0.00000000000E+00  0.00000000000E+00  0.30258429139E+01  0.30258471114E+01  0.50400000000E-02 0.  1.
          1   -1    0    0  501    0  0.00000000000E+00 -0.00000000000E+00 -0.68050998588E+03  0.68050998590E+03  0.50400000000E-02 0. -1.
         23    2    1    2    0    0 -0.44408920985E-15  0.00000000000E+00 -0.67748414296E+03  0.68353583301E+03  0.90755005583E+02 0.  0.
    9000005    2    3    3    0    0  0.29561706687E+01 -0.27018315182E+02 -0.60984005894E+03  0.61063555589E+03  0.15236677139E+02 0.  0.
         22    1    3    3    0    0 -0.29561706687E+01  0.27018315182E+02 -0.67644084024E+02  0.72900277117E+02  0.00000000000E+00 0.  1.
         22    1    4    4    0    0 -0.31938173072E+01 -0.21384845922E+02 -0.50571490963E+03  0.50617692749E+03  0.00000000000E+00 0. -1.
         22    1    4    4    0    0  0.61499879759E+01 -0.56334692600E+01 -0.10412514931E+03  0.10445862840E+03  0.00000000000E+00 0. -1.
<mgrwt>
<rscale>  0 0.90755006E+02</rscale>
<asrwt>0</asrwt>
<pdfrwt beam="2">  1        1 0.10469372E+00 0.90755006E+02</pdfrwt>
<pdfrwt beam="1">  1       -1 0.46551516E-03 0.90755006E+02</pdfrwt>
<totfact> 0.14393792E+05</totfact>
</mgrwt>
</event>
<event>
 7    1  0.2787125E-009  0.1025762E+03  0.7818608E-02  0.1274970E+00
         -1   -1    0    0    0  501 -0.00000000000E+00  0.00000000000E+00  0.32854313739E+02  0.32854314126E+02  0.50400000000E-02 0.  1.
          1   -1    0    0  501    0  0.00000000000E+00 -0.00000000000E+00 -0.80064707768E+02  0.80064707927E+02  0.50400000000E-02 0. -1.
         23    2    1    2    0    0  0.71054273576E-14  0.35527136788E-14 -0.47210394029E+02  0.11291902205E+03  0.10257623622E+03 0.  0.
    9000005    2    3    3    0    0  0.41328100054E+02  0.29671499551E+02 -0.19360048776E+02  0.54918578344E+02  0.72683573821E+01 0.  0.
         22    1    3    3    0    0 -0.41328100054E+02 -0.29671499551E+02 -0.27850345253E+02  0.58000443709E+02  0.00000000000E+00 0.  1.
         22    1    4    4    0    0  0.36894498188E+02  0.28683256182E+02 -0.18670392537E+02  0.50324116875E+02  0.00000000000E+00 0. -1.
         22    1    4    4    0    0  0.44336018662E+01  0.98824336909E+00 -0.68965623867E+00  0.45944614692E+01  0.00000000000E+00 0. -1.
<mgrwt>
<rscale>  0 0.10257624E+03</rscale>
<asrwt>0</asrwt>
<pdfrwt beam="2">  1        1 0.12317647E-01 0.10257624E+03</pdfrwt>
<pdfrwt beam="1">  1       -1 0.50545099E-02 0.10257624E+03</pdfrwt>
<totfact> 0.72708425E+04</totfact>
</mgrwt>
</event>
<event>
 7    1  0.2787125E-009  0.9421017E+02  0.7818608E-02  0.1292965E+00
         -1   -1    0    0    0  501 -0.00000000000E+00  0.00000000000E+00  0.10169748382E+02  0.10169749631E+02  0.50400000000E-02 0.  1.
          1   -1    0    0  501    0  0.00000000000E+00 -0.00000000000E+00 -0.21818524202E+03  0.21818524208E+03  0.50400000000E-02 0. -1.
         23    2    1    2    0    0  0.00000000000E+00  0.00000000000E+00 -0.20801549364E+03  0.22835499171E+03  0.94210172725E+02 0.  0.
    9000005    2    3    3    0    0 -0.42094876111E+02 -0.54818294011E+01 -0.14878807903E+03  0.15548582340E+03  0.15359680004E+02 0.  0.
         22    1    3    3    0    0  0.42094876111E+02  0.54818294011E+01 -0.59227414613E+02  0.72869168310E+02  0.00000000000E+00 0. -1.
         22    1    4    4    0    0 -0.29592288621E+02 -0.82990503947E+01 -0.12167148290E+03  0.12549313740E+03  0.00000000000E+00 0.  1.
         22    1    4    4    0    0 -0.12502587490E+02  0.28172209936E+01 -0.27116596123E+02  0.29992685998E+02  0.00000000000E+00 0.  1.
<mgrwt>
<rscale>  0 0.94210173E+02</rscale>
<asrwt>0</asrwt>
<pdfrwt beam="2">  1        1 0.33566957E-01 0.94210173E+02</pdfrwt>
<pdfrwt beam="1">  1       -1 0.15645769E-02 0.94210173E+02</pdfrwt>
<totfact> 0.11030008E+05</totfact>
</mgrwt>
</event>
<event>
 7    1  0.2787125E-009  0.9884009E+02  0.7818608E-02  0.1282754E+00
          1   -1    0    0  501    0  0.00000000000E+00  0.00000000000E+00  0.15174442707E+03  0.15174442716E+03  0.50400000000E-02 0. -1.
         -1   -1    0    0    0  501 -0.00000000000E+00 -0.00000000000E+00 -0.16095094739E+02  0.16095095528E+02  0.50400000000E-02 0.  1.
         23    2    1    2    0    0  0.00000000000E+00  0.00000000000E+00  0.13564933234E+03  0.16783952269E+03  0.98840093143E+02 0.  0.
    9000005    2    3    3    0    0  0.20767303363E+02  0.19139558870E+02  0.13630869375E+03  0.13958994994E+03  0.10377404791E+02 0.  0.
         22    1    3    3    0    0 -0.20767303363E+02 -0.19139558870E+02 -0.65936141570E+00  0.28249572744E+02  0.00000000000E+00 0.  1.
         22    1    4    4    0    0  0.54667262247E+01  0.11200215999E+02  0.68497776023E+02  0.69622376102E+02  0.00000000000E+00 0.  1.
         22    1    4    4    0    0  0.15300577139E+02  0.79393428710E+01  0.67810917729E+02  0.69967573841E+02  0.00000000000E+00 0.  1.
<mgrwt>
<rscale>  0 0.98840093E+02</rscale>
<asrwt>0</asrwt>
<pdfrwt beam="1">  1        1 0.23345296E-01 0.98840093E+02</pdfrwt>
<pdfrwt beam="2">  1       -1 0.24761685E-02 0.98840093E+02</pdfrwt>
<totfact> 0.90285291E+04</totfact>
</mgrwt>
</event>
<event>
 7    1  0.2787125E-009  0.9275168E+02  0.7818608E-02  0.1296322E+00
          1   -1    0    0  501    0  0.00000000000E+00  0.00000000000E+00  0.48886352513E+03  0.48886352516E+03  0.50400000000E-02 0. -1.
         -1   -1    0    0    0  501 -0.00000000000E+00 -0.00000000000E+00 -0.43994241355E+01  0.43994270224E+01  0.50400000000E-02 0.  1.
         23    2    1    2    0    0  0.27755575616E-15  0.00000000000E+00  0.48446410100E+03  0.49326295218E+03  0.92751683755E+02 0.  0.
    9000005    2    3    3    0    0 -0.34593372579E+00  0.35782553013E+02  0.39557593392E+03  0.39744219756E+03  0.14123389557E+02 0.  0.
         22    1    3    3    0    0  0.34593372579E+00 -0.35782553013E+02  0.88888167079E+02  0.95820754625E+02  0.00000000000E+00 0.  1.
         22    1    4    4    0    0  0.23986874266E+01  0.11604442824E+02  0.20127031822E+03  0.20161884285E+03  0.00000000000E+00 0.  1.
         22    1    4    4    0    0 -0.27446211524E+01  0.24178110188E+02  0.19430561570E+03  0.19582335471E+03  0.00000000000E+00 0.  1.
<mgrwt>
<rscale>  0 0.92751684E+02</rscale>
<asrwt>0</asrwt>
<pdfrwt beam="1">  1        1 0.75209777E-01 0.92751684E+02</pdfrwt>
<pdfrwt beam="2">  1       -1 0.67683467E-03 0.92751684E+02</pdfrwt>
<totfact> 0.13271582E+05</totfact>
</mgrwt>
</event>
<event>
 7    1  0.2787125E-009  0.9201966E+02  0.7818608E-02  0.1298033E+00
          1   -1    0    0  501    0  0.00000000000E+00  0.00000000000E+00  0.45217199210E+03  0.45217199213E+03  0.50400000000E-02 0. -1.
         -1   -1    0    0    0  501 -0.00000000000E+00 -0.00000000000E+00 -0.46816342690E+01  0.46816369819E+01  0.50400000000E-02 0.  1.
         23    2    1    2    0    0  0.35527136788E-14  0.35527136788E-14  0.44749035784E+03  0.45685362911E+03  0.92019661373E+02 0.  0.
    9000005    2    3    3    0    0  0.25289272892E+02  0.23459086360E+02  0.37253971353E+03  0.37434620437E+03  0.12624045021E+02 0.  0.
         22    1    3    3    0    0 -0.25289272892E+02 -0.23459086360E+02  0.74950644306E+02  0.82507424746E+02  0.00000000000E+00 0.  1.
         22    1    4    4    0    0  0.72723584953E+01  0.30129001928E+01  0.45759225296E+02  0.46431362950E+02  0.00000000000E+00 0. -1.
         22    1    4    4    0    0  0.18016914396E+02  0.20446186167E+02  0.32678048823E+03  0.32791484142E+03  0.00000000000E+00 0. -1.
<mgrwt>
<rscale>  0 0.92019661E+02</rscale>
<asrwt>0</asrwt>
<pdfrwt beam="1">  1        1 0.69564919E-01 0.92019661E+02</pdfrwt>
<pdfrwt beam="2">  1       -1 0.72025167E-03 0.92019661E+02</pdfrwt>
<totfact> 0.13413482E+05</totfact>
</mgrwt>
</event>
<event>
 7    1  0.2787125E-009  0.9170328E+02  0.7818608E-02  0.1298779E+00
          1   -1    0    0  501    0  0.00000000000E+00  0.00000000000E+00  0.41045190511E+02  0.41045190821E+02  0.50400000000E-02 0. -1.
         -1   -1    0    0    0  501 -0.00000000000E+00 -0.00000000000E+00 -0.51220926113E+02  0.51220926361E+02  0.50400000000E-02 0.  1.
         23    2    1    2    0    0 -0.35527136788E-14  0.00000000000E+00 -0.10175735601E+02  0.92266117181E+02  0.91703275758E+02 0.  0.
    9000005    2    3    3    0    0  0.27154212898E+02  0.35122959458E+02 -0.91720863295E+01  0.47859125941E+02  0.15342594598E+02 0.  0.
         22    1    3    3    0    0 -0.27154212898E+02 -0.35122959458E+02 -0.10036492717E+01  0.44406991241E+02  0.00000000000E+00 0. -1.
         22    1    4    4    0    0  0.29618134753E+01 -0.10439225841E+01  0.75270971086E+00  0.32293475089E+01  0.00000000000E+00 0.  1.
         22    1    4    4    0    0  0.24192399423E+02  0.36166882042E+02 -0.99247960404E+01  0.44629778432E+02  0.00000000000E+00 0.  1.
<mgrwt>
<rscale>  0 0.91703276E+02</rscale>
<asrwt>0</asrwt>
<pdfrwt beam="1">  1        1 0.63146448E-02 0.91703276E+02</pdfrwt>
<pdfrwt beam="2">  1       -1 0.78801425E-02 0.91703276E+02</pdfrwt>
<totfact> 0.89550749E+04</totfact>
</mgrwt>
</event>
<event>
 7    1  0.2787125E-009  0.9055575E+02  0.7818608E-02  0.1301511E+00
          1   -1    0    0  501    0  0.00000000000E+00  0.00000000000E+00  0.20365997622E+01  0.20366059984E+01  0.50400000000E-02 0. -1.
         -1   -1    0    0    0  501 -0.00000000000E+00 -0.00000000000E+00 -0.10066203178E+04  0.10066203178E+04  0.50400000000E-02 0.  1.
         23    2    1    2    0    0  0.00000000000E+00  0.00000000000E+00 -0.10045837180E+04  0.10086569238E+04  0.90555747500E+02 0.  0.
    9000005    2    3    3    0    0  0.71746012861E+01  0.32267977038E+02 -0.84396577017E+03  0.84467270987E+03  0.10053274544E+02 0.  0.
         22    1    3    3    0    0 -0.71746012861E+01 -0.32267977038E+02 -0.16061794787E+03  0.16398421395E+03  0.00000000000E+00 0. -1.
         22    1    4    4    0    0  0.42248241224E+01  0.67453841505E+01 -0.12888163237E+03  0.12912716410E+03  0.00000000000E+00 0.  1.
         22    1    4    4    0    0  0.29497771637E+01  0.25522592888E+02 -0.71508413780E+03  0.71554554577E+03  0.00000000000E+00 0.  1.
<mgrwt>
<rscale>  0 0.90555748E+02</rscale>
<asrwt>0</asrwt>
<pdfrwt beam="1">  1        1 0.31332432E-03 0.90555748E+02</pdfrwt>
<pdfrwt beam="2">  1       -1 0.15486427E+00 0.90555748E+02</pdfrwt>
<totfact> 0.25903955E+04</totfact>
</mgrwt>
</event>
<event>
 7    1  0.2787125E-009  0.8609683E+02  0.7818608E-02  0.1312589E+00
          1   -1    0    0  501    0  0.00000000000E+00  0.00000000000E+00  0.15881098584E+02  0.15881099384E+02  0.50400000000E-02 0. -1.
         -1   -1    0    0    0  501 -0.00000000000E+00 -0.00000000000E+00 -0.11669004456E+03  0.11669004467E+03  0.50400000000E-02 0.  1.
         23    2    1    2    0    0  0.35527136788E-14  0.00000000000E+00 -0.10080894598E+03  0.13257114405E+03  0.86096832966E+02 0.  0.
    9000005    2    3    3    0    0 -0.20999138168E+02 -0.22955661433E+02 -0.96041808775E+02  0.10109652265E+03  0.53433756071E+01 0.  0.
         22    1    3    3    0    0  0.20999138168E+02  0.22955661433E+02 -0.47671372023E+01  0.31474621407E+02  0.00000000000E+00 0. -1.
         22    1    4    4    0    0 -0.55050244516E+01 -0.92747321887E+01 -0.28999171828E+02  0.30939908178E+02  0.00000000000E+00 0. -1.
         22    1    4    4    0    0 -0.15494113717E+02 -0.13680929244E+02 -0.67042636948E+02  0.70156614469E+02  0.00000000000E+00 0. -1.
<mgrwt>
<rscale>  0 0.86096833E+02</rscale>
<asrwt>0</asrwt>
<pdfrwt beam="1">  1        1 0.24432461E-02 0.86096833E+02</pdfrwt>
<pdfrwt beam="2">  1       -1 0.17952314E-01 0.86096833E+02</pdfrwt>
<totfact> 0.91559807E+04</totfact>
</mgrwt>
</event>
<event>
 7    1  0.2787125E-009  0.8248987E+02  0.7818608E-02  0.1322130E+00
         -1   -1    0    0    0  501 -0.00000000000E+00  0.00000000000E+00  0.12237252098E+03  0.12237252108E+03  0.50400000000E-02 0.  1.
          1   -1    0    0  501    0  0.00000000000E+00 -0.00000000000E+00 -0.13901360418E+02  0.13901361331E+02  0.50400000000E-02 0. -1.
         23    2    1    2    0    0  0.00000000000E+00  0.00000000000E+00  0.10847116056E+03  0.13627388241E+03  0.82489868195E+02 0.  0.
    9000005    2    3    3    0    0  0.23776032570E+01 -0.23523407657E+02  0.10912220543E+03  0.11262166128E+03  0.14730212737E+02 0.  0.
         22    1    3    3    0    0 -0.23776032570E+01  0.23523407657E+02 -0.65104486815E+00  0.23652221131E+02  0.00000000000E+00 0. -1.
         22    1    4    4    0    0  0.24949279526E+00 -0.24585895412E+02  0.88142040265E+02  0.91507091320E+02  0.00000000000E+00 0. -1.
         22    1    4    4    0    0  0.21281104617E+01  0.10624877552E+01  0.20980165165E+02  0.21114569963E+02  0.00000000000E+00 0. -1.
<mgrwt>
<rscale>  0 0.82489868E+02</rscale>
<asrwt>0</asrwt>
<pdfrwt beam="2">  1        1 0.21386710E-02 0.82489868E+02</pdfrwt>
<pdfrwt beam="1">  1       -1 0.18826541E-01 0.82489868E+02</pdfrwt>
<totfact> 0.10125689E+05</totfact>
</mgrwt>
</event>
<event>
 7    1  0.2787125E-009  0.8390853E+02  0.7818608E-02  0.1318312E+00
          1   -1    0    0  501    0  0.00000000000E+00  0.00000000000E+00  0.36889294919E+02  0.36889295263E+02  0.50400000000E-02 0. -1.
         -1   -1    0    0    0  501 -0.00000000000E+00 -0.00000000000E+00 -0.47714663646E+02  0.47714663912E+02  0.50400000000E-02 0.  1.
         23    2    1    2    0    0  0.00000000000E+00 -0.88817841970E-15 -0.10825368728E+02  0.84603959176E+02  0.83908529364E+02 0.  0.
    9000005    2    3    3    0    0  0.17419990993E+02  0.56386202311E+01 -0.43035800784E+02  0.47553155438E+02  0.86007161733E+01 0.  0.
         22    1    3    3    0    0 -0.17419990993E+02 -0.56386202311E+01  0.32210432057E+02  0.37050803737E+02  0.00000000000E+00 0. -1.
         22    1    4    4    0    0  0.18270987789E+02  0.59434150332E+01 -0.39823730707E+02  0.44216317175E+02  0.00000000000E+00 0.  1.
         22    1    4    4    0    0 -0.85099679613E+00 -0.30479480208E+00 -0.32120700770E+01  0.33368382637E+01  0.00000000000E+00 0.  1.
<mgrwt>
<rscale>  0 0.83908529E+02</rscale>
<asrwt>0</asrwt>
<pdfrwt beam="1">  1        1 0.56752762E-02 0.83908529E+02</pdfrwt>
<pdfrwt beam="2">  1       -1 0.73407175E-02 0.83908529E+02</pdfrwt>
<totfact> 0.11313250E+05</totfact>
</mgrwt>
</event>
<event>
 7    1  0.2787125E-009  0.9122449E+02  0.7818608E-02  0.1299913E+00
         -1   -1    0    0    0  501 -0.00000000000E+00  0.00000000000E+00  0.11526963301E+02  0.11526964403E+02  0.50400000000E-02 0.  1.
          1   -1    0    0  501    0  0.00000000000E+00 -0.00000000000E+00 -0.18048784761E+03  0.18048784768E+03  0.50400000000E-02 0. -1.
         23    2    1    2    0    0  0.00000000000E+00  0.00000000000E+00 -0.16896088431E+03  0.19201481208E+03  0.91224490315E+02 0.  0.
    9000005    2    3    3    0    0  0.22768940717E+02  0.24224901597E+02 -0.20391690480E+02  0.39771336447E+02  0.77889436690E+01 0.  0.
         22    1    3    3    0    0 -0.22768940717E+02 -0.24224901597E+02 -0.14856919383E+03  0.15224347564E+03  0.00000000000E+00 0. -1.
         22    1    4    4    0    0  0.10773184166E+02  0.16411147562E+02 -0.13888034930E+02  0.24047136536E+02  0.00000000000E+00 0.  1.
         22    1    4    4    0    0  0.11995756551E+02  0.78137540346E+01 -0.65036555494E+01  0.15724199911E+02  0.00000000000E+00 0.  1.
<mgrwt>
<rscale>  0 0.91224490E+02</rscale>
<asrwt>0</asrwt>
<pdfrwt beam="2">  1        1 0.27767359E-01 0.91224490E+02</pdfrwt>
<pdfrwt beam="1">  1       -1 0.17733792E-02 0.91224490E+02</pdfrwt>
<totfact> 0.11592324E+05</totfact>
</mgrwt>
</event>
<event>
 7    1  0.2787125E-009  0.9042393E+02  0.7818608E-02  0.1301828E+00
         -1   -1    0    0    0  501 -0.00000000000E+00  0.00000000000E+00  0.44029278539E+02  0.44029278828E+02  0.50400000000E-02 0.  1.
          1   -1    0    0  501    0  0.00000000000E+00 -0.00000000000E+00 -0.46426416474E+02  0.46426416747E+02  0.50400000000E-02 0. -1.
         23    2    1    2    0    0  0.00000000000E+00  0.00000000000E+00 -0.23971379343E+01  0.90455695575E+02  0.90423927097E+02 0.  0.
    9000005    2    3    3    0    0 -0.13584462166E+02 -0.27266198528E+02  0.30435048820E+02  0.45668022254E+02  0.15208315666E+02 0.  0.
         22    1    3    3    0    0  0.13584462166E+02  0.27266198528E+02 -0.32832186754E+02  0.44787673322E+02  0.00000000000E+00 0. -1.
         22    1    4    4    0    0 -0.33993714865E+01 -0.66896450534E+00 -0.63198083612E+00  0.35217381774E+01  0.00000000000E+00 0. -1.
         22    1    4    4    0    0 -0.10185090680E+02 -0.26597234023E+02  0.31067029656E+02  0.42146284076E+02  0.00000000000E+00 0. -1.
<mgrwt>
<rscale>  0 0.90423927E+02</rscale>
<asrwt>0</asrwt>
<pdfrwt beam="2">  1        1 0.71425256E-02 0.90423927E+02</pdfrwt>
<pdfrwt beam="1">  1       -1 0.67737352E-02 0.90423927E+02</pdfrwt>
<totfact> 0.94904559E+04</totfact>
</mgrwt>
</event>
<event>
 7    1  0.2787125E-009  0.9396153E+02  0.7818608E-02  0.1293532E+00
         -1   -1    0    0    0  501 -0.00000000000E+00  0.00000000000E+00  0.18268914948E+02  0.18268915643E+02  0.50400000000E-02 0.  1.
          1   -1    0    0  501    0  0.00000000000E+00 -0.00000000000E+00 -0.12081682207E+03  0.12081682217E+03  0.50400000000E-02 0. -1.
         23    2    1    2    0    0  0.71054273576E-14 -0.17763568394E-14 -0.10254790712E+03  0.13908573781E+03  0.93961530473E+02 0.  0.
    9000005    2    3    3    0    0  0.44819834993E+02 -0.11813879582E+02 -0.50495235154E+02  0.69387344588E+02  0.10791174920E+02 0.  0.
         22    1    3    3    0    0 -0.44819834993E+02  0.11813879582E+02 -0.52052671965E+02  0.69698393226E+02  0.00000000000E+00 0. -1.
         22    1    4    4    0    0  0.34878789469E+02 -0.51945666185E+01 -0.33687615235E+02  0.48768523633E+02  0.00000000000E+00 0.  1.
         22    1    4    4    0    0  0.99410455245E+01 -0.66193129631E+01 -0.16807619919E+02  0.20618820955E+02  0.00000000000E+00 0.  1.
<mgrwt>
<rscale>  0 0.93961530E+02</rscale>
<asrwt>0</asrwt>
<pdfrwt beam="2">  1        1 0.18587203E-01 0.93961530E+02</pdfrwt>
<pdfrwt beam="1">  1       -1 0.28106024E-02 0.93961530E+02</pdfrwt>
<totfact> 0.99393836E+04</totfact>
</mgrwt>
</event>
<event>
 7    1  0.2787125E-009  0.9410621E+02  0.7818608E-02  0.1293202E+00
          1   -1    0    0  501    0  0.00000000000E+00  0.00000000000E+00  0.59709498872E+03  0.59709498874E+03  0.50400000000E-02 0. -1.
         -1   -1    0    0    0  501 -0.00000000000E+00 -0.00000000000E+00 -0.37079423380E+01  0.37079457633E+01  0.50400000000E-02 0.  1.
         23    2    1    2    0    0  0.00000000000E+00  0.00000000000E+00  0.59338704638E+03  0.60080293450E+03  0.94106212842E+02 0.  0.
    9000005    2    3    3    0    0 -0.45511844156E+02 -0.75802774399E+01  0.33875595119E+03  0.34202545634E+03  0.98503683183E+01 0.  0.
         22    1    3    3    0    0  0.45511844156E+02  0.75802774399E+01  0.25463109520E+03  0.25877747817E+03  0.00000000000E+00 0.  1.
         22    1    4    4    0    0 -0.27489848648E+02 -0.15830030465E+01  0.17181001151E+03  0.17400252220E+03  0.00000000000E+00 0.  1.
         22    1    4    4    0    0 -0.18021995509E+02 -0.59972743935E+01  0.16694593968E+03  0.16802293414E+03  0.00000000000E+00 0.  1.
<mgrwt>
<rscale>  0 0.94106213E+02</rscale>
<asrwt>0</asrwt>
<pdfrwt beam="1">  1        1 0.91860688E-01 0.94106213E+02</pdfrwt>
<pdfrwt beam="2">  1       -1 0.57045343E-03 0.94106213E+02</pdfrwt>
<totfact> 0.13016089E+05</totfact>
</mgrwt>
</event>
<event>
 7    1  0.2787125E-009  0.9124495E+02  0.7818608E-02  0.1299865E+00
          1   -1    0    0  501    0  0.00000000000E+00  0.00000000000E+00  0.10359601272E+02  0.10359602498E+02  0.50400000000E-02 0. -1.
         -1   -1    0    0    0  501 -0.00000000000E+00 -0.00000000000E+00 -0.20091605448E+03  0.20091605454E+03  0.50400000000E-02 0.  1.
         23    2    1    2    0    0  0.35527136788E-14  0.00000000000E+00 -0.19055645320E+03  0.21127565704E+03  0.91244952731E+02 0.  0.
    9000005    2    3    3    0    0 -0.27253658560E+02 -0.32343536308E+02 -0.62723519179E+02  0.76627503440E+02  0.12192956137E+02 0.  0.
         22    1    3    3    0    0  0.27253658560E+02  0.32343536308E+02 -0.12783293402E+03  0.13464815360E+03  0.00000000000E+00 0.  1.
         22    1    4    4    0    0 -0.62499893660E+01 -0.16675918889E+02 -0.24804699032E+02  0.30535581408E+02  0.00000000000E+00 0. -1.
         22    1    4    4    0    0 -0.21003669194E+02 -0.15667617419E+02 -0.37918820147E+02  0.46091922032E+02  0.00000000000E+00 0. -1.
<mgrwt>
<rscale>  0 0.91244953E+02</rscale>
<asrwt>0</asrwt>
<pdfrwt beam="1">  1        1 0.15937851E-02 0.91244953E+02</pdfrwt>
<pdfrwt beam="2">  1       -1 0.30910159E-01 0.91244953E+02</pdfrwt>
<totfact> 0.69198842E+04</totfact>
</mgrwt>
</event>
<event>
 7    1  0.2787125E-009  0.9300379E+02  0.7818608E-02  0.1295736E+00
         -1   -1    0    0    0  501 -0.00000000000E+00  0.00000000000E+00  0.31926141017E+02  0.31926141415E+02  0.50400000000E-02 0.  1.
          1   -1    0    0  501    0  0.00000000000E+00 -0.00000000000E+00 -0.67732152634E+02  0.67732152822E+02  0.50400000000E-02 0. -1.
         23    2    1    2    0    0  0.00000000000E+00  0.00000000000E+00 -0.35806011617E+02  0.99658294237E+02  0.93003791010E+02 0.  0.
    9000005    2    3    3    0    0 -0.32241446496E+02 -0.32651814792E+02 -0.23052655975E+02  0.52031621442E+02  0.83793079094E+01 0.  0.
         22    1    3    3    0    0  0.32241446496E+02  0.32651814792E+02 -0.12753355643E+02  0.47626672795E+02  0.00000000000E+00 0. -1.
         22    1    4    4    0    0 -0.16376057549E+01 -0.51847406239E+00  0.50591169696E+00  0.17906743442E+01  0.00000000000E+00 0.  1.
         22    1    4    4    0    0 -0.30603840741E+02 -0.32133340730E+02 -0.23558567672E+02  0.50240947098E+02  0.00000000000E+00 0.  1.
<mgrwt>
<rscale>  0 0.93003791E+02</rscale>
<asrwt>0</asrwt>
<pdfrwt beam="2">  1        1 0.10420331E-01 0.93003791E+02</pdfrwt>
<pdfrwt beam="1">  1       -1 0.49117140E-02 0.93003791E+02</pdfrwt>
<totfact> 0.92922864E+04</totfact>
</mgrwt>
</event>
<event>
 7    1  0.2787125E-009  0.8952682E+02  0.7818608E-02  0.1304002E+00
          1   -1    0    0  501    0  0.00000000000E+00  0.00000000000E+00  0.41359387195E+02  0.41359387502E+02  0.50400000000E-02 0. -1.
         -1   -1    0    0    0  501 -0.00000000000E+00 -0.00000000000E+00 -0.48447600564E+02  0.48447600827E+02  0.50400000000E-02 0.  1.
         23    2    1    2    0    0  0.71054273576E-14  0.00000000000E+00 -0.70882133693E+01  0.89806988329E+02  0.89526824941E+02 0.  0.
    9000005    2    3    3    0    0  0.43590122494E+02  0.49676026655E+01 -0.85305897550E+01  0.45911016932E+02  0.10501174165E+02 0.  0.
         22    1    3    3    0    0 -0.43590122494E+02 -0.49676026655E+01  0.14423763857E+01  0.43895971397E+02  0.00000000000E+00 0.  1.
         22    1    4    4    0    0  0.11216338281E+01  0.12788636782E+01 -0.22527538531E+01  0.28228451383E+01  0.00000000000E+00 0. -1.
         22    1    4    4    0    0  0.42468488666E+02  0.36887389873E+01 -0.62778359019E+01  0.43088171793E+02  0.00000000000E+00 0. -1.
<mgrwt>
<rscale>  0 0.89526825E+02</rscale>
<asrwt>0</asrwt>
<pdfrwt beam="1">  1        1 0.63629827E-02 0.89526825E+02</pdfrwt>
<pdfrwt beam="2">  1       -1 0.74534770E-02 0.89526825E+02</pdfrwt>
<totfact> 0.95928778E+04</totfact>
</mgrwt>
</event>
<event>
 7    1  0.2787125E-009  0.8851922E+02  0.7818608E-02  0.1306478E+00
         -1   -1    0    0    0  501 -0.00000000000E+00  0.00000000000E+00  0.10998108653E+03  0.10998108665E+03  0.50400000000E-02 0.  1.
          1   -1    0    0  501    0  0.00000000000E+00 -0.00000000000E+00 -0.17811363010E+02  0.17811363723E+02  0.50400000000E-02 0. -1.
         23    2    1    2    0    0  0.00000000000E+00 -0.17763568394E-14  0.92169723524E+02  0.12779245037E+03  0.88519220724E+02 0.  0.
    9000005    2    3    3    0    0 -0.21822695043E+02 -0.14121514682E+02 -0.19453970401E+01  0.30153815013E+02  0.15159841501E+02 0.  0.
         22    1    3    3    0    0  0.21822695043E+02  0.14121514682E+02  0.94115120564E+02  0.97638635359E+02  0.00000000000E+00 0.  1.
         22    1    4    4    0    0 -0.46146108973E+01 -0.86754248641E+01 -0.61881598615E+01  0.11612534296E+02  0.00000000000E+00 0. -1.
         22    1    4    4    0    0 -0.17208084146E+02 -0.54460898182E+01  0.42427628214E+01  0.18541280717E+02  0.00000000000E+00 0. -1.
<mgrwt>
<rscale>  0 0.88519221E+02</rscale>
<asrwt>0</asrwt>
<pdfrwt beam="2">  1        1 0.27402097E-02 0.88519221E+02</pdfrwt>
<pdfrwt beam="1">  1       -1 0.16920167E-01 0.88519221E+02</pdfrwt>
<totfact> 0.86239373E+04</totfact>
</mgrwt>
</event>
<event>
 6    1  0.2787125E-009  0.1613604E+03  0.7818608E-02  0.1187169E+00
         -1   -1    0    0    0  501 -0.00000000000E+00  0.00000000000E+00  0.34181708050E+02  0.34181708421E+02  0.50400000000E-02 0.  1.
          1   -1    0    0  501    0  0.00000000000E+00 -0.00000000000E+00 -0.19043218461E+03  0.19043218468E+03  0.50400000000E-02 0. -1.
    9000005    2    1    2    0    0  0.91544450283E+01 -0.61414051623E+02 -0.78649472172E+01  0.63760683870E+02  0.12168722709E+02 0.  0.
         22    1    1    2    0    0 -0.91544450283E+01  0.61414051623E+02 -0.14838552935E+03  0.16085320923E+03  0.00000000000E+00 0. -1.
         22    1    3    3    0    0  0.19597704863E+01 -0.11534504676E+02 -0.64171961474E+01  0.13344133725E+02  0.00000000000E+00 0. -1.
         22    1    3    3    0    0  0.71946745419E+01 -0.49879546947E+02 -0.14477510697E+01  0.50416550145E+02  0.00000000000E+00 0. -1.
<mgrwt>
<rscale>  0 0.16136043E+03</rscale>
<asrwt>0</asrwt>
<pdfrwt beam="2">  1        1 0.29297258E-01 0.16136043E+03</pdfrwt>
<pdfrwt beam="1">  1       -1 0.52587245E-02 0.16136043E+03</pdfrwt>
<totfact> 0.24007930E+04</totfact>
</mgrwt>
</event>
<event>
 7    1  0.2787125E-009  0.9162252E+02  0.7818608E-02  0.1298969E+00
          1   -1    0    0  501    0  0.00000000000E+00  0.00000000000E+00  0.17075992326E+03  0.17075992334E+03  0.50400000000E-02 0. -1.
         -1   -1    0    0    0  501 -0.00000000000E+00 -0.00000000000E+00 -0.12290188241E+02  0.12290189275E+02  0.50400000000E-02 0.  1.
         23    2    1    2    0    0  0.00000000000E+00  0.00000000000E+00  0.15846973502E+03  0.18305011261E+03  0.91622523484E+02 0.  0.
    9000005    2    3    3    0    0  0.23775097871E+02 -0.99275902765E+01  0.40950060419E+01  0.26540147195E+02  0.48783205278E+01 0.  0.
         22    1    3    3    0    0 -0.23775097871E+02  0.99275902765E+01  0.15437472898E+03  0.15650996542E+03  0.00000000000E+00 0. -1.
         22    1    4    4    0    0  0.16175844214E+02 -0.90585264772E+01  0.22823361019E+01  0.18679504706E+02  0.00000000000E+00 0.  1.
         22    1    4    4    0    0  0.75992536566E+01 -0.86906379933E+00  0.18126699400E+01  0.78606424888E+01  0.00000000000E+00 0.  1.
<mgrwt>
<rscale>  0 0.91622523E+02</rscale>
<asrwt>0</asrwt>
<pdfrwt beam="1">  1        1 0.26270756E-01 0.91622523E+02</pdfrwt>
<pdfrwt beam="2">  1       -1 0.18907984E-02 0.91622523E+02</pdfrwt>
<totfact> 0.11337340E+05</totfact>
</mgrwt>
</event>
<event>
 7    1  0.2787125E-009  0.9183131E+02  0.7818608E-02  0.1298477E+00
          1   -1    0    0  501    0  0.00000000000E+00  0.00000000000E+00  0.33470071253E+02  0.33470071632E+02  0.50400000000E-02 0. -1.
         -1   -1    0    0    0  501 -0.00000000000E+00 -0.00000000000E+00 -0.62989024681E+02  0.62989024883E+02  0.50400000000E-02 0.  1.
         23    2    1    2    0    0  0.00000000000E+00  0.00000000000E+00 -0.29518953429E+02  0.96459096515E+02  0.91831305604E+02 0.  0.
    9000005    2    3    3    0    0 -0.28696228622E+02  0.15544784198E+02 -0.47159647616E+02  0.59360471955E+02  0.15314026724E+02 0.  0.
         22    1    3    3    0    0  0.28696228622E+02 -0.15544784198E+02  0.17640694188E+02  0.37098624561E+02  0.00000000000E+00 0. -1.
         22    1    4    4    0    0 -0.27345316327E+02  0.81748271497E+01 -0.36609920792E+02  0.46420689616E+02  0.00000000000E+00 0. -1.
         22    1    4    4    0    0 -0.13509122946E+01  0.73699570481E+01 -0.10549726824E+02  0.12939782339E+02  0.00000000000E+00 0. -1.
<mgrwt>
<rscale>  0 0.91831306E+02</rscale>
<asrwt>0</asrwt>
<pdfrwt beam="1">  1        1 0.51492418E-02 0.91831306E+02</pdfrwt>
<pdfrwt beam="2">  1       -1 0.96906192E-02 0.91831306E+02</pdfrwt>
<totfact> 0.86422024E+04</totfact>
</mgrwt>
</event>
<event>
 7    1  0.2787125E-009  0.9090066E+02  0.7818608E-02  0.1300685E+00
          1   -1    0    0  501    0  0.00000000000E+00  0.00000000000E+00  0.38595388070E+03  0.38595388073E+03  0.50400000000E-02 0. -1.
         -1   -1    0    0    0  501 -0.00000000000E+00 -0.00000000000E+00 -0.53522771529E+01  0.53522795259E+01  0.50400000000E-02 0.  1.
         23    2    1    2    0    0  0.35527136788E-14  0.00000000000E+00  0.38060160354E+03  0.39130616026E+03  0.90900662450E+02 0.  0.
    9000005    2    3    3    0    0 -0.23442669129E+02 -0.37577147161E+02  0.22165353780E+03  0.22630286232E+03  0.11004269724E+02 0.  0.
         22    1    3    3    0    0  0.23442669129E+02  0.37577147161E+02  0.15894806575E+03  0.16500329794E+03  0.00000000000E+00 0.  1.
         22    1    4    4    0    0 -0.14656388789E+02 -0.16232131145E+02  0.88415331096E+02  0.91079979066E+02  0.00000000000E+00 0.  1.
         22    1    4    4    0    0 -0.87862803399E+01 -0.21345016016E+02  0.13323820670E+03  0.13522288325E+03  0.00000000000E+00 0.  1.
<mgrwt>
<rscale>  0 0.90900662E+02</rscale>
<asrwt>0</asrwt>
<pdfrwt beam="1">  1        1 0.59377523E-01 0.90900662E+02</pdfrwt>
<pdfrwt beam="2">  1       -1 0.82342741E-03 0.90900662E+02</pdfrwt>
<totfact> 0.13517658E+05</totfact>
</mgrwt>
</event>
<event>
 7    1  0.2787125E-009  0.8684176E+02  0.7818608E-02  0.1310685E+00
         -1   -1    0    0    0  501 -0.00000000000E+00  0.00000000000E+00  0.58034975788E+01  0.58034997673E+01  0.50400000000E-02 0.  1.
          1   -1    0    0  501    0  0.00000000000E+00 -0.00000000000E+00 -0.32486830797E+03  0.32486830801E+03  0.50400000000E-02 0. -1.
         23    2    1    2    0    0  0.00000000000E+00 -0.71054273576E-14 -0.31906481039E+03  0.33067180777E+03  0.86841759701E+02 0.  0.
    9000005    2    3    3    0    0  0.12156812853E+02 -0.35660590955E+02 -0.24125319744E+03  0.24421885551E+03  0.45031393280E+01 0.  0.
         22    1    3    3    0    0 -0.12156812853E+02  0.35660590955E+02 -0.77811612947E+02  0.86452952266E+02  0.00000000000E+00 0.  1.
         22    1    4    4    0    0  0.12322775749E+02 -0.35453392518E+02 -0.24065480432E+03  0.24356421882E+03  0.00000000000E+00 0.  1.
         22    1    4    4    0    0 -0.16596289602E+00 -0.20719843766E+00 -0.59839311744E+00  0.65463669193E+00  0.00000000000E+00 0.  1.
<mgrwt>
<rscale>  0 0.86841760E+02</rscale>
<asrwt>0</asrwt>
<pdfrwt beam="2">  1        1 0.49979726E-01 0.86841760E+02</pdfrwt>
<pdfrwt beam="1">  1       -1 0.89284620E-03 0.86841760E+02</pdfrwt>
<totfact> 0.14800362E+05</totfact>
</mgrwt>
</event>
<event>
 7    1  0.2787125E-009  0.9116182E+02  0.7818608E-02  0.1300062E+00
          1   -1    0    0  501    0  0.00000000000E+00  0.00000000000E+00  0.50988806636E+02  0.50988806885E+02  0.50400000000E-02 0. -1.
         -1   -1    0    0    0  501 -0.00000000000E+00 -0.00000000000E+00 -0.40746572910E+02  0.40746573222E+02  0.50400000000E-02 0.  1.
         23    2    1    2    0    0  0.17763568394E-14  0.00000000000E+00  0.10242233725E+02  0.91735380107E+02  0.91161815535E+02 0.  0.
    9000005    2    3    3    0    0 -0.14054436854E+02  0.15077539171E+02 -0.34773488430E+02  0.42225031452E+02  0.12202393239E+02 0.  0.
         22    1    3    3    0    0  0.14054436854E+02 -0.15077539171E+02  0.45015722156E+02  0.49510348655E+02  0.00000000000E+00 0. -1.
         22    1    4    4    0    0 -0.98028944455E+01  0.40690712984E+01 -0.24015634025E+02  0.26256518398E+02  0.00000000000E+00 0. -1.
         22    1    4    4    0    0 -0.42515424086E+01  0.11008467873E+02 -0.10757854405E+02  0.15968513054E+02  0.00000000000E+00 0. -1.
<mgrwt>
<rscale>  0 0.91161816E+02</rscale>
<asrwt>0</asrwt>
<pdfrwt beam="1">  1        1 0.78444318E-02 0.91161816E+02</pdfrwt>
<pdfrwt beam="2">  1       -1 0.62687036E-02 0.91161816E+02</pdfrwt>
<totfact> 0.94083246E+04</totfact>
</mgrwt>
</event>
<event>
 6    1  0.2787125E-009  0.1799792E+03  0.7818608E-02  0.1167823E+00
         -1   -1    0    0    0  501 -0.00000000000E+00  0.00000000000E+00  0.15960774546E+02  0.15960775342E+02  0.50400000000E-02 0.  1.
          1   -1    0    0  501    0  0.00000000000E+00 -0.00000000000E+00 -0.50737661626E+03  0.50737661628E+03  0.50400000000E-02 0. -1.
    9000005    2    1    2    0    0 -0.51041192081E+02  0.50214601893E+02 -0.89078251769E+02  0.11467830900E+03  0.94588627188E+01 0.  0.
         22    1    1    2    0    0  0.51041192081E+02 -0.50214601893E+02 -0.40233758994E+03  0.40865908263E+03  0.00000000000E+00 0.  1.
         22    1    3    3    0    0 -0.37265923239E+02  0.41885880994E+02 -0.67191149289E+02  0.87509008703E+02  0.00000000000E+00 0.  1.
         22    1    3    3    0    0 -0.13775268842E+02  0.83287208993E+01 -0.21887102480E+02  0.27169300294E+02  0.00000000000E+00 0.  1.
<mgrwt>
<rscale>  0 0.17997915E+03</rscale>
<asrwt>0</asrwt>
<pdfrwt beam="2">  1        1 0.78057929E-01 0.17997915E+03</pdfrwt>
<pdfrwt beam="1">  1       -1 0.24555042E-02 0.17997915E+03</pdfrwt>
<totfact> 0.21629457E+04</totfact>
</mgrwt>
</event>
<event>
 7    1  0.2787125E-009  0.9353658E+02  0.7818608E-02  0.1294507E+00
         -1   -1    0    0    0  501 -0.00000000000E+00  0.00000000000E+00  0.17483820518E+02  0.17483821244E+02  0.50400000000E-02 0.  1.
          1   -1    0    0  501    0  0.00000000000E+00 -0.00000000000E+00 -0.12510268475E+03  0.12510268485E+03  0.50400000000E-02 0. -1.
         23    2    1    2    0    0  0.00000000000E+00  0.00000000000E+00 -0.10761886423E+03  0.14258650610E+03  0.93536579915E+02 0.  0.
    9000005    2    3    3    0    0 -0.10627340429E+02  0.39835191731E+02 -0.86656851961E+02  0.96335140460E+02  0.84419447298E+01 0.  0.
         22    1    3    3    0    0  0.10627340429E+02 -0.39835191731E+02 -0.20962012272E+02  0.46251365637E+02  0.00000000000E+00 0.  1.
         22    1    4    4    0    0  0.13070602239E+01  0.56142306426E+01 -0.99961739390E+01  0.11539128457E+02  0.00000000000E+00 0.  1.
         22    1    4    4    0    0 -0.11934400653E+02  0.34220961088E+02 -0.76660678022E+02  0.84796012003E+02  0.00000000000E+00 0.  1.
<mgrwt>
<rscale>  0 0.93536580E+02</rscale>
<asrwt>0</asrwt>
<pdfrwt beam="2">  1        1 0.19246566E-01 0.93536580E+02</pdfrwt>
<pdfrwt beam="1">  1       -1 0.26898187E-02 0.93536580E+02</pdfrwt>
<totfact> 0.10125124E+05</totfact>
</mgrwt>
</event>
<event>
 7    1  0.2787125E-009  0.9672470E+02  0.7818608E-02  0.1287338E+00
         -1   -1    0    0    0  501 -0.00000000000E+00  0.00000000000E+00  0.36502090770E+03  0.36502090773E+03  0.50400000000E-02 0.  1.
          1   -1    0    0  501    0  0.00000000000E+00 -0.00000000000E+00 -0.64076236880E+01  0.64076256701E+01  0.50400000000E-02 0. -1.
         23    2    1    2    0    0  0.00000000000E+00  0.00000000000E+00  0.35861328401E+03  0.37142853340E+03  0.96724701898E+02 0.  0.
    9000005    2    3    3    0    0  0.25398569871E+02 -0.38910612451E+02  0.13846736083E+03  0.14643219875E+03  0.10490743721E+02 0.  0.
         22    1    3    3    0    0 -0.25398569871E+02  0.38910612451E+02  0.22014592318E+03  0.22499633465E+03  0.00000000000E+00 0.  1.
         22    1    4    4    0    0  0.92203284756E+01 -0.13480171918E+02  0.34261136881E+02  0.37954643886E+02  0.00000000000E+00 0.  1.
         22    1    4    4    0    0  0.16178241395E+02 -0.25430440533E+02  0.10420622395E+03  0.10847755487E+03  0.00000000000E+00 0.  1.
<mgrwt>
<rscale>  0 0.96724702E+02</rscale>
<asrwt>0</asrwt>
<pdfrwt beam="2">  1        1 0.98578819E-03 0.96724702E+02</pdfrwt>
<pdfrwt beam="1">  1       -1 0.56157075E-01 0.96724702E+02</pdfrwt>
<totfact> 0.47706291E+04</totfact>
</mgrwt>
</event>
<event>
 7    1  0.2787125E-009  0.9256601E+02  0.7818608E-02  0.1296754E+00
         -1   -1    0    0    0  501 -0.00000000000E+00  0.00000000000E+00  0.11535231164E+03  0.11535231175E+03  0.50400000000E-02 0.  1.
          1   -1    0    0  501    0  0.00000000000E+00 -0.00000000000E+00 -0.18570208384E+02  0.18570209068E+02  0.50400000000E-02 0. -1.
         23    2    1    2    0    0  0.00000000000E+00  0.00000000000E+00  0.96782103252E+02  0.13392252081E+03  0.92566009265E+02 0.  0.
    9000005    2    3    3    0    0  0.42973458225E+02  0.16693587816E+02  0.53829403757E+02  0.70911978999E+02  0.23473539704E+01 0.  0.
         22    1    3    3    0    0 -0.42973458225E+02 -0.16693587816E+02  0.42952699494E+02  0.63010541815E+02  0.00000000000E+00 0. -1.
         22    1    4    4    0    0  0.73853876288E+00  0.53223321371E+00  0.14537228061E+01  0.17152322569E+01  0.00000000000E+00 0.  1.
         22    1    4    4    0    0  0.42234919462E+02  0.16161354602E+02  0.52375680951E+02  0.69196746742E+02  0.00000000000E+00 0.  1.
<mgrwt>
<rscale>  0 0.92566009E+02</rscale>
<asrwt>0</asrwt>
<pdfrwt beam="2">  1        1 0.28569552E-02 0.92566009E+02</pdfrwt>
<pdfrwt beam="1">  1       -1 0.17746509E-01 0.92566009E+02</pdfrwt>
<totfact> 0.76124633E+04</totfact>
</mgrwt>
</event>
<event>
 7    1  0.2787125E-009  0.9162147E+02  0.7818608E-02  0.1298972E+00
         -1   -1    0    0    0  501 -0.00000000000E+00  0.00000000000E+00  0.14890364955E+02  0.14890365808E+02  0.50400000000E-02 0.  1.
          1   -1    0    0  501    0  0.00000000000E+00 -0.00000000000E+00 -0.14093833345E+03  0.14093833354E+03  0.50400000000E-02 0. -1.
         23    2    1    2    0    0  0.00000000000E+00  0.88817841970E-15 -0.12604796849E+03  0.15582869935E+03  0.91621466801E+02 0.  0.
    9000005    2    3    3    0    0 -0.39424923039E+02  0.61208656058E+01 -0.98442214334E+02  0.10731202989E+03  0.15271301308E+02 0.  0.
         22    1    3    3    0    0  0.39424923039E+02 -0.61208656058E+01 -0.27605754158E+02  0.48516669455E+02  0.00000000000E+00 0.  1.
         22    1    4    4    0    0 -0.25466928315E+02  0.66030020327E+01 -0.79756004997E+02  0.83983238844E+02  0.00000000000E+00 0. -1.
         22    1    4    4    0    0 -0.13957994725E+02 -0.48213642699E+00 -0.18686209337E+02  0.23328791046E+02  0.00000000000E+00 0. -1.
<mgrwt>
<rscale>  0 0.91621467E+02</rscale>
<asrwt>0</asrwt>
<pdfrwt beam="2">  1        1 0.21682820E-01 0.91621467E+02</pdfrwt>
<pdfrwt beam="1">  1       -1 0.22908256E-02 0.91621467E+02</pdfrwt>
<totfact> 0.10941494E+05</totfact>
</mgrwt>
</event>
<event>
 7    1  0.2787125E-009  0.9359761E+02  0.7818608E-02  0.1294366E+00
         -1   -1    0    0    0  501 -0.00000000000E+00  0.00000000000E+00  0.88456706966E+01  0.88456721324E+01  0.50400000000E-02 0. -1.
          1   -1    0    0  501    0  0.00000000000E+00 -0.00000000000E+00 -0.24759322099E+03  0.24759322104E+03  0.50400000000E-02 0.  1.
         23    2    1    2    0    0 -0.71054273576E-14  0.00000000000E+00 -0.23874755029E+03  0.25643889317E+03  0.93597613009E+02 0.  0.
    9000005    2    3    3    0    0 -0.41580711897E+02  0.84548347301E+01 -0.67073122271E+02  0.79598430980E+02  0.60552994225E+01 0.  0.
         22    1    3    3    0    0  0.41580711897E+02 -0.84548347301E+01 -0.17167442802E+03  0.17684046219E+03  0.00000000000E+00 0. -1.
         22    1    4    4    0    0 -0.36554697219E+02  0.59351287203E+01 -0.60646544189E+02  0.71059657780E+02  0.00000000000E+00 0. -1.
         22    1    4    4    0    0 -0.50260146781E+01  0.25197060098E+01 -0.64265780820E+01  0.85387732002E+01  0.00000000000E+00 0. -1.
<mgrwt>
<rscale>  0 0.93597613E+02</rscale>
<asrwt>0</asrwt>
<pdfrwt beam="2">  1        1 0.38091260E-01 0.93597613E+02</pdfrwt>
<pdfrwt beam="1">  1       -1 0.13608727E-02 0.93597613E+02</pdfrwt>
<totfact> 0.11507388E+05</totfact>
</mgrwt>
</event>
<event>
 7    1  0.2787125E-009  0.9028682E+02  0.7818608E-02  0.1302159E+00
         -1   -1    0    0    0  501 -0.00000000000E+00  0.00000000000E+00  0.63413266600E+02  0.63413266800E+02  0.50400000000E-02 0.  1.
          1   -1    0    0  501    0  0.00000000000E+00 -0.00000000000E+00 -0.32137243986E+02  0.32137244381E+02  0.50400000000E-02 0. -1.
         23    2    1    2    0    0  0.00000000000E+00  0.88817841970E-15  0.31276022614E+02  0.95550511182E+02  0.90286824047E+02 0.  0.
    9000005    2    3    3    0    0 -0.44066286790E+02  0.63498404123E+01  0.10390778679E+02  0.46373773602E+02  0.77717753312E+01 0.  0.
         22    1    3    3    0    0  0.44066286790E+02 -0.63498404123E+01  0.20885243935E+02  0.49176737580E+02  0.00000000000E+00 0. -1.
         22    1    4    4    0    0 -0.84904287247E+01  0.44060447275E+01  0.21491483168E+01  0.98040526598E+01  0.00000000000E+00 0.  1.
         22    1    4    4    0    0 -0.35575858066E+02  0.19437956848E+01  0.82416303622E+01  0.36569720942E+02  0.00000000000E+00 0.  1.
<mgrwt>
<rscale>  0 0.90286824E+02</rscale>
<asrwt>0</asrwt>
<pdfrwt beam="2">  1        1 0.49441914E-02 0.90286824E+02</pdfrwt>
<pdfrwt beam="1">  1       -1 0.97558872E-02 0.90286824E+02</pdfrwt>
<totfact> 0.90131869E+04</totfact>
</mgrwt>
</event>
<event>
 7    1  0.2787125E-009  0.8948086E+02  0.7818608E-02  0.1304114E+00
         -1   -1    0    0    0  501 -0.00000000000E+00  0.00000000000E+00  0.16457200048E+02  0.16457200820E+02  0.50400000000E-02 0.  1.
          1   -1    0    0  501    0  0.00000000000E+00 -0.00000000000E+00 -0.12163102118E+03  0.12163102128E+03  0.50400000000E-02 0. -1.
         23    2    1    2    0    0  0.00000000000E+00  0.00000000000E+00 -0.10517382113E+03  0.13808822210E+03  0.89480860704E+02 0.  0.
    9000005    2    3    3    0    0 -0.16973419456E+02 -0.23738427185E+02 -0.54512851114E+00  0.29466064085E+02  0.40425084187E+01 0.  0.
         22    1    3    3    0    0  0.16973419456E+02  0.23738427185E+02 -0.10462869262E+03  0.10862215802E+03  0.00000000000E+00 0. -1.
         22    1    4    4    0    0 -0.68582214009E-01 -0.41411954860E+00 -0.50911636533E+00  0.65984694745E+00  0.00000000000E+00 0.  1.
         22    1    4    4    0    0 -0.16904837242E+02 -0.23324307636E+02 -0.36012145808E-01  0.28806217137E+02  0.00000000000E+00 0.  1.
<mgrwt>
<rscale>  0 0.89480861E+02</rscale>
<asrwt>0</asrwt>
<pdfrwt beam="2">  1        1 0.18712464E-01 0.89480861E+02</pdfrwt>
<pdfrwt beam="1">  1       -1 0.25318771E-02 0.89480861E+02</pdfrwt>
<totfact> 0.11362098E+05</totfact>
</mgrwt>
</event>
<event>
 7    1  0.2787125E-009  0.8966571E+02  0.7818608E-02  0.1303663E+00
         -1   -1    0    0    0  501 -0.00000000000E+00  0.00000000000E+00  0.42329327838E+03  0.42329327841E+03  0.50400000000E-02 0.  1.
          1   -1    0    0  501    0  0.00000000000E+00 -0.00000000000E+00 -0.47484440292E+01  0.47484467039E+01  0.50400000000E-02 0. -1.
         23    2    1    2    0    0  0.71054273576E-14  0.35527136788E-14  0.41854483435E+03  0.42804172512E+03  0.89665712939E+02 0.  0.
    9000005    2    3    3    0    0  0.38666812801E+02  0.17758218045E+02  0.26784047819E+03  0.27144581301E+03  0.11568531715E+02 0.  0.
         22    1    3    3    0    0 -0.38666812801E+02 -0.17758218045E+02  0.15070435617E+03  0.15659591210E+03  0.00000000000E+00 0. -1.
         22    1    4    4    0    0  0.13528021273E+02  0.59406680502E+00  0.73733497992E+02  0.74966585897E+02  0.00000000000E+00 0.  1.
         22    1    4    4    0    0  0.25138791527E+02  0.17164151240E+02  0.19410698020E+03  0.19647922712E+03  0.00000000000E+00 0.  1.
<mgrwt>
<rscale>  0 0.89665713E+02</rscale>
<asrwt>0</asrwt>
<pdfrwt beam="2">  1        1 0.73052998E-03 0.89665713E+02</pdfrwt>
<pdfrwt beam="1">  1       -1 0.65122050E-01 0.89665713E+02</pdfrwt>
<totfact> 0.54064759E+04</totfact>
</mgrwt>
</event>
<event>
 7    1  0.2787125E-009  0.9059685E+02  0.7818608E-02  0.1301413E+00
          1   -1    0    0  501    0  0.00000000000E+00  0.00000000000E+00  0.11324877319E+02  0.11324878441E+02  0.50400000000E-02 0. -1.
         -1   -1    0    0    0  501 -0.00000000000E+00 -0.00000000000E+00 -0.18118934679E+03  0.18118934686E+03  0.50400000000E-02 0.  1.
         23    2    1    2    0    0  0.00000000000E+00  0.00000000000E+00 -0.16986446948E+03  0.19251422531E+03  0.90596848482E+02 0.  0.
    9000005    2    3    3    0    0 -0.43102598182E+02  0.32795432707E+01 -0.56314099831E+02  0.71014119048E+02  0.17714091391E+01 0.  0.
         22    1    3    3    0    0  0.43102598182E+02 -0.32795432707E+01 -0.11355036964E+03  0.12150010626E+03  0.00000000000E+00 0.  1.
         22    1    4    4    0    0 -0.30455651313E+02  0.30512222272E+01 -0.40396688314E+02  0.50682828263E+02  0.00000000000E+00 0.  1.
         22    1    4    4    0    0 -0.12646946869E+02  0.22832104346E+00 -0.15917411517E+02  0.20331290786E+02  0.00000000000E+00 0.  1.
<mgrwt>
<rscale>  0 0.90596848E+02</rscale>
<asrwt>0</asrwt>
<pdfrwt beam="1">  1        1 0.17422890E-02 0.90596848E+02</pdfrwt>
<pdfrwt beam="2">  1       -1 0.27875282E-01 0.90596848E+02</pdfrwt>
<totfact> 0.72538166E+04</totfact>
</mgrwt>
</event>
<event>
 7    1  0.2787125E-009  0.8959612E+02  0.7818608E-02  0.1303833E+00
          1   -1    0    0  501    0  0.00000000000E+00  0.00000000000E+00  0.13010854612E+03  0.13010854622E+03  0.50400000000E-02 0. -1.
         -1   -1    0    0    0  501 -0.00000000000E+00 -0.00000000000E+00 -0.15424553516E+02  0.15424554340E+02  0.50400000000E-02 0.  1.
         23    2    1    2    0    0  0.35527136788E-14  0.35527136788E-14  0.11468399260E+03  0.14553310056E+03  0.89596122675E+02 0.  0.
    9000005    2    3    3    0    0  0.14587740602E+02  0.22006564747E+02  0.11559538263E+03  0.11911489283E+03  0.11356678274E+02 0.  0.
         22    1    3    3    0    0 -0.14587740602E+02 -0.22006564747E+02 -0.91139002170E+00  0.26418207729E+02  0.00000000000E+00 0.  1.
         22    1    4    4    0    0  0.16424215232E+02  0.18568471707E+02  0.10222793998E+03  0.10519075387E+03  0.00000000000E+00 0.  1.
         22    1    4    4    0    0 -0.18364746298E+01  0.34380930398E+01  0.13367442651E+02  0.13924138962E+02  0.00000000000E+00 0.  1.
<mgrwt>
<rscale>  0 0.89596123E+02</rscale>
<asrwt>0</asrwt>
<pdfrwt beam="1">  1        1 0.20016699E-01 0.89596123E+02</pdfrwt>
<pdfrwt beam="2">  1       -1 0.23730083E-02 0.89596123E+02</pdfrwt>
<totfact> 0.11457123E+05</totfact>
</mgrwt>
</event>
<event>
 7    1  0.2787125E-009  0.1211524E+03  0.7818608E-02  0.1241208E+00
          1   -1    0    0  501    0  0.00000000000E+00  0.00000000000E+00  0.49530801356E+02  0.49530801613E+02  0.50400000000E-02 0. -1.
         -1   -1    0    0    0  501 -0.00000000000E+00 -0.00000000000E+00 -0.74084730115E+02  0.74084730286E+02  0.50400000000E-02 0.  1.
         23    2    1    2    0    0  0.00000000000E+00  0.00000000000E+00 -0.24553928758E+02  0.12361553190E+03  0.12115240117E+03 0.  0.
    9000005    2    3    3    0    0 -0.46224225860E+02 -0.26833132704E+02  0.14923133184E+02  0.57169053538E+02  0.13744261032E+02 0.  0.
         22    1    3    3    0    0  0.46224225860E+02  0.26833132704E+02 -0.39477061942E+02  0.66446478361E+02  0.00000000000E+00 0.  1.
         22    1    4    4    0    0 -0.10250331972E+02  0.90238402104E-01  0.30071768564E+01  0.10682722554E+02  0.00000000000E+00 0. -1.
         22    1    4    4    0    0 -0.35973893887E+02 -0.26923371107E+02  0.11915956327E+02  0.46486330984E+02  0.00000000000E+00 0. -1.
<mgrwt>
<rscale>  0 0.12115240E+03</rscale>
<asrwt>0</asrwt>
<pdfrwt beam="1">  1        1 0.76201233E-02 0.12115240E+03</pdfrwt>
<pdfrwt beam="2">  1       -1 0.11397651E-01 0.12115240E+03</pdfrwt>
<totfact> 0.41452144E+04</totfact>
</mgrwt>
</event>
<event>
 7    1  0.2787125E-009  0.9524566E+02  0.7818608E-02  0.1290624E+00
         -1   -1    0    0    0  501 -0.00000000000E+00  0.00000000000E+00  0.27184486024E+02  0.27184486491E+02  0.50400000000E-02 0.  1.
          1   -1    0    0  501    0  0.00000000000E+00 -0.00000000000E+00 -0.83427511638E+02  0.83427511790E+02  0.50400000000E-02 0. -1.
         23    2    1    2    0    0  0.00000000000E+00  0.00000000000E+00 -0.56243025614E+02  0.11061199828E+03  0.95245662544E+02 0.  0.
    9000005    2    3    3    0    0  0.34780564180E+02  0.40491289174E+01  0.86331367814E+01  0.36889548940E+02  0.77604562166E+01 0.  0.
         22    1    3    3    0    0 -0.34780564180E+02 -0.40491289174E+01 -0.64876162395E+02  0.73722449341E+02  0.00000000000E+00 0. -1.
         22    1    4    4    0    0  0.25206456666E+02  0.60339285533E+01  0.46536228079E+01  0.26333058248E+02  0.00000000000E+00 0. -1.
         22    1    4    4    0    0  0.95741075138E+01 -0.19847996359E+01  0.39795139735E+01  0.10556490693E+02  0.00000000000E+00 0. -1.
<mgrwt>
<rscale>  0 0.95245663E+02</rscale>
<asrwt>0</asrwt>
<pdfrwt beam="2">  1        1 0.12835002E-01 0.95245663E+02</pdfrwt>
<pdfrwt beam="1">  1       -1 0.41822287E-02 0.95245663E+02</pdfrwt>
<totfact> 0.89936654E+04</totfact>
</mgrwt>
</event>
<event>
 7    1  0.2787125E-009  0.9170873E+02  0.7818608E-02  0.1298766E+00
          1   -1    0    0  501    0  0.00000000000E+00  0.00000000000E+00  0.12211662497E+02  0.12211663537E+02  0.50400000000E-02 0. -1.
         -1   -1    0    0    0  501 -0.00000000000E+00 -0.00000000000E+00 -0.17218153868E+03  0.17218153876E+03  0.50400000000E-02 0.  1.
         23    2    1    2    0    0  0.00000000000E+00  0.00000000000E+00 -0.15996987619E+03  0.18439320230E+03  0.91708733310E+02 0.  0.
    9000005    2    3    3    0    0  0.36636550161E+02 -0.69577305128E+01 -0.28874664338E+02  0.48097195783E+02  0.94311812578E+01 0.  0.
         22    1    3    3    0    0 -0.36636550161E+02  0.69577305128E+01 -0.13109521185E+03  0.13629600651E+03  0.00000000000E+00 0.  1.
         22    1    4    4    0    0  0.25365798786E+02 -0.82538100070E+01 -0.23471919986E+02  0.35531396757E+02  0.00000000000E+00 0.  1.
         22    1    4    4    0    0  0.11270751375E+02  0.12960794942E+01 -0.54027443520E+01  0.12565799025E+02  0.00000000000E+00 0.  1.
<mgrwt>
<rscale>  0 0.91708733E+02</rscale>
<asrwt>0</asrwt>
<pdfrwt beam="1">  1        1 0.18787175E-02 0.91708733E+02</pdfrwt>
<pdfrwt beam="2">  1       -1 0.26489466E-01 0.91708733E+02</pdfrwt>
<totfact> 0.71215760E+04</totfact>
</mgrwt>
</event>
<event>
 7    1  0.2787125E-009  0.9196953E+02  0.7818608E-02  0.1298151E+00
         -1   -1    0    0    0  501 -0.00000000000E+00  0.00000000000E+00  0.13352170714E+03  0.13352170724E+03  0.50400000000E-02 0.  1.
          1   -1    0    0  501    0  0.00000000000E+00 -0.00000000000E+00 -0.15837115304E+02  0.15837116106E+02  0.50400000000E-02 0. -1.
         23    2    1    2    0    0  0.00000000000E+00  0.00000000000E+00  0.11768459184E+03  0.14935882335E+03  0.91969532751E+02 0.  0.
    9000005    2    3    3    0    0 -0.20376916735E+02 -0.12370967186E+02 -0.34955437766E+01  0.25856253198E+02  0.93844253108E+01 0.  0.
         22    1    3    3    0    0  0.20376916735E+02  0.12370967186E+02  0.12118013562E+03  0.12350257015E+03  0.00000000000E+00 0.  1.
         22    1    4    4    0    0 -0.10273430458E+02 -0.16078157163E+01  0.94289302168E+00  0.10441144191E+02  0.00000000000E+00 0.  1.
         22    1    4    4    0    0 -0.10103486277E+02 -0.10763151470E+02 -0.44384367982E+01  0.15415109008E+02  0.00000000000E+00 0.  1.
<mgrwt>
<rscale>  0 0.91969533E+02</rscale>
<asrwt>0</asrwt>
<pdfrwt beam="2">  1        1 0.24364793E-02 0.91969533E+02</pdfrwt>
<pdfrwt beam="1">  1       -1 0.20541801E-01 0.91969533E+02</pdfrwt>
<totfact> 0.75075421E+04</totfact>
</mgrwt>
</event>
<event>
 7    1  0.2787125E-009  0.9091430E+02  0.7818608E-02  0.1300653E+00
          1   -1    0    0  501    0  0.00000000000E+00  0.00000000000E+00  0.11196164987E+03  0.11196164999E+03  0.50400000000E-02 0. -1.
         -1   -1    0    0    0  501 -0.00000000000E+00 -0.00000000000E+00 -0.18455896835E+02  0.18455897523E+02  0.50400000000E-02 0.  1.
         23    2    1    2    0    0  0.00000000000E+00  0.88817841970E-15  0.93505753037E+02  0.13041754751E+03  0.90914304964E+02 0.  0.
    9000005    2    3    3    0    0 -0.34461292232E+02  0.71883604371E+01  0.68291669204E+01  0.36864975289E+02  0.85519409609E+01 0.  0.
         22    1    3    3    0    0  0.34461292232E+02 -0.71883604371E+01  0.86676586117E+02  0.93552572220E+02  0.00000000000E+00 0. -1.
         22    1    4    4    0    0 -0.23482829456E+02  0.64691603201E+01  0.91652580317E+00  0.24374850442E+02  0.00000000000E+00 0. -1.
         22    1    4    4    0    0 -0.10978462775E+02  0.71920011691E+00  0.59126411172E+01  0.12490124847E+02  0.00000000000E+00 0. -1.
<mgrwt>
<rscale>  0 0.90914305E+02</rscale>
<asrwt>0</asrwt>
<pdfrwt beam="1">  1        1 0.17224869E-01 0.90914305E+02</pdfrwt>
<pdfrwt beam="2">  1       -1 0.28393688E-02 0.90914305E+02</pdfrwt>
<totfact> 0.10729715E+05</totfact>
</mgrwt>
</event>
<event>
 7    1  0.2787125E-009  0.9068233E+02  0.7818608E-02  0.1301208E+00
          1   -1    0    0  501    0  0.00000000000E+00  0.00000000000E+00  0.17524735534E+02  0.17524736259E+02  0.50400000000E-02 0. -1.
         -1   -1    0    0    0  501 -0.00000000000E+00 -0.00000000000E+00 -0.11730969056E+03  0.11730969067E+03  0.50400000000E-02 0.  1.
         23    2    1    2    0    0  0.00000000000E+00  0.00000000000E+00 -0.99784955028E+02  0.13483442693E+03  0.90682332543E+02 0.  0.
    9000005    2    3    3    0    0  0.37029043694E+02 -0.10305386380E+02 -0.15825293521E+02  0.42494967186E+02  0.88335301982E+01 0.  0.
         22    1    3    3    0    0 -0.37029043694E+02  0.10305386380E+02 -0.83959661507E+02  0.92339459743E+02  0.00000000000E+00 0.  1.
         22    1    4    4    0    0  0.25824439349E+02 -0.28692024543E+01 -0.10039153952E+02  0.27855315516E+02  0.00000000000E+00 0. -1.
         22    1    4    4    0    0  0.11204604345E+02 -0.74361839260E+01 -0.57861395687E+01  0.14639651670E+02  0.00000000000E+00 0. -1.
<mgrwt>
<rscale>  0 0.90682333E+02</rscale>
<asrwt>0</asrwt>
<pdfrwt beam="1">  1        1 0.26961133E-02 0.90682333E+02</pdfrwt>
<pdfrwt beam="2">  1       -1 0.18047644E-01 0.90682333E+02</pdfrwt>
<totfact> 0.80009266E+04</totfact>
</mgrwt>
</event>
<event>
 7    1  0.2787125E-009  0.9238250E+02  0.7818608E-02  0.1297183E+00
         -1   -1    0    0    0  501 -0.00000000000E+00  0.00000000000E+00  0.38144565209E+02  0.38144565542E+02  0.50400000000E-02 0. -1.
          1   -1    0    0  501    0  0.00000000000E+00 -0.00000000000E+00 -0.55935405616E+02  0.55935405843E+02  0.50400000000E-02 0.  1.
         23    2    1    2    0    0  0.00000000000E+00  0.00000000000E+00 -0.17790840407E+02  0.94079971385E+02  0.92382503827E+02 0.  0.
    9000005    2    3    3    0    0  0.25648862798E+02  0.21613584689E+02 -0.39804104231E+02  0.53960213283E+02  0.14224158957E+02 0.  0.
         22    1    3    3    0    0 -0.25648862798E+02 -0.21613584689E+02  0.22013263824E+02  0.40119758101E+02  0.00000000000E+00 0. -1.
         22    1    4    4    0    0  0.21086617966E+02  0.11671118715E+02 -0.19928534136E+02  0.31273102534E+02  0.00000000000E+00 0.  1.
         22    1    4    4    0    0  0.45622448321E+01  0.99424659738E+01 -0.19875570095E+02  0.22687110750E+02  0.00000000000E+00 0.  1.
<mgrwt>
<rscale>  0 0.92382504E+02</rscale>
<asrwt>0</asrwt>
<pdfrwt beam="2">  1        1 0.86054471E-02 0.92382504E+02</pdfrwt>
<pdfrwt beam="1">  1       -1 0.58683947E-02 0.92382504E+02</pdfrwt>
<totfact> 0.91928538E+04</totfact>
</mgrwt>
</event>
<event>
 7    1  0.2787125E-009  0.1005631E+03  0.7818608E-02  0.1279116E+00
          1   -1    0    0  501    0  0.00000000000E+00  0.00000000000E+00  0.78000068722E+01  0.78000085005E+01  0.50400000000E-02 0. -1.
         -1   -1    0    0    0  501 -0.00000000000E+00 -0.00000000000E+00 -0.32413245971E+03  0.32413245975E+03  0.50400000000E-02 0.  1.
         23    2    1    2    0    0  0.00000000000E+00  0.00000000000E+00 -0.31633245284E+03  0.33193246825E+03  0.10056312823E+03 0.  0.
    9000005    2    3    3    0    0  0.44329814484E+02  0.96831684013E+01 -0.87127541432E+02  0.98279332994E+02  0.29534073767E+01 0.  0.
         22    1    3    3    0    0 -0.44329814484E+02 -0.96831684013E+01 -0.22920491140E+03  0.23365313525E+03  0.00000000000E+00 0.  1.
         22    1    4    4    0    0  0.22922991151E+02  0.59945224539E+01 -0.47863019498E+02  0.53406614368E+02  0.00000000000E+00 0. -1.
         22    1    4    4    0    0  0.21406823333E+02  0.36886459474E+01 -0.39264521934E+02  0.44872718626E+02  0.00000000000E+00 0. -1.
<mgrwt>
<rscale>  0 0.10056313E+03</rscale>
<asrwt>0</asrwt>
<pdfrwt beam="1">  1        1 0.12000014E-02 0.10056313E+03</pdfrwt>
<pdfrwt beam="2">  1       -1 0.49866522E-01 0.10056313E+03</pdfrwt>
<totfact> 0.45388509E+04</totfact>
</mgrwt>
</event>
<event>
 7    1  0.2787125E-009  0.9111580E+02  0.7818608E-02  0.1300172E+00
          1   -1    0    0  501    0  0.00000000000E+00  0.00000000000E+00  0.10347439917E+03  0.10347439929E+03  0.50400000000E-02 0. -1.
         -1   -1    0    0    0  501 -0.00000000000E+00 -0.00000000000E+00 -0.20058315369E+02  0.20058316003E+02  0.50400000000E-02 0.  1.
         23    2    1    2    0    0  0.00000000000E+00 -0.71054273576E-14  0.83416083798E+02  0.12353271529E+03  0.91115798363E+02 0.  0.
    9000005    2    3    3    0    0  0.24966114282E+02 -0.35046393954E+02  0.61650682651E+02  0.75311461902E+02  0.44105590208E+01 0.  0.
         22    1    3    3    0    0 -0.24966114282E+02  0.35046393954E+02  0.21765401147E+02  0.48221253391E+02  0.00000000000E+00 0. -1.
         22    1    4    4    0    0  0.59284931639E+00 -0.20143518164E+00  0.16951146727E+01  0.18070584379E+01  0.00000000000E+00 0. -1.
         22    1    4    4    0    0  0.24373264965E+02 -0.34844958772E+02  0.59955567979E+02  0.73504403464E+02  0.00000000000E+00 0. -1.
<mgrwt>
<rscale>  0 0.91115798E+02</rscale>
<asrwt>0</asrwt>
<pdfrwt beam="1">  1        1 0.15919138E-01 0.91115798E+02</pdfrwt>
<pdfrwt beam="2">  1       -1 0.30858948E-02 0.91115798E+02</pdfrwt>
<totfact> 0.10524097E+05</totfact>
</mgrwt>
</event>
<event>
 7    1  0.2787125E-009  0.9555460E+02  0.7818608E-02  0.1289932E+00
         -1   -1    0    0    0  501 -0.00000000000E+00  0.00000000000E+00  0.53818447312E+01  0.53818470912E+01  0.50400000000E-02 0.  1.
          1   -1    0    0  501    0  0.00000000000E+00 -0.00000000000E+00 -0.42414262455E+03  0.42414262458E+03  0.50400000000E-02 0. -1.
         23    2    1    2    0    0  0.00000000000E+00  0.00000000000E+00 -0.41876077982E+03  0.42952447167E+03  0.95554597220E+02 0.  0.
    9000005    2    3    3    0    0 -0.21751178578E+02  0.35874871035E+02 -0.30733207234E+03  0.31045946005E+03  0.13113104362E+02 0.  0.
         22    1    3    3    0    0  0.21751178578E+02 -0.35874871035E+02 -0.11142870748E+03  0.11906501162E+03  0.00000000000E+00 0.  1.
         22    1    4    4    0    0 -0.16814436040E+02  0.22113349936E+02 -0.15899530322E+03  0.16140394032E+03  0.00000000000E+00 0.  1.
         22    1    4    4    0    0 -0.49367425384E+01  0.13761521099E+02 -0.14833676912E+03  0.14905551974E+03  0.00000000000E+00 0.  1.
<mgrwt>
<rscale>  0 0.95554597E+02</rscale>
<asrwt>0</asrwt>
<pdfrwt beam="2">  1        1 0.65252685E-01 0.95554597E+02</pdfrwt>
<pdfrwt beam="1">  1       -1 0.82797663E-03 0.95554597E+02</pdfrwt>
<totfact> 0.12018087E+05</totfact>
</mgrwt>
</event>
<event>
 7    1  0.2787125E-009  0.9555170E+02  0.7818608E-02  0.1289938E+00
         -1   -1    0    0    0  501 -0.00000000000E+00  0.00000000000E+00  0.44706420552E+02  0.44706420836E+02  0.50400000000E-02 0.  1.
          1   -1    0    0  501    0  0.00000000000E+00 -0.00000000000E+00 -0.51056021758E+02  0.51056022006E+02  0.50400000000E-02 0. -1.
         23    2    1    2    0    0 -0.17763568394E-14  0.00000000000E+00 -0.63496012058E+01  0.95762442843E+02  0.95551703405E+02 0.  0.
    9000005    2    3    3    0    0 -0.14622886466E+02  0.27634797886E+02  0.31448397083E+02  0.46709415031E+02  0.14671636265E+02 0.  0.
         22    1    3    3    0    0  0.14622886466E+02 -0.27634797886E+02 -0.37797998289E+02  0.49053027811E+02  0.00000000000E+00 0. -1.
         22    1    4    4    0    0 -0.82789036011E+01  0.11100382567E+02  0.46880924703E+01  0.14619745175E+02  0.00000000000E+00 0. -1.
         22    1    4    4    0    0 -0.63439828652E+01  0.16534415319E+02  0.26760304613E+02  0.32089669856E+02  0.00000000000E+00 0. -1.
<mgrwt>
<rscale>  0 0.95551703E+02</rscale>
<asrwt>0</asrwt>
<pdfrwt beam="2">  1        1 0.78547726E-02 0.95551703E+02</pdfrwt>
<pdfrwt beam="1">  1       -1 0.68779109E-02 0.95551703E+02</pdfrwt>
<totfact> 0.82469796E+04</totfact>
</mgrwt>
</event>
<event>
 7    1  0.2787125E-009  0.9068990E+02  0.7818608E-02  0.1301190E+00
         -1   -1    0    0    0  501 -0.00000000000E+00  0.00000000000E+00  0.25960047997E+03  0.25960048002E+03  0.50400000000E-02 0.  1.
          1   -1    0    0  501    0  0.00000000000E+00 -0.00000000000E+00 -0.79204950851E+01  0.79204966886E+01  0.50400000000E-02 0. -1.
         23    2    1    2    0    0  0.00000000000E+00  0.00000000000E+00  0.25167998489E+03  0.26752097671E+03  0.90689901240E+02 0.  0.
    9000005    2    3    3    0    0  0.33115686734E+02  0.21543240416E+02  0.70896536725E+02  0.82471213011E+02  0.14643160192E+02 0.  0.
         22    1    3    3    0    0 -0.33115686734E+02 -0.21543240416E+02  0.18078344816E+03  0.18504976370E+03  0.00000000000E+00 0.  1.
         22    1    4    4    0    0  0.46571550131E+01  0.10238618312E+02  0.15163192766E+02  0.18879640161E+02  0.00000000000E+00 0. -1.
         22    1    4    4    0    0  0.28458531721E+02  0.11304622104E+02  0.55733343959E+02  0.63591572850E+02  0.00000000000E+00 0. -1.
<mgrwt>
<rscale>  0 0.90689901E+02</rscale>
<asrwt>0</asrwt>
<pdfrwt beam="2">  1        1 0.12185380E-02 0.90689901E+02</pdfrwt>
<pdfrwt beam="1">  1       -1 0.39938529E-01 0.90689901E+02</pdfrwt>
<totfact> 0.64830211E+04</totfact>
</mgrwt>
</event>
<event>
 7    1  0.2787125E-009  0.9120658E+02  0.7818608E-02  0.1299956E+00
          1   -1    0    0  501    0  0.00000000000E+00  0.00000000000E+00  0.24362741172E+03  0.24362741177E+03  0.50400000000E-02 0. -1.
         -1   -1    0    0    0  501 -0.00000000000E+00 -0.00000000000E+00 -0.85362317433E+01  0.85362332312E+01  0.50400000000E-02 0.  1.
         23    2    1    2    0    0  0.00000000000E+00  0.17763568394E-14  0.23509117997E+03  0.25216364500E+03  0.91206583964E+02 0.  0.
    9000005    2    3    3    0    0  0.44911358417E+02 -0.48725282563E+01  0.11717494237E+03  0.12589008983E+03  0.88077210366E+01 0.  0.
         22    1    3    3    0    0 -0.44911358417E+02  0.48725282563E+01  0.11791623760E+03  0.12627355517E+03  0.00000000000E+00 0.  1.
         22    1    4    4    0    0  0.19275484462E+02  0.20763303587E+01  0.53078845945E+02  0.56508577542E+02  0.00000000000E+00 0. -1.
         22    1    4    4    0    0  0.25635873955E+02 -0.69488586150E+01  0.64096096427E+02  0.69381512283E+02  0.00000000000E+00 0. -1.
<mgrwt>
<rscale>  0 0.91206584E+02</rscale>
<asrwt>0</asrwt>
<pdfrwt beam="1">  1        1 0.37481137E-01 0.91206584E+02</pdfrwt>
<pdfrwt beam="2">  1       -1 0.13132667E-02 0.91206584E+02</pdfrwt>
<totfact> 0.12294202E+05</totfact>
</mgrwt>
</event>
<event>
 7    1  0.2787125E-009  0.9173666E+02  0.7818608E-02  0.1298700E+00
          1   -1    0    0  501    0  0.00000000000E+00  0.00000000000E+00  0.93778370728E+01  0.93778384271E+01  0.50400000000E-02 0. -1.
         -1   -1    0    0    0  501 -0.00000000000E+00 -0.00000000000E+00 -0.22434847239E+03  0.22434847244E+03  0.50400000000E-02 0.  1.
         23    2    1    2    0    0  0.35527136788E-14  0.00000000000E+00 -0.21497063531E+03  0.23372631087E+03  0.91736657590E+02 0.  0.
    9000005    2    3    3    0    0 -0.16973992955E+02 -0.39874713491E+02 -0.80114350844E+02  0.92077708075E+02  0.13486508084E+02 0.  0.
         22    1    3    3    0    0  0.16973992955E+02  0.39874713491E+02 -0.13485628447E+03  0.14164860280E+03  0.00000000000E+00 0. -1.
         22    1    4    4    0    0 -0.17887768184E+02 -0.29931126322E+02 -0.67642583381E+02  0.76101009585E+02  0.00000000000E+00 0. -1.
         22    1    4    4    0    0  0.91377522850E+00 -0.99435871696E+01 -0.12471767463E+02  0.15976698489E+02  0.00000000000E+00 0. -1.
<mgrwt>
<rscale>  0 0.91736658E+02</rscale>
<asrwt>0</asrwt>
<pdfrwt beam="1">  1        1 0.14427444E-02 0.91736658E+02</pdfrwt>
<pdfrwt beam="2">  1       -1 0.34515146E-01 0.91736658E+02</pdfrwt>
<totfact> 0.66020162E+04</totfact>
</mgrwt>
</event>
<event>
 7    1  0.2787125E-009  0.9097116E+02  0.7818608E-02  0.1300517E+00
         -1   -1    0    0    0  501 -0.00000000000E+00  0.00000000000E+00  0.15297556440E+02  0.15297557270E+02  0.50400000000E-02 0. -1.
          1   -1    0    0  501    0  0.00000000000E+00 -0.00000000000E+00 -0.13524630239E+03  0.13524630249E+03  0.50400000000E-02 0.  1.
         23    2    1    2    0    0  0.00000000000E+00 -0.17763568394E-14 -0.11994874595E+03  0.15054385976E+03  0.90971160566E+02 0.  0.
    9000005    2    3    3    0    0 -0.23043120594E+02  0.12327983493E+02 -0.12142846457E+03  0.12436841036E+03  0.62980079454E+01 0.  0.
         22    1    3    3    0    0  0.23043120594E+02 -0.12327983493E+02  0.14797186203E+01  0.26175449393E+02  0.00000000000E+00 0. -1.
         22    1    4    4    0    0 -0.15041285234E+02  0.74528373718E+01 -0.90803870832E+02  0.92342449634E+02  0.00000000000E+00 0. -1.
         22    1    4    4    0    0 -0.80018353602E+01  0.48751461209E+01 -0.30624593741E+02  0.32025960729E+02  0.00000000000E+00 0. -1.
<mgrwt>
<rscale>  0 0.90971161E+02</rscale>
<asrwt>0</asrwt>
<pdfrwt beam="2">  1        1 0.20807123E-01 0.90971161E+02</pdfrwt>
<pdfrwt beam="1">  1       -1 0.23534704E-02 0.90971161E+02</pdfrwt>
<totfact> 0.11071673E+05</totfact>
</mgrwt>
</event>
<event>
 7    1  0.2787125E-009  0.9076263E+02  0.7818608E-02  0.1301015E+00
          1   -1    0    0  501    0  0.00000000000E+00  0.00000000000E+00  0.44640199094E+02  0.44640199379E+02  0.50400000000E-02 0. -1.
         -1   -1    0    0    0  501 -0.00000000000E+00 -0.00000000000E+00 -0.46134737452E+02  0.46134737727E+02  0.50400000000E-02 0.  1.
         23    2    1    2    0    0  0.00000000000E+00  0.00000000000E+00 -0.14945383572E+01  0.90774937106E+02  0.90762633069E+02 0.  0.
    9000005    2    3    3    0    0  0.33805105934E+00  0.20739563788E+02  0.38557159348E+02  0.45670810092E+02  0.12997098630E+02 0.  0.
         22    1    3    3    0    0 -0.33805105934E+00 -0.20739563788E+02 -0.40051697705E+02  0.45104127014E+02  0.00000000000E+00 0.  1.
         22    1    4    4    0    0  0.38851178073E-01  0.17717790733E+02  0.19394886157E+02  0.26269435222E+02  0.00000000000E+00 0.  1.
         22    1    4    4    0    0  0.29919988127E+00  0.30217730552E+01  0.19162273191E+02  0.19401374869E+02  0.00000000000E+00 0.  1.
<mgrwt>
<rscale>  0 0.90762633E+02</rscale>
<asrwt>0</asrwt>
<pdfrwt beam="1">  1        1 0.68677229E-02 0.90762633E+02</pdfrwt>
<pdfrwt beam="2">  1       -1 0.70976520E-02 0.90762633E+02</pdfrwt>
<totfact> 0.93366383E+04</totfact>
</mgrwt>
</event>
<event>
 7    1  0.2787125E-009  0.6059119E+02  0.7818608E-02  0.1395367E+00
          1   -1    0    0  501    0  0.00000000000E+00  0.00000000000E+00  0.25566452300E+03  0.25566452305E+03  0.50400000000E-02 0. -1.
         -1   -1    0    0    0  501 -0.00000000000E+00 -0.00000000000E+00 -0.35899495298E+01  0.35899530677E+01  0.50400000000E-02 0.  1.
         23    2    1    2    0    0 -0.88817841970E-15  0.00000000000E+00  0.25207457347E+03  0.25925447612E+03  0.60591194053E+02 0.  0.
    9000005    2    3    3    0    0  0.56823371503E+01 -0.27030047616E+02  0.17808897581E+03  0.18028118259E+03  0.47654025167E+01 0.  0.
         22    1    3    3    0    0 -0.56823371503E+01  0.27030047616E+02  0.73985597666E+02  0.78973293534E+02  0.00000000000E+00 0. -1.
         22    1    4    4    0    0  0.40054253340E+01 -0.19719231047E+02  0.14221450377E+03  0.14363097364E+03  0.00000000000E+00 0. -1.
         22    1    4    4    0    0  0.16769118163E+01 -0.73108165688E+01  0.35874472037E+02  0.36650208950E+02  0.00000000000E+00 0. -1.
<mgrwt>
<rscale>  0 0.60591194E+02</rscale>
<asrwt>0</asrwt>
<pdfrwt beam="1">  1        1 0.39332993E-01 0.60591194E+02</pdfrwt>
<pdfrwt beam="2">  1       -1 0.55230035E-03 0.60591194E+02</pdfrwt>
<totfact> 0.36117974E+05</totfact>
</mgrwt>
</event>
<event>
 7    1  0.2787125E-009  0.1023892E+03  0.7818608E-02  0.1275351E+00
         -1   -1    0    0    0  501 -0.00000000000E+00  0.00000000000E+00  0.36790305939E+01  0.36790340461E+01  0.50400000000E-02 0.  1.
          1   -1    0    0  501    0  0.00000000000E+00 -0.00000000000E+00 -0.71238504117E+03  0.71238504119E+03  0.50400000000E-02 0. -1.
         23    2    1    2    0    0 -0.71054273576E-14  0.00000000000E+00 -0.70870601058E+03  0.71606407524E+03  0.10238921044E+03 0.  0.
    9000005    2    3    3    0    0  0.41040696506E+02  0.36553579683E+01 -0.56571962623E+03  0.56725948351E+03  0.68502344253E+01 0.  0.
         22    1    3    3    0    0 -0.41040696506E+02 -0.36553579683E+01 -0.14298638434E+03  0.14880459173E+03  0.00000000000E+00 0.  1.
         22    1    4    4    0    0  0.34048181647E+02  0.50167884299E+01 -0.44421073480E+03  0.44554194387E+03  0.00000000000E+00 0. -1.
         22    1    4    4    0    0  0.69925148587E+01 -0.13614304616E+01 -0.12150889144E+03  0.12171753963E+03  0.00000000000E+00 0. -1.
<mgrwt>
<rscale>  0 0.10238921E+03</rscale>
<asrwt>0</asrwt>
<pdfrwt beam="2">  1        1 0.10959759E+00 0.10238921E+03</pdfrwt>
<pdfrwt beam="1">  1       -1 0.56600554E-03 0.10238921E+03</pdfrwt>
<totfact> 0.10441227E+05</totfact>
</mgrwt>
</event>
<event>
 7    1  0.3015061E-009  0.9569268E+02  0.7818608E-02  0.1289624E+00
         -1   -1    0    0    0  501 -0.00000000000E+00  0.00000000000E+00  0.10238235372E+03  0.10238235385E+03  0.50400000000E-02 0.  1.
          1   -1    0    0  501    0  0.00000000000E+00 -0.00000000000E+00 -0.22360027299E+02  0.22360027867E+02  0.50400000000E-02 0. -1.
         23    2    1    2    0    0  0.00000000000E+00  0.17763568394E-14  0.80022326423E+02  0.12474238171E+03  0.95692680334E+02 0.  0.
    9000005    2    3    3    0    0 -0.20486725168E+02  0.12532374414E+02  0.93309294646E+02  0.97295891208E+02  0.13531432376E+02 0.  0.
         22    1    3    3    0    0  0.20486725168E+02 -0.12532374414E+02 -0.13286968222E+02  0.27446490506E+02  0.00000000000E+00 0. -1.
         22    1    4    4    0    0 -0.20097666389E+02  0.84226864218E+01  0.62049783148E+02  0.65764986349E+02  0.00000000000E+00 0.  1.
         22    1    4    4    0    0 -0.38905877893E+00  0.41096879918E+01  0.31259511498E+02  0.31530904859E+02  0.00000000000E+00 0.  1.
<mgrwt>
<rscale>  0 0.95692680E+02</rscale>
<asrwt>0</asrwt>
<pdfrwt beam="2">  1        1 0.34400042E-02 0.95692680E+02</pdfrwt>
<pdfrwt beam="1">  1       -1 0.15751131E-01 0.95692680E+02</pdfrwt>
<totfact> 0.71511180E+04</totfact>
</mgrwt>
</event>
<event>
 7    1  0.2787125E-009  0.8394637E+02  0.7818608E-02  0.1318211E+00
         -1   -1    0    0    0  501 -0.00000000000E+00  0.00000000000E+00  0.96414039913E+01  0.96414053086E+01  0.50400000000E-02 0.  1.
          1   -1    0    0  501    0  0.00000000000E+00 -0.00000000000E+00 -0.18272734239E+03  0.18272734246E+03  0.50400000000E-02 0. -1.
         23    2    1    2    0    0  0.22204460493E-15  0.00000000000E+00 -0.17308593840E+03  0.19236874777E+03  0.83946370061E+02 0.  0.
    9000005    2    3    3    0    0 -0.17379522176E+01 -0.41426584690E+02 -0.75637055818E+02  0.86465645296E+02  0.60134188757E+01 0.  0.
         22    1    3    3    0    0  0.17379522176E+01  0.41426584690E+02 -0.97448882578E+02  0.10590310247E+03  0.00000000000E+00 0. -1.
         22    1    4    4    0    0  0.11604143198E-01 -0.19972269090E+02 -0.42378177108E+02  0.46848709292E+02  0.00000000000E+00 0. -1.
         22    1    4    4    0    0 -0.17495563608E+01 -0.21454315600E+02 -0.33258878710E+02  0.39616936004E+02  0.00000000000E+00 0. -1.
<mgrwt>
<rscale>  0 0.83946370E+02</rscale>
<asrwt>0</asrwt>
<pdfrwt beam="2">  1        1 0.28111896E-01 0.83946370E+02</pdfrwt>
<pdfrwt beam="1">  1       -1 0.14832932E-02 0.83946370E+02</pdfrwt>
<totfact> 0.14511150E+05</totfact>
</mgrwt>
</event>
<event>
 7    1  0.2787125E-009  0.8974193E+02  0.7818608E-02  0.1303478E+00
         -1   -1    0    0    0  501 -0.00000000000E+00  0.00000000000E+00  0.22299690337E+03  0.22299690343E+03  0.50400000000E-02 0.  1.
          1   -1    0    0  501    0  0.00000000000E+00 -0.00000000000E+00 -0.90288392898E+01  0.90288406965E+01  0.50400000000E-02 0. -1.
         23    2    1    2    0    0  0.00000000000E+00  0.17763568394E-14  0.21396806408E+03  0.23202574413E+03  0.89741927157E+02 0.  0.
    9000005    2    3    3    0    0 -0.25827001038E+02 -0.12904360300E+02  0.19512347511E+03  0.19754857732E+03  0.10895566321E+02 0.  0.
         22    1    3    3    0    0  0.25827001038E+02  0.12904360300E+02  0.18844588975E+02  0.34477166807E+02  0.00000000000E+00 0. -1.
         22    1    4    4    0    0 -0.12350234478E+02 -0.50753303367E+00  0.68211812040E+02  0.69322703231E+02  0.00000000000E+00 0. -1.
         22    1    4    4    0    0 -0.13476766559E+02 -0.12396827267E+02  0.12691166307E+03  0.12822587409E+03  0.00000000000E+00 0. -1.
<mgrwt>
<rscale>  0 0.89741927E+02</rscale>
<asrwt>0</asrwt>
<pdfrwt beam="2">  1        1 0.13890523E-02 0.89741927E+02</pdfrwt>
<pdfrwt beam="1">  1       -1 0.34307215E-01 0.89741927E+02</pdfrwt>
<totfact> 0.70046220E+04</totfact>
</mgrwt>
</event>
<event>
 7    1  0.2787125E-009  0.9163821E+02  0.7818608E-02  0.1298932E+00
          1   -1    0    0  501    0  0.00000000000E+00  0.00000000000E+00  0.69818184786E+01  0.69818202978E+01  0.50400000000E-02 0.  1.
         -1   -1    0    0    0  501 -0.00000000000E+00 -0.00000000000E+00 -0.30069388639E+03  0.30069388643E+03  0.50400000000E-02 0. -1.
         23    2    1    2    0    0  0.00000000000E+00  0.00000000000E+00 -0.29371206791E+03  0.30767570673E+03  0.91638210781E+02 0.  0.
    9000005    2    3    3    0    0  0.40015150699E+02 -0.20974101924E+02 -0.16387652548E+03  0.17020427946E+03  0.85355671423E+01 0.  0.
         22    1    3    3    0    0 -0.40015150699E+02  0.20974101924E+02 -0.12983554243E+03  0.13747142727E+03  0.00000000000E+00 0.  1.
         22    1    4    4    0    0  0.21830506820E+02 -0.10229753780E+02 -0.71919072111E+02  0.75852302692E+02  0.00000000000E+00 0. -1.
         22    1    4    4    0    0  0.18184643879E+02 -0.10744348144E+02 -0.91957453369E+02  0.94351976768E+02  0.00000000000E+00 0. -1.
<mgrwt>
<rscale>  0 0.91638211E+02</rscale>
<asrwt>0</asrwt>
<pdfrwt beam="1">  1        1 0.10741263E-02 0.91638211E+02</pdfrwt>
<pdfrwt beam="2">  1       -1 0.46260588E-01 0.91638211E+02</pdfrwt>
<totfact> 0.59736765E+04</totfact>
</mgrwt>
</event>
<event>
 7    1  0.2787125E-009  0.1196005E+03  0.7818608E-02  0.1243758E+00
          1   -1    0    0  501    0  0.00000000000E+00  0.00000000000E+00  0.20614733161E+03  0.20614733167E+03  0.50400000000E-02 0. -1.
         -1   -1    0    0    0  501 -0.00000000000E+00 -0.00000000000E+00 -0.17347143902E+02  0.17347144634E+02  0.50400000000E-02 0.  1.
         23    2    1    2    0    0  0.00000000000E+00 -0.35527136788E-14  0.18880018771E+03  0.22349447631E+03  0.11960046012E+03 0.  0.
    9000005    2    3    3    0    0 -0.52573775967E+02  0.24996663930E+02  0.11528683183E+03  0.12972321942E+03  0.12174766281E+02 0.  0.
         22    1    3    3    0    0  0.52573775967E+02 -0.24996663930E+02  0.73513355877E+02  0.93771256893E+02  0.00000000000E+00 0. -1.
         22    1    4    4    0    0 -0.82544345571E+01  0.76023996617E+01  0.30264565401E+02  0.32278105418E+02  0.00000000000E+00 0. -1.
         22    1    4    4    0    0 -0.44319341410E+02  0.17394264268E+02  0.85022266433E+02  0.97445113997E+02  0.00000000000E+00 0. -1.
<mgrwt>
<rscale>  0 0.11960046E+03</rscale>
<asrwt>0</asrwt>
<pdfrwt beam="1">  1        1 0.31714975E-01 0.11960046E+03</pdfrwt>
<pdfrwt beam="2">  1       -1 0.26687914E-02 0.11960046E+03</pdfrwt>
<totfact> 0.56889568E+04</totfact>
</mgrwt>
</event>
<event>
 7    1  0.2787125E-009  0.9132556E+02  0.7818608E-02  0.1299673E+00
          1   -1    0    0  501    0  0.00000000000E+00  0.00000000000E+00  0.26520606903E+01  0.26520654793E+01  0.50400000000E-02 0. -1.
         -1   -1    0    0    0  501 -0.00000000000E+00 -0.00000000000E+00 -0.78621405374E+03  0.78621405376E+03  0.50400000000E-02 0.  1.
         23    2    1    2    0    0  0.88817841970E-15  0.00000000000E+00 -0.78356199305E+03  0.78886611924E+03  0.91325555710E+02 0.  0.
    9000005    2    3    3    0    0 -0.36055076317E+01  0.22962783557E+02 -0.73068073916E+03  0.73110180390E+03  0.86727137041E+01 0.  0.
         22    1    3    3    0    0  0.36055076317E+01 -0.22962783557E+02 -0.52881253886E+02  0.57764315338E+02  0.00000000000E+00 0. -1.
         22    1    4    4    0    0 -0.48903249899E+01  0.15700744857E+02 -0.58872376383E+03  0.58895339269E+03  0.00000000000E+00 0.  1.
         22    1    4    4    0    0  0.12848173583E+01  0.72620386990E+01 -0.14195697534E+03  0.14214841121E+03  0.00000000000E+00 0.  1.
<mgrwt>
<rscale>  0 0.91325556E+02</rscale>
<asrwt>0</asrwt>
<pdfrwt beam="1">  1        1 0.40801033E-03 0.91325556E+02</pdfrwt>
<pdfrwt beam="2">  1       -1 0.12095582E+00 0.91325556E+02</pdfrwt>
<totfact> 0.33060091E+04</totfact>
</mgrwt>
</event>
<event>
 7    1  0.2787125E-009  0.9005222E+02  0.7818608E-02  0.1302725E+00
          1   -1    0    0  501    0  0.00000000000E+00  0.00000000000E+00  0.10866117581E+03  0.10866117592E+03  0.50400000000E-02 0. -1.
         -1   -1    0    0    0  501 -0.00000000000E+00 -0.00000000000E+00 -0.18657544718E+02  0.18657545399E+02  0.50400000000E-02 0.  1.
         23    2    1    2    0    0  0.35527136788E-14  0.00000000000E+00  0.90003631088E+02  0.12731872132E+03  0.90052224793E+02 0.  0.
    9000005    2    3    3    0    0  0.25014398217E+02  0.24372055348E+02  0.59399264572E+01  0.36288926001E+02  0.78667797667E+01 0.  0.
         22    1    3    3    0    0 -0.25014398217E+02 -0.24372055348E+02  0.84063704631E+02  0.91029795322E+02  0.00000000000E+00 0. -1.
         22    1    4    4    0    0  0.20127645545E+01  0.22851213046E+01  0.29835868643E+01  0.42631902497E+01  0.00000000000E+00 0.  1.
         22    1    4    4    0    0  0.23001633663E+02  0.22086934043E+02  0.29563395929E+01  0.32025735751E+02  0.00000000000E+00 0.  1.
<mgrwt>
<rscale>  0 0.90052225E+02</rscale>
<asrwt>0</asrwt>
<pdfrwt beam="1">  1        1 0.16717104E-01 0.90052225E+02</pdfrwt>
<pdfrwt beam="2">  1       -1 0.28703916E-02 0.90052225E+02</pdfrwt>
<totfact> 0.10954960E+05</totfact>
</mgrwt>
</event>
<event>
 7    1  0.2787125E-009  0.1047489E+03  0.7818608E-02  0.1270615E+00
         -1   -1    0    0    0  501 -0.00000000000E+00  0.00000000000E+00  0.43938912295E+02  0.43938912584E+02  0.50400000000E-02 0.  1.
          1   -1    0    0  501    0  0.00000000000E+00 -0.00000000000E+00 -0.62429412288E+02  0.62429412492E+02  0.50400000000E-02 0. -1.
         23    2    1    2    0    0 -0.71054273576E-14  0.00000000000E+00 -0.18490499993E+02  0.10636832508E+03  0.10474885197E+03 0.  0.
    9000005    2    3    3    0    0  0.49627867361E+02  0.61176557698E+01 -0.23121902920E+02  0.56150790051E+02  0.10859921632E+02 0.  0.
         22    1    3    3    0    0 -0.49627867361E+02 -0.61176557698E+01  0.46314029275E+01  0.50217535025E+02  0.00000000000E+00 0.  1.
         22    1    4    4    0    0  0.19105691750E+02  0.76139915084E+01 -0.10439356553E+02  0.23064702235E+02  0.00000000000E+00 0.  1.
         22    1    4    4    0    0  0.30522175611E+02 -0.14963357386E+01 -0.12682546367E+02  0.33086087817E+02  0.00000000000E+00 0.  1.
<mgrwt>
<rscale>  0 0.10474885E+03</rscale>
<asrwt>0</asrwt>
<pdfrwt beam="2">  1        1 0.96045249E-02 0.10474885E+03</pdfrwt>
<pdfrwt beam="1">  1       -1 0.67598327E-02 0.10474885E+03</pdfrwt>
<totfact> 0.65734973E+04</totfact>
</mgrwt>
</event>
<event>
 7    1  0.2787125E-009  0.9045507E+02  0.7818608E-02  0.1301753E+00
          1   -1    0    0  501    0  0.00000000000E+00  0.00000000000E+00  0.15648319734E+04  0.15648319734E+04  0.50400000000E-02 0. -1.
         -1   -1    0    0    0  501 -0.00000000000E+00 -0.00000000000E+00 -0.13071834179E+01  0.13071931340E+01  0.50400000000E-02 0.  1.
         23    2    1    2    0    0  0.00000000000E+00  0.00000000000E+00  0.15635247900E+04  0.15661391665E+04  0.90455072211E+02 0.  0.
    9000005    2    3    3    0    0  0.15189377380E+02 -0.17021966705E+02  0.14545593946E+04  0.14548111740E+04  0.14562108341E+02 0.  0.
         22    1    3    3    0    0 -0.15189377380E+02  0.17021966705E+02  0.10896539536E+03  0.11132799253E+03  0.00000000000E+00 0.  1.
         22    1    4    4    0    0 -0.22137312927E+01 -0.43350132128E+01  0.16442288224E+03  0.16449491527E+03  0.00000000000E+00 0. -1.
         22    1    4    4    0    0  0.17403108673E+02 -0.12686953492E+02  0.12901365124E+04  0.12903162587E+04  0.00000000000E+00 0. -1.
<mgrwt>
<rscale>  0 0.90455072E+02</rscale>
<asrwt>0</asrwt>
<pdfrwt beam="1">  1        1 0.24074156E+00 0.90455072E+02</pdfrwt>
<pdfrwt beam="2">  1       -1 0.20110741E-03 0.90455072E+02</pdfrwt>
<totfact> 0.10883335E+05</totfact>
</mgrwt>
</event>
<event>
 7    1  0.2787125E-009  0.9042778E+02  0.7818608E-02  0.1301819E+00
          1   -1    0    0  501    0  0.00000000000E+00  0.00000000000E+00  0.40660460977E+02  0.40660461289E+02  0.50400000000E-02 0.  1.
         -1   -1    0    0    0  501 -0.00000000000E+00 -0.00000000000E+00 -0.50277237409E+02  0.50277237661E+02  0.50400000000E-02 0. -1.
         23    2    1    2    0    0  0.00000000000E+00  0.00000000000E+00 -0.96167764318E+01  0.90937698951E+02  0.90427776161E+02 0.  0.
    9000005    2    3    3    0    0  0.21387727646E+02  0.28223734897E+02  0.22369592822E+02  0.43218290703E+02  0.10649312790E+02 0.  0.
         22    1    3    3    0    0 -0.21387727646E+02 -0.28223734897E+02 -0.31986369254E+02  0.47719408247E+02  0.00000000000E+00 0. -1.
         22    1    4    4    0    0  0.61367869564E+01  0.48652152430E+01  0.10002159893E+02  0.12703293905E+02  0.00000000000E+00 0. -1.
         22    1    4    4    0    0  0.15250940690E+02  0.23358519654E+02  0.12367432929E+02  0.30514996798E+02  0.00000000000E+00 0. -1.
<mgrwt>
<rscale>  0 0.90427776E+02</rscale>
<asrwt>0</asrwt>
<pdfrwt beam="1">  1        1 0.62554556E-02 0.90427776E+02</pdfrwt>
<pdfrwt beam="2">  1       -1 0.77349596E-02 0.90427776E+02</pdfrwt>
<totfact> 0.93027593E+04</totfact>
</mgrwt>
</event>
<event>
 7    1  0.2787125E-009  0.8735375E+02  0.7818608E-02  0.1309390E+00
         -1   -1    0    0    0  501 -0.00000000000E+00  0.00000000000E+00  0.12017734366E+01  0.12017840050E+01  0.50400000000E-02 0.  1.
          1   -1    0    0  501    0  0.00000000000E+00 -0.00000000000E+00 -0.15873715758E+04  0.15873715758E+04  0.50400000000E-02 0. -1.
         23    2    1    2    0    0  0.00000000000E+00  0.00000000000E+00 -0.15861698024E+04  0.15885733598E+04  0.87353749652E+02 0.  0.
    9000005    2    3    3    0    0  0.20680374879E+02 -0.13476919496E+02 -0.14474799670E+04  0.14477040030E+04  0.62705729556E+01 0.  0.
         22    1    3    3    0    0 -0.20680374879E+02  0.13476919496E+02 -0.13868983537E+03  0.14086935685E+03  0.00000000000E+00 0.  1.
         22    1    4    4    0    0  0.16026510733E+02 -0.13230006613E+02 -0.12066875259E+04  0.12068664662E+04  0.00000000000E+00 0.  1.
         22    1    4    4    0    0  0.46538641457E+01 -0.24691288282E+00 -0.24079244112E+03  0.24083753677E+03  0.00000000000E+00 0.  1.
<mgrwt>
<rscale>  0 0.87353750E+02</rscale>
<asrwt>0</asrwt>
<pdfrwt beam="2">  1        1 0.24420933E+00 0.87353750E+02</pdfrwt>
<pdfrwt beam="1">  1       -1 0.18489030E-03 0.87353750E+02</pdfrwt>
<totfact> 0.11780071E+05</totfact>
</mgrwt>
</event>
<event>
 7    1  0.2787125E-009  0.9159844E+02  0.7818608E-02  0.1299026E+00
          1   -1    0    0  501    0  0.00000000000E+00  0.00000000000E+00  0.39071988508E+03  0.39071988512E+03  0.50400000000E-02 0. -1.
         -1   -1    0    0    0  501 -0.00000000000E+00 -0.00000000000E+00 -0.53684698941E+01  0.53684722599E+01  0.50400000000E-02 0.  1.
         23    2    1    2    0    0  0.00000000000E+00  0.17763568394E-14  0.38535141519E+03  0.39608835738E+03  0.91598436997E+02 0.  0.
    9000005    2    3    3    0    0 -0.12990007229E+02 -0.12551757956E+02  0.37463382682E+03  0.37508470017E+03  0.34265413873E+01 0.  0.
         22    1    3    3    0    0  0.12990007229E+02  0.12551757956E+02  0.10717588365E+02  0.21003657205E+02  0.00000000000E+00 0.  1.
         22    1    4    4    0    0 -0.25360247005E+01 -0.42327009020E+01  0.85320533942E+02  0.85463095487E+02  0.00000000000E+00 0.  1.
         22    1    4    4    0    0 -0.10453982529E+02 -0.83190570542E+01  0.28931329288E+03  0.28962160468E+03  0.00000000000E+00 0.  1.
<mgrwt>
<rscale>  0 0.91598437E+02</rscale>
<asrwt>0</asrwt>
<pdfrwt beam="1">  1        1 0.60110754E-01 0.91598437E+02</pdfrwt>
<pdfrwt beam="2">  1       -1 0.82591860E-03 0.91598437E+02</pdfrwt>
<totfact> 0.13273105E+05</totfact>
</mgrwt>
</event>
<event>
 7    1  0.2787125E-009  0.1201243E+03  0.7818608E-02  0.1242892E+00
         -1   -1    0    0    0  501 -0.00000000000E+00  0.00000000000E+00  0.29222971760E+01  0.29223015221E+01  0.50400000000E-02 0.  1.
          1   -1    0    0  501    0  0.00000000000E+00 -0.00000000000E+00 -0.12344595942E+04  0.12344595942E+04  0.50400000000E-02 0. -1.
         23    2    1    2    0    0  0.00000000000E+00  0.71054273576E-14 -0.12315372970E+04  0.12373818957E+04  0.12012427700E+03 0.  0.
    9000005    2    3    3    0    0  0.20225676135E+02 -0.39753082317E+02 -0.10254735601E+04  0.10265462982E+04  0.14556588588E+02 0.  0.
         22    1    3    3    0    0 -0.20225676135E+02  0.39753082317E+02 -0.20606373690E+03  0.21083559755E+03  0.00000000000E+00 0.  1.
         22    1    4    4    0    0  0.17206406407E+02 -0.39604863777E+02 -0.89880339500E+03  0.89984006830E+03  0.00000000000E+00 0. -1.
         22    1    4    4    0    0  0.30192697283E+01 -0.14821853939E+00 -0.12667016513E+03  0.12670622989E+03  0.00000000000E+00 0. -1.
<mgrwt>
<rscale>  0 0.12012428E+03</rscale>
<asrwt>0</asrwt>
<pdfrwt beam="2">  1        1 0.18991644E+00 0.12012428E+03</pdfrwt>
<pdfrwt beam="1">  1       -1 0.44958550E-03 0.12012428E+03</pdfrwt>
<totfact> 0.59983072E+04</totfact>
</mgrwt>
</event>
<event>
 7    1  0.2787125E-009  0.8734794E+02  0.7818608E-02  0.1309404E+00
          1   -1    0    0  501    0  0.00000000000E+00  0.00000000000E+00  0.76964865950E+03  0.76964865952E+03  0.50400000000E-02 0. -1.
         -1   -1    0    0    0  501 -0.00000000000E+00 -0.00000000000E+00 -0.24782914899E+01  0.24782966147E+01  0.50400000000E-02 0.  1.
         23    2    1    2    0    0  0.71054273576E-14  0.00000000000E+00  0.76717036801E+03  0.77212695613E+03  0.87347941199E+02 0.  0.
    9000005    2    3    3    0    0 -0.38394714346E+02 -0.40241407449E+01  0.56317636567E+03  0.56451216671E+03  0.40024627666E+01 0.  0.
         22    1    3    3    0    0  0.38394714346E+02  0.40241407449E+01  0.20399400234E+03  0.20761478942E+03  0.00000000000E+00 0.  1.
         22    1    4    4    0    0 -0.13975655842E+02 -0.22840965011E+01  0.18161146258E+03  0.18216272778E+03  0.00000000000E+00 0.  1.
         22    1    4    4    0    0 -0.24419058505E+02 -0.17400442439E+01  0.38156490310E+03  0.38234943893E+03  0.00000000000E+00 0.  1.
<mgrwt>
<rscale>  0 0.87347941E+02</rscale>
<asrwt>0</asrwt>
<pdfrwt beam="1">  1        1 0.11840766E+00 0.87347941E+02</pdfrwt>
<pdfrwt beam="2">  1       -1 0.38127545E-03 0.87347941E+02</pdfrwt>
<totfact> 0.15869174E+05</totfact>
</mgrwt>
</event>
<event>
 7    1  0.2787125E-009  0.9920382E+02  0.7818608E-02  0.1281979E+00
         -1   -1    0    0    0  501 -0.00000000000E+00  0.00000000000E+00  0.75626882516E+01  0.75626899310E+01  0.50400000000E-02 0.  1.
          1   -1    0    0  501    0  0.00000000000E+00 -0.00000000000E+00 -0.32532733302E+03  0.32532733306E+03  0.50400000000E-02 0. -1.
         23    2    1    2    0    0  0.00000000000E+00  0.00000000000E+00 -0.31776464477E+03  0.33289002299E+03  0.99203820197E+02 0.  0.
    9000005    2    3    3    0    0  0.18705795596E+02  0.41203258148E+02 -0.22453434062E+03  0.22925844054E+03  0.98054661906E+01 0.  0.
         22    1    3    3    0    0 -0.18705795596E+02 -0.41203258148E+02 -0.93230304151E+02  0.10363158246E+03  0.00000000000E+00 0.  1.
         22    1    4    4    0    0  0.19295242999E+02  0.35336308274E+02 -0.18929896471E+03  0.19353309568E+03  0.00000000000E+00 0.  1.
         22    1    4    4    0    0 -0.58944740328E+00  0.58669498749E+01 -0.35235375916E+02  0.35725344855E+02  0.00000000000E+00 0.  1.
<mgrwt>
<rscale>  0 0.99203820E+02</rscale>
<asrwt>0</asrwt>
<pdfrwt beam="2">  1        1 0.50050348E-01 0.99203820E+02</pdfrwt>
<pdfrwt beam="1">  1       -1 0.11634909E-02 0.99203820E+02</pdfrwt>
<totfact> 0.10381105E+05</totfact>
</mgrwt>
</event>
<event>
 7    1  0.2787125E-009  0.9224286E+02  0.7818608E-02  0.1297509E+00
         -1   -1    0    0    0  501 -0.00000000000E+00  0.00000000000E+00  0.95928863408E+01  0.95928876648E+01  0.50400000000E-02 0.  1.
          1   -1    0    0  501    0  0.00000000000E+00 -0.00000000000E+00 -0.22174621375E+03  0.22174621381E+03  0.50400000000E-02 0. -1.
         23    2    1    2    0    0 -0.35527136788E-14 -0.35527136788E-14 -0.21215332741E+03  0.23133910147E+03  0.92242861725E+02 0.  0.
    9000005    2    3    3    0    0  0.23965235719E+02  0.28045074606E+02 -0.17348628098E+03  0.17789755198E+03  0.13754656623E+02 0.  0.
         22    1    3    3    0    0 -0.23965235719E+02 -0.28045074606E+02 -0.38667046426E+02  0.53441549491E+02  0.00000000000E+00 0.  1.
         22    1    4    4    0    0  0.24657240028E+02  0.21558001699E+02 -0.14898077643E+03  0.15253851536E+03  0.00000000000E+00 0. -1.
         22    1    4    4    0    0 -0.69200430978E+00  0.64870729066E+01 -0.24505504559E+02  0.25359036625E+02  0.00000000000E+00 0. -1.
<mgrwt>
<rscale>  0 0.92242862E+02</rscale>
<asrwt>0</asrwt>
<pdfrwt beam="2">  1        1 0.34114798E-01 0.92242862E+02</pdfrwt>
<pdfrwt beam="1">  1       -1 0.14758289E-02 0.92242862E+02</pdfrwt>
<totfact> 0.11710322E+05</totfact>
</mgrwt>
</event>
<event>
 7    1  0.2787125E-009  0.8923722E+02  0.7818608E-02  0.1304709E+00
          1   -1    0    0  501    0  0.00000000000E+00  0.00000000000E+00  0.20681844552E+03  0.20681844558E+03  0.50400000000E-02 0. -1.
         -1   -1    0    0    0  501 -0.00000000000E+00 -0.00000000000E+00 -0.96259314888E+01  0.96259328083E+01  0.50400000000E-02 0.  1.
         23    2    1    2    0    0  0.00000000000E+00  0.00000000000E+00  0.19719251403E+03  0.21644437839E+03  0.89237219514E+02 0.  0.
    9000005    2    3    3    0    0  0.12782744328E+02 -0.35486433719E+02  0.15500426349E+03  0.15985344260E+03  0.10203718829E+02 0.  0.
         22    1    3    3    0    0 -0.12782744328E+02  0.35486433719E+02  0.42188250540E+02  0.56590935796E+02  0.00000000000E+00 0.  1.
         22    1    4    4    0    0  0.12696171108E+02 -0.34286761899E+02  0.15401739862E+03  0.15829761173E+03  0.00000000000E+00 0. -1.
         22    1    4    4    0    0  0.86573219591E-01 -0.11996718206E+01  0.98686487355E+00  0.15558308642E+01  0.00000000000E+00 0. -1.
<mgrwt>
<rscale>  0 0.89237220E+02</rscale>
<asrwt>0</asrwt>
<pdfrwt beam="1">  1        1 0.31818220E-01 0.89237220E+02</pdfrwt>
<pdfrwt beam="2">  1       -1 0.14809128E-02 0.89237220E+02</pdfrwt>
<totfact> 0.12623673E+05</totfact>
</mgrwt>
</event>
<event>
 7    1  0.2787125E-009  0.9199870E+02  0.7818608E-02  0.1298082E+00
         -1   -1    0    0    0  501 -0.00000000000E+00  0.00000000000E+00  0.32311132708E+02  0.32311133101E+02  0.50400000000E-02 0.  1.
          1   -1    0    0  501    0  0.00000000000E+00 -0.00000000000E+00 -0.65486412144E+02  0.65486412338E+02  0.50400000000E-02 0. -1.
         23    2    1    2    0    0  0.00000000000E+00 -0.71054273576E-14 -0.33175279436E+02  0.97797545439E+02  0.91998699600E+02 0.  0.
    9000005    2    3    3    0    0 -0.10470964731E+02  0.35547844499E+02  0.11451068063E+02  0.39790638591E+02  0.88813067021E+01 0.  0.
         22    1    3    3    0    0  0.10470964731E+02 -0.35547844499E+02 -0.44626347499E+02  0.58006906848E+02  0.00000000000E+00 0. -1.
         22    1    4    4    0    0 -0.22188532301E+00  0.13147863954E+01 -0.12875975005E+01  0.18535921033E+01  0.00000000000E+00 0.  1.
         22    1    4    4    0    0 -0.10249079408E+02  0.34233058104E+02  0.12738665563E+02  0.37937046487E+02  0.00000000000E+00 0.  1.
<mgrwt>
<rscale>  0 0.91998700E+02</rscale>
<asrwt>0</asrwt>
<pdfrwt beam="2">  1        1 0.10074833E-01 0.91998700E+02</pdfrwt>
<pdfrwt beam="1">  1       -1 0.49709435E-02 0.91998700E+02</pdfrwt>
<totfact> 0.95265216E+04</totfact>
</mgrwt>
</event>
<event>
 7    1  0.2787125E-009  0.1229384E+03  0.7818608E-02  0.1238327E+00
         -1   -1    0    0    0  501 -0.00000000000E+00  0.00000000000E+00  0.10339808645E+02  0.10339809873E+02  0.50400000000E-02 0.  1.
          1   -1    0    0  501    0  0.00000000000E+00 -0.00000000000E+00 -0.36542880835E+03  0.36542880838E+03  0.50400000000E-02 0. -1.
         23    2    1    2    0    0 -0.71054273576E-14 -0.35527136788E-14 -0.35508899970E+03  0.37576861826E+03  0.12293842668E+03 0.  0.
    9000005    2    3    3    0    0  0.51072729926E+02  0.25961666240E+02 -0.12004862013E+03  0.13384629211E+03  0.14856879264E+02 0.  0.
         22    1    3    3    0    0 -0.51072729926E+02 -0.25961666240E+02 -0.23504037957E+03  0.24192232614E+03  0.00000000000E+00 0.  1.
         22    1    4    4    0    0  0.50406474417E+02  0.22907455372E+02 -0.11718602686E+03  0.12960759648E+03  0.00000000000E+00 0. -1.
         22    1    4    4    0    0  0.66625550856E+00  0.30542108684E+01 -0.28625932738E+01  0.42386956345E+01  0.00000000000E+00 0. -1.
<mgrwt>
<rscale>  0 0.12293843E+03</rscale>
<asrwt>0</asrwt>
<pdfrwt beam="2">  1        1 0.56219807E-01 0.12293843E+03</pdfrwt>
<pdfrwt beam="1">  1       -1 0.15907402E-02 0.12293843E+03</pdfrwt>
<totfact> 0.59281062E+04</totfact>
</mgrwt>
</event>
<event>
 7    1  0.3649053E-009  0.8863652E+02  0.7818608E-02  0.1306188E+00
          1   -1    0    0  501    0  0.00000000000E+00  0.00000000000E+00  0.54312138501E+03  0.54312138504E+03  0.50400000000E-02 0. -1.
         -1   -1    0    0    0  501 -0.00000000000E+00 -0.00000000000E+00 -0.36163319351E+01  0.36163354471E+01  0.50400000000E-02 0.  1.
         23    2    1    2    0    0 -0.22204460493E-15  0.00000000000E+00  0.53950505308E+03  0.54673772048E+03  0.88636520142E+02 0.  0.
    9000005    2    3    3    0    0  0.14162301796E+01 -0.35161520413E+02  0.43168314281E+03  0.43331857501E+03  0.13278307069E+02 0.  0.
         22    1    3    3    0    0 -0.14162301796E+01  0.35161520413E+02  0.10782191027E+03  0.11341914548E+03  0.00000000000E+00 0.  1.
         22    1    4    4    0    0  0.10145736375E+01 -0.33425965094E+02  0.34496448631E+03  0.34658162287E+03  0.00000000000E+00 0.  1.
         22    1    4    4    0    0  0.40165654212E+00 -0.17355553194E+01  0.86718656499E+02  0.86736952133E+02  0.00000000000E+00 0.  1.
<mgrwt>
<rscale>  0 0.88636520E+02</rscale>
<asrwt>0</asrwt>
<pdfrwt beam="1">  1        1 0.83557090E-01 0.88636520E+02</pdfrwt>
<pdfrwt beam="2">  1       -1 0.55635934E-03 0.88636520E+02</pdfrwt>
<totfact> 0.15139571E+05</totfact>
</mgrwt>
</event>
<event>
 7    1  0.2787125E-009  0.9145931E+02  0.7818608E-02  0.1299356E+00
         -1   -1    0    0    0  501 -0.00000000000E+00  0.00000000000E+00  0.34625834530E+01  0.34625871210E+01  0.50400000000E-02 0.  1.
          1   -1    0    0  501    0  0.00000000000E+00 -0.00000000000E+00 -0.60394217466E+03  0.60394217468E+03  0.50400000000E-02 0. -1.
         23    2    1    2    0    0  0.00000000000E+00  0.00000000000E+00 -0.60047959121E+03  0.60740476180E+03  0.91459309005E+02 0.  0.
    9000005    2    3    3    0    0  0.43471041333E+01 -0.12369530586E+02 -0.59070704378E+03  0.59105223036E+03  0.15363100061E+02 0.  0.
         22    1    3    3    0    0 -0.43471041333E+01  0.12369530586E+02 -0.97725474252E+01  0.16352531438E+02  0.00000000000E+00 0.  1.
         22    1    4    4    0    0  0.92428947358E+01 -0.38123327104E+01 -0.35137426986E+03  0.35151648966E+03  0.00000000000E+00 0. -1.
         22    1    4    4    0    0 -0.48957906025E+01 -0.85571978753E+01 -0.23933277392E+03  0.23953574070E+03  0.00000000000E+00 0. -1.
<mgrwt>
<rscale>  0 0.91459309E+02</rscale>
<asrwt>0</asrwt>
<pdfrwt beam="2">  1        1 0.92914097E-01 0.91459309E+02</pdfrwt>
<pdfrwt beam="1">  1       -1 0.53270591E-03 0.91459309E+02</pdfrwt>
<totfact> 0.14048617E+05</totfact>
</mgrwt>
</event>
<event>
 7    1  0.2787125E-009  0.9302041E+02  0.7818608E-02  0.1295698E+00
          1   -1    0    0  501    0  0.00000000000E+00  0.00000000000E+00  0.53170010204E+03  0.53170010207E+03  0.50400000000E-02 0. -1.
         -1   -1    0    0    0  501 -0.00000000000E+00 -0.00000000000E+00 -0.40684557503E+01  0.40684588721E+01  0.50400000000E-02 0.  1.
         23    2    1    2    0    0  0.00000000000E+00  0.00000000000E+00  0.52763164629E+03  0.53576856094E+03  0.93020410239E+02 0.  0.
    9000005    2    3    3    0    0  0.87811089695E+01  0.21344103286E+02  0.49626135084E+03  0.49682277738E+03  0.49864989599E+01 0.  0.
         22    1    3    3    0    0 -0.87811089695E+01 -0.21344103286E+02  0.31370295456E+02  0.38945783557E+02  0.00000000000E+00 0.  1.
         22    1    4    4    0    0  0.93666137294E+01  0.20677263722E+02  0.48148963655E+03  0.48202443174E+03  0.00000000000E+00 0.  1.
         22    1    4    4    0    0 -0.58550475995E+00  0.66683956401E+00  0.14771714288E+02  0.14798345646E+02  0.00000000000E+00 0.  1.
<mgrwt>
<rscale>  0 0.93020410E+02</rscale>
<asrwt>0</asrwt>
<pdfrwt beam="1">  1        1 0.81799994E-01 0.93020410E+02</pdfrwt>
<pdfrwt beam="2">  1       -1 0.62591668E-03 0.93020410E+02</pdfrwt>
<totfact> 0.13295670E+05</totfact>
</mgrwt>
</event>
<event>
 7    1  0.2787125E-009  0.7924450E+02  0.7818608E-02  0.1331209E+00
          1   -1    0    0  501    0  0.00000000000E+00  0.00000000000E+00  0.10226062685E+02  0.10226063927E+02  0.50400000000E-02 0. -1.
         -1   -1    0    0    0  501 -0.00000000000E+00 -0.00000000000E+00 -0.15352170240E+03  0.15352170248E+03  0.50400000000E-02 0.  1.
         23    2    1    2    0    0  0.00000000000E+00  0.88817841970E-15 -0.14329563972E+03  0.16374776641E+03  0.79244499132E+02 0.  0.
    9000005    2    3    3    0    0  0.24122682574E+02  0.46972846472E+01 -0.11185445323E+02  0.29371162196E+02  0.11557797543E+02 0.  0.
         22    1    3    3    0    0 -0.24122682574E+02 -0.46972846472E+01 -0.13211019439E+03  0.13437660422E+03  0.00000000000E+00 0.  1.
         22    1    4    4    0    0  0.16204110113E+02 -0.18894840042E+01 -0.39542980851E+01  0.16786298213E+02  0.00000000000E+00 0. -1.
         22    1    4    4    0    0  0.79185724612E+01  0.65867686515E+01 -0.72311472380E+01  0.12584863983E+02  0.00000000000E+00 0. -1.
<mgrwt>
<rscale>  0 0.79244499E+02</rscale>
<asrwt>0</asrwt>
<pdfrwt beam="1">  1        1 0.15732406E-02 0.79244499E+02</pdfrwt>
<pdfrwt beam="2">  1       -1 0.23618722E-01 0.79244499E+02</pdfrwt>
<totfact> 0.10688913E+05</totfact>
</mgrwt>
</event>
<event>
 7    1  0.2787125E-009  0.9164521E+02  0.7818608E-02  0.1298916E+00
         -1   -1    0    0    0  501 -0.00000000000E+00  0.00000000000E+00  0.52284953574E+01  0.52284977866E+01  0.50400000000E-02 0.  1.
          1   -1    0    0  501    0  0.00000000000E+00 -0.00000000000E+00 -0.40158984859E+03  0.40158984862E+03  0.50400000000E-02 0. -1.
         23    2    1    2    0    0  0.00000000000E+00  0.00000000000E+00 -0.39636135323E+03  0.40681834641E+03  0.91645210666E+02 0.  0.
    9000005    2    3    3    0    0  0.28288164599E+01  0.43615507604E+02 -0.24914823458E+03  0.25325397226E+03  0.12345726452E+02 0.  0.
         22    1    3    3    0    0 -0.28288164599E+01 -0.43615507604E+02 -0.14721311865E+03  0.15356437415E+03  0.00000000000E+00 0.  1.
         22    1    4    4    0    0  0.52419027666E+01  0.41975983888E+02 -0.22624980160E+03  0.23017044444E+03  0.00000000000E+00 0. -1.
         22    1    4    4    0    0 -0.24130863067E+01  0.16395237163E+01 -0.22898432978E+02  0.23083527815E+02  0.00000000000E+00 0. -1.
<mgrwt>
<rscale>  0 0.91645211E+02</rscale>
<asrwt>0</asrwt>
<pdfrwt beam="2">  1        1 0.61783029E-01 0.91645211E+02</pdfrwt>
<pdfrwt beam="1">  1       -1 0.80438441E-03 0.91645211E+02</pdfrwt>
<totfact> 0.13315371E+05</totfact>
</mgrwt>
</event>
<event>
 7    1  0.2787125E-009  0.9200010E+02  0.7818608E-02  0.1298079E+00
         -1   -1    0    0    0  501 -0.00000000000E+00  0.00000000000E+00  0.31157470956E+03  0.31157470961E+03  0.50400000000E-02 0.  1.
          1   -1    0    0  501    0  0.00000000000E+00 -0.00000000000E+00 -0.67913219548E+01  0.67913238250E+01  0.50400000000E-02 0. -1.
         23    2    1    2    0    0  0.00000000000E+00  0.00000000000E+00  0.30478338761E+03  0.31836603343E+03  0.92000097170E+02 0.  0.
    9000005    2    3    3    0    0  0.19948047045E+02  0.39869668966E+02  0.17544390013E+03  0.18155880371E+03  0.13982919029E+02 0.  0.
         22    1    3    3    0    0 -0.19948047045E+02 -0.39869668966E+02  0.12933948748E+03  0.13680722972E+03  0.00000000000E+00 0. -1.
         22    1    4    4    0    0  0.66846671445E+01  0.19346800919E+02  0.55577327509E+02  0.59226875772E+02  0.00000000000E+00 0.  1.
         22    1    4    4    0    0  0.13263379900E+02  0.20522868046E+02  0.11986657262E+03  0.12233192793E+03  0.00000000000E+00 0.  1.
<mgrwt>
<rscale>  0 0.92000097E+02</rscale>
<asrwt>0</asrwt>
<pdfrwt beam="2">  1        1 0.10448186E-02 0.92000097E+02</pdfrwt>
<pdfrwt beam="1">  1       -1 0.47934585E-01 0.92000097E+02</pdfrwt>
<totfact> 0.58287823E+04</totfact>
</mgrwt>
</event>
<event>
 7    1  0.2787125E-009  0.9284162E+02  0.7818608E-02  0.1296113E+00
          1   -1    0    0  501    0  0.00000000000E+00  0.00000000000E+00  0.32424069097E+03  0.32424069101E+03  0.50400000000E-02 0. -1.
         -1   -1    0    0    0  501 -0.00000000000E+00 -0.00000000000E+00 -0.66459614763E+01  0.66459633874E+01  0.50400000000E-02 0.  1.
         23    2    1    2    0    0  0.00000000000E+00  0.00000000000E+00  0.31759472950E+03  0.33088665440E+03  0.92841617046E+02 0.  0.
    9000005    2    3    3    0    0  0.24606636845E+02  0.26647215649E+02  0.26192949780E+03  0.26444736859E+03  0.31286194259E+01 0.  0.
         22    1    3    3    0    0 -0.24606636845E+02 -0.26647215649E+02  0.55665231699E+02  0.66439285809E+02  0.00000000000E+00 0.  1.
         22    1    4    4    0    0  0.11324976400E+02  0.14563840608E+02  0.13355101582E+03  0.13481926557E+03  0.00000000000E+00 0.  1.
         22    1    4    4    0    0  0.13281660445E+02  0.12083375041E+02  0.12837848198E+03  0.12962810302E+03  0.00000000000E+00 0.  1.
<mgrwt>
<rscale>  0 0.92841617E+02</rscale>
<asrwt>0</asrwt>
<pdfrwt beam="1">  1        1 0.49883166E-01 0.92841617E+02</pdfrwt>
<pdfrwt beam="2">  1       -1 0.10224561E-02 0.92841617E+02</pdfrwt>
<totfact> 0.12388699E+05</totfact>
</mgrwt>
</event>
<event>
 7    1  0.2787125E-009  0.9149597E+02  0.7818608E-02  0.1299269E+00
          1   -1    0    0  501    0  0.00000000000E+00  0.00000000000E+00  0.68254514711E+02  0.68254514897E+02  0.50400000000E-02 0. -1.
         -1   -1    0    0    0  501 -0.00000000000E+00 -0.00000000000E+00 -0.30662852348E+02  0.30662852762E+02  0.50400000000E-02 0.  1.
         23    2    1    2    0    0 -0.17763568394E-14  0.00000000000E+00  0.37591662364E+02  0.98917367659E+02  0.91495970105E+02 0.  0.
    9000005    2    3    3    0    0 -0.11397654127E+02 -0.38464744920E+02 -0.21920329395E+01  0.42417938163E+02  0.13602696358E+02 0.  0.
         22    1    3    3    0    0  0.11397654127E+02  0.38464744920E+02  0.39783695303E+02  0.56499429496E+02  0.00000000000E+00 0. -1.
         22    1    4    4    0    0 -0.10166858104E+02 -0.14750420508E+02 -0.47513800980E+01  0.18534171729E+02  0.00000000000E+00 0. -1.
         22    1    4    4    0    0 -0.12307960240E+01 -0.23714324413E+02  0.25593471585E+01  0.23883766434E+02  0.00000000000E+00 0. -1.
<mgrwt>
<rscale>  0 0.91495970E+02</rscale>
<asrwt>0</asrwt>
<pdfrwt beam="1">  1        1 0.10500695E-01 0.91495970E+02</pdfrwt>
<pdfrwt beam="2">  1       -1 0.47173620E-02 0.91495970E+02</pdfrwt>
<totfact> 0.97339352E+04</totfact>
</mgrwt>
</event>
<event>
 7    1  0.2787125E-009  0.9112132E+02  0.7818608E-02  0.1300159E+00
          1   -1    0    0  501    0  0.00000000000E+00  0.00000000000E+00  0.51493280781E+03  0.51493280783E+03  0.50400000000E-02 0. -1.
         -1   -1    0    0    0  501 -0.00000000000E+00 -0.00000000000E+00 -0.40311532546E+01  0.40311564052E+01  0.50400000000E-02 0.  1.
         23    2    1    2    0    0  0.00000000000E+00 -0.44408920985E-15  0.51090165455E+03  0.51896396424E+03  0.91121323257E+02 0.  0.
    9000005    2    3    3    0    0  0.33605306743E+02 -0.15970529338E+01  0.42800132637E+03  0.42949703385E+03  0.12275972307E+02 0.  0.
         22    1    3    3    0    0 -0.33605306743E+02  0.15970529338E+01  0.82900328188E+02  0.89466930388E+02  0.00000000000E+00 0.  1.
         22    1    4    4    0    0  0.28076638870E+02 -0.23636789308E+01  0.28563119037E+03  0.28701752829E+03  0.00000000000E+00 0.  1.
         22    1    4    4    0    0  0.55286678729E+01  0.76662599708E+00  0.14237013599E+03  0.14247950556E+03  0.00000000000E+00 0.  1.
<mgrwt>
<rscale>  0 0.91121323E+02</rscale>
<asrwt>0</asrwt>
<pdfrwt beam="1">  1        1 0.79220448E-01 0.91121323E+02</pdfrwt>
<pdfrwt beam="2">  1       -1 0.62017754E-03 0.91121323E+02</pdfrwt>
<totfact> 0.13995912E+05</totfact>
</mgrwt>
</event>
<event>
 7    1  0.2787125E-009  0.1034848E+03  0.7818608E-02  0.1273134E+00
          1   -1    0    0  501    0  0.00000000000E+00  0.00000000000E+00  0.80151370467E+02  0.80151370625E+02  0.50400000000E-02 0. -1.
         -1   -1    0    0    0  501 -0.00000000000E+00 -0.00000000000E+00 -0.33402769916E+02  0.33402770296E+02  0.50400000000E-02 0.  1.
         23    2    1    2    0    0  0.00000000000E+00  0.00000000000E+00  0.46748600551E+02  0.11355414092E+03  0.10348483593E+03 0.  0.
    9000005    2    3    3    0    0  0.45416815403E+02 -0.24232037773E+02  0.28033912899E+02  0.58780805164E+02  0.44049979941E+01 0.  0.
         22    1    3    3    0    0 -0.45416815403E+02  0.24232037773E+02  0.18714687652E+02  0.54773335757E+02  0.00000000000E+00 0. -1.
         22    1    4    4    0    0  0.49154341886E+01 -0.11633063636E+01  0.25393298668E+01  0.56535803815E+01  0.00000000000E+00 0.  1.
         22    1    4    4    0    0  0.40501381215E+02 -0.23068731409E+02  0.25494583032E+02  0.53127224783E+02  0.00000000000E+00 0.  1.
<mgrwt>
<rscale>  0 0.10348484E+03</rscale>
<asrwt>0</asrwt>
<pdfrwt beam="1">  1        1 0.12330980E-01 0.10348484E+03</pdfrwt>
<pdfrwt beam="2">  1       -1 0.51388877E-02 0.10348484E+03</pdfrwt>
<totfact> 0.70952298E+04</totfact>
</mgrwt>
</event>
<event>
 7    1  0.2787125E-009  0.9754317E+02  0.7818608E-02  0.1285549E+00
          1   -1    0    0  501    0  0.00000000000E+00  0.00000000000E+00  0.26232550105E+02  0.26232550589E+02  0.50400000000E-02 0. -1.
         -1   -1    0    0    0  501 -0.00000000000E+00 -0.00000000000E+00 -0.90676173567E+02  0.90676173707E+02  0.50400000000E-02 0.  1.
         23    2    1    2    0    0 -0.71054273576E-14  0.00000000000E+00 -0.64443623462E+02  0.11690872430E+03  0.97543165888E+02 0.  0.
    9000005    2    3    3    0    0 -0.43994998411E+02  0.10303390154E+02 -0.52837293391E+02  0.70256536442E+02  0.10123319913E+02 0.  0.
         22    1    3    3    0    0  0.43994998411E+02 -0.10303390154E+02 -0.11606330071E+02  0.46652187854E+02  0.00000000000E+00 0. -1.
         22    1    4    4    0    0 -0.12870025019E+02  0.65805983617E+01 -0.21698139573E+02  0.26072036356E+02  0.00000000000E+00 0. -1.
         22    1    4    4    0    0 -0.31124973392E+02  0.37227917928E+01 -0.31139153818E+02  0.44184500086E+02  0.00000000000E+00 0. -1.
<mgrwt>
<rscale>  0 0.97543166E+02</rscale>
<asrwt>0</asrwt>
<pdfrwt beam="1">  1        1 0.40357770E-02 0.97543166E+02</pdfrwt>
<pdfrwt beam="2">  1       -1 0.13950180E-01 0.97543166E+02</pdfrwt>
<totfact> 0.69626947E+04</totfact>
</mgrwt>
</event>
<event>
 7    1  0.2787125E-009  0.9204112E+02  0.7818608E-02  0.1297983E+00
         -1   -1    0    0    0  501 -0.00000000000E+00  0.00000000000E+00  0.81902968427E+02  0.81902968582E+02  0.50400000000E-02 0.  1.
          1   -1    0    0  501    0  0.00000000000E+00 -0.00000000000E+00 -0.25858551041E+02  0.25858551532E+02  0.50400000000E-02 0. -1.
         23    2    1    2    0    0  0.00000000000E+00  0.00000000000E+00  0.56044417385E+02  0.10776152011E+03  0.92041123946E+02 0.  0.
    9000005    2    3    3    0    0 -0.38104909429E+02  0.18868510351E+02  0.45254809906E+02  0.63893303431E+02  0.15044985816E+02 0.  0.
         22    1    3    3    0    0  0.38104909429E+02 -0.18868510351E+02  0.10789607479E+02  0.43868216683E+02  0.00000000000E+00 0. -1.
         22    1    4    4    0    0 -0.19238076096E+02  0.98610196992E+01  0.12317453674E+02  0.24880975592E+02  0.00000000000E+00 0.  1.
         22    1    4    4    0    0 -0.18866833332E+02  0.90074906517E+01  0.32937356232E+02  0.39012327839E+02  0.00000000000E+00 0.  1.
<mgrwt>
<rscale>  0 0.92041124E+02</rscale>
<asrwt>0</asrwt>
<pdfrwt beam="2">  1        1 0.39782387E-02 0.92041124E+02</pdfrwt>
<pdfrwt beam="1">  1       -1 0.12600456E-01 0.92041124E+02</pdfrwt>
<totfact> 0.82297850E+04</totfact>
</mgrwt>
</event>
<event>
 7    1  0.2787125E-009  0.9881525E+02  0.7818608E-02  0.1282807E+00
          1   -1    0    0  501    0  0.00000000000E+00  0.00000000000E+00  0.90232956583E+03  0.90232956585E+03  0.50400000000E-02 0.  1.
         -1   -1    0    0    0  501 -0.00000000000E+00 -0.00000000000E+00 -0.27053431326E+01  0.27053478273E+01  0.50400000000E-02 0. -1.
         23    2    1    2    0    0  0.00000000000E+00  0.35527136788E-14  0.89962422270E+03  0.90503491367E+03  0.98815246295E+02 0.  0.
    9000005    2    3    3    0    0 -0.33590132882E+02  0.26005883073E+02  0.67260594786E+03  0.67407625916E+03  0.13245342248E+02 0.  0.
         22    1    3    3    0    0  0.33590132882E+02 -0.26005883073E+02  0.22701827484E+03  0.23095865451E+03  0.00000000000E+00 0. -1.
         22    1    4    4    0    0 -0.20591519704E+02  0.23015274556E+02  0.50259018122E+03  0.50353808575E+03  0.00000000000E+00 0.  1.
         22    1    4    4    0    0 -0.12998613178E+02  0.29906085171E+01  0.17001576664E+03  0.17053817341E+03  0.00000000000E+00 0.  1.
<mgrwt>
<rscale>  0 0.98815246E+02</rscale>
<asrwt>0</asrwt>
<pdfrwt beam="1">  1        1 0.13881992E+00 0.98815246E+02</pdfrwt>
<pdfrwt beam="2">  1       -1 0.41620704E-03 0.98815246E+02</pdfrwt>
<totfact> 0.11237107E+05</totfact>
</mgrwt>
</event>
<event>
 7    1  0.2787125E-009  0.9216303E+02  0.7818608E-02  0.1297697E+00
         -1   -1    0    0    0  501 -0.00000000000E+00  0.00000000000E+00  0.35413649841E+01  0.35413685705E+01  0.50400000000E-02 0.  1.
          1   -1    0    0  501    0  0.00000000000E+00 -0.00000000000E+00 -0.59962888078E+03  0.59962888080E+03  0.50400000000E-02 0. -1.
         23    2    1    2    0    0  0.00000000000E+00 -0.88817841970E-15 -0.59608751580E+03  0.60317024937E+03  0.92163025337E+02 0.  0.
    9000005    2    3    3    0    0  0.26373028337E+02  0.70516272053E+01 -0.54061032967E+03  0.54133999586E+03  0.66483450978E+01 0.  0.
         22    1    3    3    0    0 -0.26373028337E+02 -0.70516272053E+01 -0.55477186122E+02  0.61830253516E+02  0.00000000000E+00 0.  1.
         22    1    4    4    0    0  0.72318325984E+01  0.10998998277E+00 -0.19137873197E+03  0.19151535330E+03  0.00000000000E+00 0. -1.
         22    1    4    4    0    0  0.19141195738E+02  0.69416372225E+01 -0.34923159770E+03  0.34982464255E+03  0.00000000000E+00 0. -1.
<mgrwt>
<rscale>  0 0.92163025E+02</rscale>
<asrwt>0</asrwt>
<pdfrwt beam="2">  1        1 0.92250517E-01 0.92163025E+02</pdfrwt>
<pdfrwt beam="1">  1       -1 0.54482614E-03 0.92163025E+02</pdfrwt>
<totfact> 0.13760435E+05</totfact>
</mgrwt>
</event>
<event>
 7    1  0.2787125E-009  0.9072449E+02  0.7818608E-02  0.1301107E+00
         -1   -1    0    0    0  501 -0.00000000000E+00  0.00000000000E+00  0.43217844356E+02  0.43217844650E+02  0.50400000000E-02 0.  1.
          1   -1    0    0  501    0  0.00000000000E+00 -0.00000000000E+00 -0.47613051520E+02  0.47613051787E+02  0.50400000000E-02 0. -1.
         23    2    1    2    0    0 -0.71054273576E-14  0.35527136788E-14 -0.43952071643E+01  0.90830896437E+02  0.90724494496E+02 0.  0.
    9000005    2    3    3    0    0  0.35882770847E+02 -0.23372603892E+02  0.11812703362E+02  0.45042816985E+02  0.74473851038E+01 0.  0.
         22    1    3    3    0    0 -0.35882770847E+02  0.23372603892E+02 -0.16207910526E+02  0.45788079452E+02  0.00000000000E+00 0. -1.
         22    1    4    4    0    0  0.34426336228E+02 -0.20958876418E+02  0.95309408583E+01  0.41416010919E+02  0.00000000000E+00 0.  1.
         22    1    4    4    0    0  0.14564346183E+01 -0.24137274734E+01  0.22817625035E+01  0.36268060653E+01  0.00000000000E+00 0.  1.
<mgrwt>
<rscale>  0 0.90724494E+02</rscale>
<asrwt>0</asrwt>
<pdfrwt beam="2">  1        1 0.73250848E-02 0.90724494E+02</pdfrwt>
<pdfrwt beam="1">  1       -1 0.66488992E-02 0.90724494E+02</pdfrwt>
<totfact> 0.94382832E+04</totfact>
</mgrwt>
</event>
<event>
 7    1  0.2787125E-009  0.9152958E+02  0.7818608E-02  0.1299189E+00
         -1   -1    0    0    0  501 -0.00000000000E+00  0.00000000000E+00  0.18719942128E+03  0.18719942135E+03  0.50400000000E-02 0.  1.
          1   -1    0    0  501    0  0.00000000000E+00 -0.00000000000E+00 -0.11188153191E+02  0.11188154326E+02  0.50400000000E-02 0. -1.
         23    2    1    2    0    0  0.35527136788E-14 -0.88817841970E-15  0.17601126809E+03  0.19838757567E+03  0.91529578210E+02 0.  0.
    9000005    2    3    3    0    0  0.16021236496E+02 -0.79902444487E+01  0.17906587161E+03  0.18022567522E+03  0.98073242917E+01 0.  0.
         22    1    3    3    0    0 -0.16021236496E+02  0.79902444487E+01 -0.30546035214E+01  0.18161900448E+02  0.00000000000E+00 0. -1.
         22    1    4    4    0    0  0.70902215524E+00 -0.11728144927E+01  0.23786558908E+01  0.27452158563E+01  0.00000000000E+00 0. -1.
         22    1    4    4    0    0  0.15312214340E+02 -0.68174299559E+01  0.17668721572E+03  0.17748045937E+03  0.00000000000E+00 0. -1.
<mgrwt>
<rscale>  0 0.91529578E+02</rscale>
<asrwt>0</asrwt>
<pdfrwt beam="2">  1        1 0.17212545E-02 0.91529578E+02</pdfrwt>
<pdfrwt beam="1">  1       -1 0.28799910E-01 0.91529578E+02</pdfrwt>
<totfact> 0.70011225E+04</totfact>
</mgrwt>
</event>
<event>
 7    1  0.2787125E-009  0.9158196E+02  0.7818608E-02  0.1299065E+00
          1   -1    0    0  501    0  0.00000000000E+00  0.00000000000E+00  0.15913939112E+01  0.15914018921E+01  0.50400000000E-02 0. -1.
         -1   -1    0    0    0  501 -0.00000000000E+00 -0.00000000000E+00 -0.13175925128E+04  0.13175925128E+04  0.50400000000E-02 0.  1.
         23    2    1    2    0    0  0.88817841970E-15 -0.17763568394E-14 -0.13160011189E+04  0.13191839147E+04  0.91581962696E+02 0.  0.
    9000005    2    3    3    0    0  0.69074815039E+01 -0.14084210466E+02 -0.12764868995E+04  0.12766697780E+04  0.14860659046E+02 0.  0.
         22    1    3    3    0    0 -0.69074815039E+01  0.14084210466E+02 -0.39514219370E+02  0.42514136679E+02  0.00000000000E+00 0. -1.
         22    1    4    4    0    0  0.10323221983E+02 -0.97035775052E+01 -0.11096158876E+04  0.11097063333E+04  0.00000000000E+00 0.  1.
         22    1    4    4    0    0 -0.34157404791E+01 -0.43806329609E+01 -0.16687101195E+03  0.16696344467E+03  0.00000000000E+00 0.  1.
<mgrwt>
<rscale>  0 0.91581963E+02</rscale>
<asrwt>0</asrwt>
<pdfrwt beam="1">  1        1 0.24483150E-03 0.91581963E+02</pdfrwt>
<pdfrwt beam="2">  1       -1 0.20270567E+00 0.91581963E+02</pdfrwt>
<totfact> 0.17171505E+04</totfact>
</mgrwt>
</event>
<event>
 7    1  0.2787125E-009  0.9143501E+02  0.7818608E-02  0.1299413E+00
          1   -1    0    0  501    0  0.00000000000E+00  0.00000000000E+00  0.46363837220E+02  0.46363837494E+02  0.50400000000E-02 0. -1.
         -1   -1    0    0    0  501 -0.00000000000E+00 -0.00000000000E+00 -0.45080186340E+02  0.45080186621E+02  0.50400000000E-02 0.  1.
         23    2    1    2    0    0 -0.35527136788E-14  0.71054273576E-14  0.12836508804E+01  0.91444024115E+02  0.91435014009E+02 0.  0.
    9000005    2    3    3    0    0 -0.16157787109E+02  0.42140170178E+02  0.82471507631E+00  0.46310016439E+02  0.10347436433E+02 0.  0.
         22    1    3    3    0    0  0.16157787109E+02 -0.42140170178E+02  0.45893580409E+00  0.45134007677E+02  0.00000000000E+00 0.  1.
         22    1    4    4    0    0  0.11062651814E+01  0.11068448272E+01 -0.81141169604E+00  0.17627583679E+01  0.00000000000E+00 0. -1.
         22    1    4    4    0    0 -0.17264052291E+02  0.41033325350E+02  0.16361267723E+01  0.44547258071E+02  0.00000000000E+00 0. -1.
<mgrwt>
<rscale>  0 0.91435014E+02</rscale>
<asrwt>0</asrwt>
<pdfrwt beam="1">  1        1 0.71328981E-02 0.91435014E+02</pdfrwt>
<pdfrwt beam="2">  1       -1 0.69354133E-02 0.91435014E+02</pdfrwt>
<totfact> 0.91973792E+04</totfact>
</mgrwt>
</event>
<event>
 7    1  0.2787125E-009  0.9085397E+02  0.7818608E-02  0.1300797E+00
          1   -1    0    0  501    0  0.00000000000E+00  0.00000000000E+00  0.68856191109E+03  0.68856191111E+03  0.50400000000E-02 0.  1.
         -1   -1    0    0    0  501 -0.00000000000E+00 -0.00000000000E+00 -0.29969849725E+01  0.29969892104E+01  0.50400000000E-02 0. -1.
         23    2    1    2    0    0  0.00000000000E+00 -0.35527136788E-14  0.68556492612E+03  0.69155890032E+03  0.90853974529E+02 0.  0.
    9000005    2    3    3    0    0  0.66793783498E+01  0.21286492793E+02  0.64382673439E+03  0.64423231668E+03  0.49684065986E+01 0.  0.
         22    1    3    3    0    0 -0.66793783498E+01 -0.21286492793E+02  0.41738191722E+02  0.47326583638E+02  0.00000000000E+00 0. -1.
         22    1    4    4    0    0  0.67434698879E+01  0.15314305102E+02  0.50503758957E+03  0.50531472293E+03  0.00000000000E+00 0.  1.
         22    1    4    4    0    0 -0.64091538133E-01  0.59721876902E+01  0.13878914482E+03  0.13891759375E+03  0.00000000000E+00 0.  1.
<mgrwt>
<rscale>  0 0.90853975E+02</rscale>
<asrwt>0</asrwt>
<pdfrwt beam="1">  1        1 0.10593261E+00 0.90853975E+02</pdfrwt>
<pdfrwt beam="2">  1       -1 0.46107492E-03 0.90853975E+02</pdfrwt>
<totfact> 0.14352704E+05</totfact>
</mgrwt>
</event>
<event>
 7    1  0.2787125E-009  0.9208538E+02  0.7818608E-02  0.1297879E+00
         -1   -1    0    0    0  501 -0.00000000000E+00  0.00000000000E+00  0.11714664775E+02  0.11714665859E+02  0.50400000000E-02 0.  1.
          1   -1    0    0  501    0  0.00000000000E+00 -0.00000000000E+00 -0.18096369110E+03  0.18096369117E+03  0.50400000000E-02 0. -1.
         23    2    1    2    0    0 -0.17763568394E-14  0.00000000000E+00 -0.16924902633E+03  0.19267835703E+03  0.92085375362E+02 0.  0.
    9000005    2    3    3    0    0  0.11906721673E+02 -0.10177111161E+02 -0.17467663839E+03  0.17610118643E+03  0.15948550037E+02 0.  0.
         22    1    3    3    0    0 -0.11906721673E+02  0.10177111161E+02  0.54276120637E+01  0.16577170606E+02  0.00000000000E+00 0.  1.
         22    1    4    4    0    0 -0.15805854714E+01 -0.69295642854E+01 -0.91495253034E+02  0.91770901921E+02  0.00000000000E+00 0. -1.
         22    1    4    4    0    0  0.13487307144E+02 -0.32475468755E+01 -0.83181385359E+02  0.84330284506E+02  0.00000000000E+00 0. -1.
<mgrwt>
<rscale>  0 0.92085375E+02</rscale>
<asrwt>0</asrwt>
<pdfrwt beam="2">  1        1 0.27840566E-01 0.92085375E+02</pdfrwt>
<pdfrwt beam="1">  1       -1 0.18022563E-02 0.92085375E+02</pdfrwt>
<totfact> 0.11308729E+05</totfact>
</mgrwt>
</event>
<event>
 7    1  0.2787125E-009  0.9043163E+02  0.7818608E-02  0.1301810E+00
         -1   -1    0    0    0  501 -0.00000000000E+00  0.00000000000E+00  0.40106921603E+02  0.40106921920E+02  0.50400000000E-02 0.  1.
          1   -1    0    0  501    0  0.00000000000E+00 -0.00000000000E+00 -0.50975483061E+02  0.50975483310E+02  0.50400000000E-02 0. -1.
         23    2    1    2    0    0 -0.71054273576E-14 -0.44408920985E-15 -0.10868561458E+02  0.91082405230E+02  0.90431625632E+02 0.  0.
    9000005    2    3    3    0    0 -0.44424313606E+02 -0.29935602219E+01 -0.35246065950E+01  0.45955753292E+02  0.10817918784E+02 0.  0.
         22    1    3    3    0    0  0.44424313606E+02  0.29935602219E+01 -0.73439548630E+01  0.45126651939E+02  0.00000000000E+00 0. -1.
         22    1    4    4    0    0 -0.21192141512E+02  0.12587118026E+01 -0.63756022063E+01  0.22166179660E+02  0.00000000000E+00 0. -1.
         22    1    4    4    0    0 -0.23232172094E+02 -0.42522720244E+01  0.28509956113E+01  0.23789573631E+02  0.00000000000E+00 0. -1.
<mgrwt>
<rscale>  0 0.90431626E+02</rscale>
<asrwt>0</asrwt>
<pdfrwt beam="2">  1        1 0.78423820E-02 0.90431626E+02</pdfrwt>
<pdfrwt beam="1">  1       -1 0.61702957E-02 0.90431626E+02</pdfrwt>
<totfact> 0.96213663E+04</totfact>
</mgrwt>
</event>
<event>
 7    1  0.2787125E-009  0.9184426E+02  0.7818608E-02  0.1298446E+00
          1   -1    0    0  501    0  0.00000000000E+00  0.00000000000E+00  0.47786467923E+03  0.47786467926E+03  0.50400000000E-02 0. -1.
         -1   -1    0    0    0  501 -0.00000000000E+00 -0.00000000000E+00 -0.44130513602E+01  0.44130542382E+01  0.50400000000E-02 0.  1.
         23    2    1    2    0    0 -0.35527136788E-14 -0.71054273576E-14  0.47345162787E+03  0.48227773350E+03  0.91844261075E+02 0.  0.
    9000005    2    3    3    0    0 -0.28846227048E+02 -0.34616357691E+02  0.26472528227E+03  0.26874299538E+03  0.10626639066E+02 0.  0.
         22    1    3    3    0    0  0.28846227048E+02  0.34616357691E+02  0.20872634561E+03  0.21353473812E+03  0.00000000000E+00 0.  1.
         22    1    4    4    0    0 -0.17221465500E+02 -0.27572886931E+02  0.19745841055E+03  0.20011663315E+03  0.00000000000E+00 0.  1.
         22    1    4    4    0    0 -0.11624761548E+02 -0.70434707600E+01  0.67266871722E+02  0.68626362228E+02  0.00000000000E+00 0.  1.
<mgrwt>
<rscale>  0 0.91844261E+02</rscale>
<asrwt>0</asrwt>
<pdfrwt beam="1">  1        1 0.73517615E-01 0.91844261E+02</pdfrwt>
<pdfrwt beam="2">  1       -1 0.67893146E-03 0.91844261E+02</pdfrwt>
<totfact> 0.13583259E+05</totfact>
</mgrwt>
</event>
<event>
 7    1  0.2787125E-009  0.9175035E+02  0.7818608E-02  0.1298667E+00
         -1   -1    0    0    0  501 -0.00000000000E+00  0.00000000000E+00  0.23562111462E+03  0.23562111467E+03  0.50400000000E-02 0.  1.
          1   -1    0    0  501    0  0.00000000000E+00 -0.00000000000E+00 -0.89318464472E+01  0.89318478691E+01  0.50400000000E-02 0. -1.
         23    2    1    2    0    0  0.00000000000E+00  0.00000000000E+00  0.22668926817E+03  0.24455296254E+03  0.91750352499E+02 0.  0.
    9000005    2    3    3    0    0 -0.13188322562E+02  0.36643025776E+02  0.51495703487E+02  0.65083109093E+02  0.82073394978E+01 0.  0.
         22    1    3    3    0    0  0.13188322562E+02 -0.36643025776E+02  0.17519356468E+03  0.17946985345E+03  0.00000000000E+00 0.  1.
         22    1    4    4    0    0 -0.13799663640E+02  0.35965412009E+02  0.48417222546E+02  0.61872199061E+02  0.00000000000E+00 0. -1.
         22    1    4    4    0    0  0.61134107868E+00  0.67761376662E+00  0.30784809412E+01  0.32109100324E+01  0.00000000000E+00 0. -1.
<mgrwt>
<rscale>  0 0.91750352E+02</rscale>
<asrwt>0</asrwt>
<pdfrwt beam="2">  1        1 0.13741301E-02 0.91750352E+02</pdfrwt>
<pdfrwt beam="1">  1       -1 0.36249408E-01 0.91750352E+02</pdfrwt>
<totfact> 0.64974795E+04</totfact>
</mgrwt>
</event>
<event>
 7    1  0.2787125E-009  0.8981267E+02  0.7818608E-02  0.1303306E+00
          1   -1    0    0  501    0  0.00000000000E+00  0.00000000000E+00  0.12838698456E+04  0.12838698456E+04  0.50400000000E-02 0. -1.
         -1   -1    0    0    0  501 -0.00000000000E+00 -0.00000000000E+00 -0.15706993535E+01  0.15707074395E+01  0.50400000000E-02 0.  1.
         23    2    1    2    0    0  0.00000000000E+00 -0.17763568394E-14  0.12822991463E+04  0.12854405531E+04  0.89812665919E+02 0.  0.
    9000005    2    3    3    0    0  0.26394975014E+02  0.15760915117E+02  0.11091973796E+04  0.11096300790E+04  0.38709526570E+01 0.  0.
         22    1    3    3    0    0 -0.26394975014E+02 -0.15760915117E+02  0.17310176671E+03  0.17581047406E+03  0.00000000000E+00 0.  1.
         22    1    4    4    0    0  0.23795317511E+02  0.12990025992E+02  0.99633952636E+03  0.99670828716E+03  0.00000000000E+00 0.  1.
         22    1    4    4    0    0  0.25996575027E+01  0.27708891244E+01  0.11285785320E+03  0.11292179185E+03  0.00000000000E+00 0.  1.
<mgrwt>
<rscale>  0 0.89812666E+02</rscale>
<asrwt>0</asrwt>
<pdfrwt beam="1">  1        1 0.19751846E+00 0.89812666E+02</pdfrwt>
<pdfrwt beam="2">  1       -1 0.24164665E-03 0.89812666E+02</pdfrwt>
<totfact> 0.12794281E+05</totfact>
</mgrwt>
</event>
<event>
 7    1  0.2787125E-009  0.9446120E+02  0.7818608E-02  0.1292394E+00
         -1   -1    0    0    0  501 -0.00000000000E+00  0.00000000000E+00  0.32509193395E+03  0.32509193399E+03  0.50400000000E-02 0.  1.
          1   -1    0    0  501    0  0.00000000000E+00 -0.00000000000E+00 -0.68618406669E+01  0.68618425178E+01  0.50400000000E-02 0. -1.
         23    2    1    2    0    0  0.00000000000E+00  0.00000000000E+00  0.31823009329E+03  0.33195377651E+03  0.94461195558E+02 0.  0.
    9000005    2    3    3    0    0 -0.17224348344E+02  0.41179336299E+02  0.20255386684E+03  0.20796423954E+03  0.15120847878E+02 0.  0.
         22    1    3    3    0    0  0.17224348344E+02 -0.41179336299E+02  0.11567622645E+03  0.12398953697E+03  0.00000000000E+00 0.  1.
         22    1    4    4    0    0 -0.27734259626E+01  0.85435965455E+01  0.74149194732E+02  0.74691284719E+02  0.00000000000E+00 0.  1.
         22    1    4    4    0    0 -0.14450922381E+02  0.32635739753E+02  0.12840467211E+03  0.13327295482E+03  0.00000000000E+00 0.  1.
<mgrwt>
<rscale>  0 0.94461196E+02</rscale>
<asrwt>0</asrwt>
<pdfrwt beam="2">  1        1 0.10556678E-02 0.94461196E+02</pdfrwt>
<pdfrwt beam="1">  1       -1 0.50014148E-01 0.94461196E+02</pdfrwt>
<totfact> 0.53442227E+04</totfact>
</mgrwt>
</event>
<event>
 7    1  0.2787125E-009  0.9026746E+02  0.7818608E-02  0.1302205E+00
         -1   -1    0    0    0  501 -0.00000000000E+00  0.00000000000E+00  0.39212032343E+02  0.39212032667E+02  0.50400000000E-02 0.  1.
          1   -1    0    0  501    0  0.00000000000E+00 -0.00000000000E+00 -0.51949711391E+02  0.51949711635E+02  0.50400000000E-02 0. -1.
         23    2    1    2    0    0  0.00000000000E+00  0.00000000000E+00 -0.12737679048E+02  0.91161744302E+02  0.90267464552E+02 0.  0.
    9000005    2    3    3    0    0 -0.16798800660E+02 -0.21300710472E+02 -0.41720727823E+02  0.51463670211E+02  0.13113742840E+02 0.  0.
         22    1    3    3    0    0  0.16798800660E+02  0.21300710472E+02  0.28983048775E+02  0.39698074091E+02  0.00000000000E+00 0.  1.
         22    1    4    4    0    0  0.95818703965E+00 -0.67317864293E+01 -0.13160365901E+02  0.14813179995E+02  0.00000000000E+00 0. -1.
         22    1    4    4    0    0 -0.17756987699E+02 -0.14568924043E+02 -0.28560361922E+02  0.36650490216E+02  0.00000000000E+00 0. -1.
<mgrwt>
<rscale>  0 0.90267465E+02</rscale>
<asrwt>0</asrwt>
<pdfrwt beam="2">  1        1 0.79922633E-02 0.90267465E+02</pdfrwt>
<pdfrwt beam="1">  1       -1 0.60326205E-02 0.90267465E+02</pdfrwt>
<totfact> 0.96974671E+04</totfact>
</mgrwt>
</event>
<event>
 7    1  0.2787125E-009  0.1019015E+03  0.7818608E-02  0.1276347E+00
          1   -1    0    0  501    0  0.00000000000E+00  0.00000000000E+00  0.12116227596E+03  0.12116227606E+03  0.50400000000E-02 0. -1.
         -1   -1    0    0    0  501 -0.00000000000E+00 -0.00000000000E+00 -0.21425644261E+02  0.21425644853E+02  0.50400000000E-02 0.  1.
         23    2    1    2    0    0  0.00000000000E+00  0.00000000000E+00  0.99736631695E+02  0.14258792091E+03  0.10190151858E+03 0.  0.
    9000005    2    3    3    0    0  0.18197539895E+02  0.19210974367E+02 -0.10436689383E+02  0.29281377980E+02  0.69471301099E+01 0.  0.
         22    1    3    3    0    0 -0.18197539895E+02 -0.19210974367E+02  0.11017332108E+03  0.11330654293E+03  0.00000000000E+00 0. -1.
         22    1    4    4    0    0  0.12971920395E+02  0.11511144923E+02 -0.35446719850E+01  0.17701465354E+02  0.00000000000E+00 0.  1.
         22    1    4    4    0    0  0.52256194997E+01  0.76998294444E+01 -0.68920173975E+01  0.11579912626E+02  0.00000000000E+00 0.  1.
<mgrwt>
<rscale>  0 0.10190152E+03</rscale>
<asrwt>0</asrwt>
<pdfrwt beam="1">  1        1 0.18640350E-01 0.10190152E+03</pdfrwt>
<pdfrwt beam="2">  1       -1 0.32962531E-02 0.10190152E+03</pdfrwt>
<totfact> 0.79642879E+04</totfact>
</mgrwt>
</event>
<event>
 7    1  0.2787125E-009  0.9116090E+02  0.7818608E-02  0.1300065E+00
         -1   -1    0    0    0  501 -0.00000000000E+00  0.00000000000E+00  0.27298331491E+01  0.27298378016E+01  0.50400000000E-02 0.  1.
          1   -1    0    0  501    0  0.00000000000E+00 -0.00000000000E+00 -0.76106316265E+03  0.76106316267E+03  0.50400000000E-02 0. -1.
         23    2    1    2    0    0  0.00000000000E+00 -0.17763568394E-14 -0.75833332950E+03  0.76379300047E+03  0.91160895851E+02 0.  0.
    9000005    2    3    3    0    0  0.18222675870E+02 -0.12862119154E+02 -0.71134405649E+03  0.71177865819E+03  0.10999614536E+02 0.  0.
         22    1    3    3    0    0 -0.18222675870E+02  0.12862119154E+02 -0.46989273010E+02  0.52014342282E+02  0.00000000000E+00 0.  1.
         22    1    4    4    0    0  0.56462579102E+01 -0.11830754323E+01 -0.82996701192E+02  0.83196948890E+02  0.00000000000E+00 0. -1.
         22    1    4    4    0    0  0.12576417959E+02 -0.11679043722E+02 -0.62834735530E+03  0.62858170930E+03  0.00000000000E+00 0. -1.
<mgrwt>
<rscale>  0 0.91160896E+02</rscale>
<asrwt>0</asrwt>
<pdfrwt beam="2">  1        1 0.11708647E+00 0.91160896E+02</pdfrwt>
<pdfrwt beam="1">  1       -1 0.41997530E-03 0.91160896E+02</pdfrwt>
<totfact> 0.14186731E+05</totfact>
</mgrwt>
</event>
<event>
 7    1  0.2787125E-009  0.9478977E+02  0.7818608E-02  0.1291650E+00
          1   -1    0    0  501    0  0.00000000000E+00  0.00000000000E+00  0.18901052153E+03  0.18901052159E+03  0.50400000000E-02 0. -1.
         -1   -1    0    0    0  501 -0.00000000000E+00 -0.00000000000E+00 -0.11884391065E+02  0.11884392134E+02  0.50400000000E-02 0.  1.
         23    2    1    2    0    0  0.00000000000E+00  0.00000000000E+00  0.17712613046E+03  0.20089491373E+03  0.94789768800E+02 0.  0.
    9000005    2    3    3    0    0  0.20787691846E+02  0.38568088945E+02  0.55351891471E+02  0.71478566619E+02  0.11212848850E+02 0.  0.
         22    1    3    3    0    0 -0.20787691846E+02 -0.38568088945E+02  0.12177423899E+03  0.12941634711E+03  0.00000000000E+00 0.  1.
         22    1    4    4    0    0  0.12215091239E+02  0.28416692607E+02  0.31324026077E+02  0.44021716031E+02  0.00000000000E+00 0.  1.
         22    1    4    4    0    0  0.85726006070E+01  0.10151396338E+02  0.24027865395E+02  0.27456850588E+02  0.00000000000E+00 0.  1.
<mgrwt>
<rscale>  0 0.94789769E+02</rscale>
<asrwt>0</asrwt>
<pdfrwt beam="1">  1        1 0.29078542E-01 0.94789769E+02</pdfrwt>
<pdfrwt beam="2">  1       -1 0.18283679E-02 0.94789769E+02</pdfrwt>
<totfact> 0.10548468E+05</totfact>
</mgrwt>
</event>
<event>
 7    1  0.2787125E-009  0.9349358E+02  0.7818608E-02  0.1294605E+00
          1   -1    0    0  501    0  0.00000000000E+00  0.00000000000E+00  0.29911484094E+02  0.29911484519E+02  0.50400000000E-02 0. -1.
         -1   -1    0    0    0  501 -0.00000000000E+00 -0.00000000000E+00 -0.73057637937E+02  0.73057638111E+02  0.50400000000E-02 0.  1.
         23    2    1    2    0    0  0.00000000000E+00 -0.44408920985E-15 -0.43146153843E+02  0.10296912263E+03  0.93493580655E+02 0.  0.
    9000005    2    3    3    0    0  0.15733980266E+02 -0.33893407899E+01  0.26325098482E+02  0.31657828534E+02  0.70824805942E+01 0.  0.
         22    1    3    3    0    0 -0.15733980266E+02  0.33893407899E+01 -0.69471252325E+02  0.71311294096E+02  0.00000000000E+00 0.  1.
         22    1    4    4    0    0  0.36956385559E+01 -0.40950302260E+01  0.87430407150E+01  0.10337687257E+02  0.00000000000E+00 0.  1.
         22    1    4    4    0    0  0.12038341711E+02  0.70568943605E+00  0.17582057767E+02  0.21320141276E+02  0.00000000000E+00 0.  1.
<mgrwt>
<rscale>  0 0.93493581E+02</rscale>
<asrwt>0</asrwt>
<pdfrwt beam="1">  1        1 0.46017669E-02 0.93493581E+02</pdfrwt>
<pdfrwt beam="2">  1       -1 0.11239637E-01 0.93493581E+02</pdfrwt>
<totfact> 0.80600560E+04</totfact>
</mgrwt>
</event>
<event>
 7    1  0.2787125E-009  0.1088289E+03  0.7818608E-02  0.1262754E+00
          1   -1    0    0  501    0  0.00000000000E+00  0.00000000000E+00  0.15868080116E+03  0.15868080124E+03  0.50400000000E-02 0. -1.
         -1   -1    0    0    0  501 -0.00000000000E+00 -0.00000000000E+00 -0.18659687370E+02  0.18659688051E+02  0.50400000000E-02 0.  1.
         23    2    1    2    0    0  0.00000000000E+00 -0.35527136788E-14  0.14002111379E+03  0.17734048929E+03  0.10882893381E+03 0.  0.
    9000005    2    3    3    0    0  0.41819691954E+02  0.27928422300E+02  0.38109391625E+02  0.63696824611E+02  0.87221745115E+01 0.  0.
         22    1    3    3    0    0 -0.41819691954E+02 -0.27928422300E+02  0.10191172216E+03  0.11364366468E+03  0.00000000000E+00 0. -1.
         22    1    4    4    0    0  0.39421200100E+02  0.25358690074E+02  0.37709576971E+02  0.60159009092E+02  0.00000000000E+00 0. -1.
         22    1    4    4    0    0  0.23984918536E+01  0.25697322265E+01  0.39981465352E+00  0.35378155187E+01  0.00000000000E+00 0. -1.
<mgrwt>
<rscale>  0 0.10882893E+03</rscale>
<asrwt>0</asrwt>
<pdfrwt beam="1">  1        1 0.24412432E-01 0.10882893E+03</pdfrwt>
<pdfrwt beam="2">  1       -1 0.28707211E-02 0.10882893E+03</pdfrwt>
<totfact> 0.69971222E+04</totfact>
</mgrwt>
</event>
<event>
 7    1  0.2787125E-009  0.9045433E+02  0.7818608E-02  0.1301755E+00
          1   -1    0    0  501    0  0.00000000000E+00  0.00000000000E+00  0.15772585049E+01  0.15772665574E+01  0.50400000000E-02 0. -1.
         -1   -1    0    0    0  501 -0.00000000000E+00 -0.00000000000E+00 -0.12968649406E+04  0.12968649406E+04  0.50400000000E-02 0.  1.
         23    2    1    2    0    0  0.00000000000E+00  0.00000000000E+00 -0.12952876821E+04  0.12984422071E+04  0.90454330829E+02 0.  0.
    9000005    2    3    3    0    0 -0.12379389282E+02  0.19164526448E+01 -0.12706030819E+04  0.12707609579E+04  0.15630051990E+02 0.  0.
         22    1    3    3    0    0  0.12379389282E+02 -0.19164526448E+01 -0.24684600196E+02  0.27681249187E+02  0.00000000000E+00 0. -1.
         22    1    4    4    0    0  0.38276876202E+00  0.28290273363E+01 -0.44680271355E+02  0.44771380992E+02  0.00000000000E+00 0. -1.
         22    1    4    4    0    0 -0.12762158044E+02 -0.91257469146E+00 -0.12259228105E+04  0.12259895769E+04  0.00000000000E+00 0. -1.
<mgrwt>
<rscale>  0 0.90454331E+02</rscale>
<asrwt>0</asrwt>
<pdfrwt beam="1">  1        1 0.24265681E-03 0.90454331E+02</pdfrwt>
<pdfrwt beam="2">  1       -1 0.19951683E+00 0.90454331E+02</pdfrwt>
<totfact> 0.18205368E+04</totfact>
</mgrwt>
</event>
<event>
 7    1  0.2787125E-009  0.8606175E+02  0.7818608E-02  0.1312679E+00
         -1   -1    0    0    0  501 -0.00000000000E+00  0.00000000000E+00  0.11402368043E+02  0.11402369157E+02  0.50400000000E-02 0.  1.
          1   -1    0    0  501    0  0.00000000000E+00 -0.00000000000E+00 -0.16239223981E+03  0.16239223988E+03  0.50400000000E-02 0. -1.
         23    2    1    2    0    0  0.71054273576E-14  0.35527136788E-14 -0.15098987176E+03  0.17379460904E+03  0.86061749671E+02 0.  0.
    9000005    2    3    3    0    0 -0.28112585067E+02 -0.24916904088E+02 -0.11531106603E+03  0.12198585759E+03  0.13142981178E+02 0.  0.
         22    1    3    3    0    0  0.28112585067E+02  0.24916904088E+02 -0.35678805734E+02  0.51808751453E+02  0.00000000000E+00 0. -1.
         22    1    4    4    0    0  0.53622356628E+00 -0.76251287415E-02 -0.10458487097E+02  0.10472227376E+02  0.00000000000E+00 0.  1.
         22    1    4    4    0    0 -0.28648808633E+02 -0.24909278959E+02 -0.10485257893E+03  0.11151363021E+03  0.00000000000E+00 0.  1.
<mgrwt>
<rscale>  0 0.86061750E+02</rscale>
<asrwt>0</asrwt>
<pdfrwt beam="2">  1        1 0.24983420E-01 0.86061750E+02</pdfrwt>
<pdfrwt beam="1">  1       -1 0.17542107E-02 0.86061750E+02</pdfrwt>
<totfact> 0.13285338E+05</totfact>
</mgrwt>
</event>
<event>
 7    1  0.2787125E-009  0.9759964E+02  0.7818608E-02  0.1285426E+00
          1   -1    0    0  501    0  0.00000000000E+00  0.00000000000E+00  0.35340641031E+02  0.35340641391E+02  0.50400000000E-02 0. -1.
         -1   -1    0    0    0  501 -0.00000000000E+00 -0.00000000000E+00 -0.67384812823E+02  0.67384813012E+02  0.50400000000E-02 0.  1.
         23    2    1    2    0    0  0.00000000000E+00 -0.44408920985E-15 -0.32044171792E+02  0.10272545440E+03  0.97599641579E+02 0.  0.
    9000005    2    3    3    0    0 -0.43822254564E+02 -0.25758008195E+01 -0.38424952716E+02  0.58366248930E+02  0.17655814902E+01 0.  0.
         22    1    3    3    0    0  0.43822254564E+02  0.25758008195E+01  0.63807809243E+01  0.44359205472E+02  0.00000000000E+00 0. -1.
         22    1    4    4    0    0 -0.30955283758E+02 -0.11014308302E+01 -0.27579660100E+02  0.41473851927E+02  0.00000000000E+00 0.  1.
         22    1    4    4    0    0 -0.12866970806E+02 -0.14743699893E+01 -0.10845292616E+02  0.16892397003E+02  0.00000000000E+00 0.  1.
<mgrwt>
<rscale>  0 0.97599642E+02</rscale>
<asrwt>0</asrwt>
<pdfrwt beam="1">  1        1 0.54370218E-02 0.97599642E+02</pdfrwt>
<pdfrwt beam="2">  1       -1 0.10366894E-01 0.97599642E+02</pdfrwt>
<totfact> 0.73201660E+04</totfact>
</mgrwt>
</event>
<event>
 7    1  0.2787125E-009  0.8978869E+02  0.7818608E-02  0.1303364E+00
         -1   -1    0    0    0  501 -0.00000000000E+00  0.00000000000E+00  0.34461104404E+02  0.34461104772E+02  0.50400000000E-02 0.  1.
          1   -1    0    0  501    0  0.00000000000E+00 -0.00000000000E+00 -0.58486294395E+02  0.58486294612E+02  0.50400000000E-02 0. -1.
         23    2    1    2    0    0  0.17763568394E-14  0.00000000000E+00 -0.24025189992E+02  0.92947399385E+02  0.89788692486E+02 0.  0.
    9000005    2    3    3    0    0  0.13563735990E+02  0.29947643373E+01 -0.55861531402E+02  0.58212745481E+02  0.86757995818E+01 0.  0.
         22    1    3    3    0    0 -0.13563735990E+02 -0.29947643373E+01  0.31836341410E+02  0.34734653904E+02  0.00000000000E+00 0.  1.
         22    1    4    4    0    0  0.13101856357E+02  0.46434982320E+01 -0.41875786282E+02  0.44122581436E+02  0.00000000000E+00 0. -1.
         22    1    4    4    0    0  0.46187963322E+00 -0.16487338947E+01 -0.13985745120E+02  0.14090164044E+02  0.00000000000E+00 0. -1.
<mgrwt>
<rscale>  0 0.89788692E+02</rscale>
<asrwt>0</asrwt>
<pdfrwt beam="2">  1        1 0.89978915E-02 0.89788692E+02</pdfrwt>
<pdfrwt beam="1">  1       -1 0.53017084E-02 0.89788692E+02</pdfrwt>
<totfact> 0.10016916E+05</totfact>
</mgrwt>
</event>
<event>
 7    1  0.2787125E-009  0.9148062E+02  0.7818608E-02  0.1299305E+00
         -1   -1    0    0    0  501 -0.00000000000E+00  0.00000000000E+00  0.19581659999E+02  0.19581660648E+02  0.50400000000E-02 0.  1.
          1   -1    0    0  501    0  0.00000000000E+00 -0.00000000000E+00 -0.10684365528E+03  0.10684365540E+03  0.50400000000E-02 0. -1.
         23    2    1    2    0    0  0.00000000000E+00  0.00000000000E+00 -0.87261995278E+02  0.12642531604E+03  0.91480624817E+02 0.  0.
    9000005    2    3    3    0    0 -0.33709097272E+02 -0.15947971885E+02 -0.81188754943E+01  0.38936605599E+02  0.77137584971E+01 0.  0.
         22    1    3    3    0    0  0.33709097272E+02  0.15947971885E+02 -0.79143119784E+02  0.87488710445E+02  0.00000000000E+00 0. -1.
         22    1    4    4    0    0 -0.96917692414E+01 -0.85308408770E+01 -0.19928853966E+01  0.13064349555E+02  0.00000000000E+00 0.  1.
         22    1    4    4    0    0 -0.24017328031E+02 -0.74171310076E+01 -0.61259900978E+01  0.25872256044E+02  0.00000000000E+00 0.  1.
<mgrwt>
<rscale>  0 0.91480625E+02</rscale>
<asrwt>0</asrwt>
<pdfrwt beam="2">  1        1 0.16437485E-01 0.91480625E+02</pdfrwt>
<pdfrwt beam="1">  1       -1 0.30125632E-02 0.91480625E+02</pdfrwt>
<totfact> 0.10466440E+05</totfact>
</mgrwt>
</event>
<event>
 7    1  0.2787125E-009  0.9047591E+02  0.7818608E-02  0.1301703E+00
         -1   -1    0    0    0  501 -0.00000000000E+00  0.00000000000E+00  0.17143273347E+03  0.17143273355E+03  0.50400000000E-02 0.  1.
          1   -1    0    0  501    0  0.00000000000E+00 -0.00000000000E+00 -0.11937466695E+02  0.11937467759E+02  0.50400000000E-02 0. -1.
         23    2    1    2    0    0 -0.71054273576E-14  0.00000000000E+00  0.15949526678E+03  0.18337020130E+03  0.90475911725E+02 0.  0.
    9000005    2    3    3    0    0  0.43698732768E+02  0.86035547387E+01  0.64642657634E+02  0.78581757950E+02  0.35803766245E+01 0.  0.
         22    1    3    3    0    0 -0.43698732768E+02 -0.86035547387E+01  0.94852609142E+02  0.10478844335E+03  0.00000000000E+00 0.  1.
         22    1    4    4    0    0  0.19277768619E+02  0.26200835323E+01  0.30588607867E+02  0.36251346622E+02  0.00000000000E+00 0.  1.
         22    1    4    4    0    0  0.24420964150E+02  0.59834712065E+01  0.34054049766E+02  0.42330411328E+02  0.00000000000E+00 0.  1.
<mgrwt>
<rscale>  0 0.90475912E+02</rscale>
<asrwt>0</asrwt>
<pdfrwt beam="2">  1        1 0.18365335E-02 0.90475912E+02</pdfrwt>
<pdfrwt beam="1">  1       -1 0.26374266E-01 0.90475912E+02</pdfrwt>
<totfact> 0.73849248E+04</totfact>
</mgrwt>
</event>
<event>
 7    1  0.2787125E-009  0.9058185E+02  0.7818608E-02  0.1301449E+00
         -1   -1    0    0    0  501 -0.00000000000E+00  0.00000000000E+00  0.45543131279E+03  0.45543131282E+03  0.50400000000E-02 0.  1.
          1   -1    0    0  501    0  0.00000000000E+00 -0.00000000000E+00 -0.45040105326E+01  0.45040133525E+01  0.50400000000E-02 0. -1.
         23    2    1    2    0    0  0.44408920985E-15 -0.71054273576E-14  0.45092730226E+03  0.45993532617E+03  0.90581854354E+02 0.  0.
    9000005    2    3    3    0    0  0.34930180001E+01 -0.43205797190E+02  0.27670814103E+03  0.28040466521E+03  0.13432753795E+02 0.  0.
         22    1    3    3    0    0 -0.34930180001E+01  0.43205797190E+02  0.17421916123E+03  0.17953066096E+03  0.00000000000E+00 0.  1.
         22    1    4    4    0    0 -0.34349572591E+00 -0.14441202797E+02  0.13396876227E+03  0.13474529896E+03  0.00000000000E+00 0.  1.
         22    1    4    4    0    0  0.38365137260E+01 -0.28764594392E+02  0.14273937876E+03  0.14565936625E+03  0.00000000000E+00 0.  1.
<mgrwt>
<rscale>  0 0.90581854E+02</rscale>
<asrwt>0</asrwt>
<pdfrwt beam="2">  1        1 0.69292488E-03 0.90581854E+02</pdfrwt>
<pdfrwt beam="1">  1       -1 0.70066360E-01 0.90581854E+02</pdfrwt>
<totfact> 0.50573544E+04</totfact>
</mgrwt>
</event>
<event>
 7    1  0.2787125E-009  0.8179252E+02  0.7818608E-02  0.1324040E+00
          1   -1    0    0  501    0  0.00000000000E+00  0.00000000000E+00  0.57501867584E+02  0.57501867805E+02  0.50400000000E-02 0. -1.
         -1   -1    0    0    0  501 -0.00000000000E+00 -0.00000000000E+00 -0.29086081774E+02  0.29086082211E+02  0.50400000000E-02 0.  1.
         23    2    1    2    0    0  0.00000000000E+00 -0.55511151231E-16  0.28415785810E+02  0.86587950016E+02  0.81792519247E+02 0.  0.
    9000005    2    3    3    0    0 -0.32591336873E+02  0.21563046688E+00 -0.11158809785E+02  0.35320120414E+02  0.77942372668E+01 0.  0.
         22    1    3    3    0    0  0.32591336873E+02 -0.21563046688E+00  0.39574595594E+02  0.51267829602E+02  0.00000000000E+00 0. -1.
         22    1    4    4    0    0 -0.16606246827E+02 -0.68470915929E+00 -0.16577630555E+01  0.16702827265E+02  0.00000000000E+00 0.  1.
         22    1    4    4    0    0 -0.15985090046E+02  0.90033962617E+00 -0.95010467294E+01  0.18617293148E+02  0.00000000000E+00 0.  1.
<mgrwt>
<rscale>  0 0.81792519E+02</rscale>
<asrwt>0</asrwt>
<pdfrwt beam="1">  1        1 0.88464411E-02 0.81792519E+02</pdfrwt>
<pdfrwt beam="2">  1       -1 0.44747819E-02 0.81792519E+02</pdfrwt>
<totfact> 0.12914422E+05</totfact>
</mgrwt>
</event>
<event>
 7    1  0.2787125E-009  0.9565127E+02  0.7818608E-02  0.1289716E+00
          1   -1    0    0  501    0  0.00000000000E+00  0.00000000000E+00  0.18514747289E+03  0.18514747296E+03  0.50400000000E-02 0. -1.
         -1   -1    0    0    0  501 -0.00000000000E+00 -0.00000000000E+00 -0.12353889370E+02  0.12353890398E+02  0.50400000000E-02 0.  1.
         23    2    1    2    0    0  0.00000000000E+00  0.00000000000E+00  0.17279358352E+03  0.19750136336E+03  0.95651272977E+02 0.  0.
    9000005    2    3    3    0    0 -0.18428850884E+02  0.77829172550E+00  0.17713998679E+03  0.17855091470E+03  0.12713219052E+02 0.  0.
         22    1    3    3    0    0  0.18428850884E+02 -0.77829172550E+00 -0.43464032663E+01  0.18950448656E+02  0.00000000000E+00 0.  1.
         22    1    4    4    0    0  0.15346155941E+01  0.67161772810E-02  0.32678156420E+02  0.32714171197E+02  0.00000000000E+00 0. -1.
         22    1    4    4    0    0 -0.19963466478E+02  0.77157554822E+00  0.14446183037E+03  0.14583674351E+03  0.00000000000E+00 0. -1.
<mgrwt>
<rscale>  0 0.95651273E+02</rscale>
<asrwt>0</asrwt>
<pdfrwt beam="1">  1        1 0.28484225E-01 0.95651273E+02</pdfrwt>
<pdfrwt beam="2">  1       -1 0.19005986E-02 0.95651273E+02</pdfrwt>
<totfact> 0.10252623E+05</totfact>
</mgrwt>
</event>
<event>
 7    1  0.2787125E-009  0.9418814E+02  0.7818608E-02  0.1293015E+00
         -1   -1    0    0    0  501 -0.00000000000E+00  0.00000000000E+00  0.32235443070E+02  0.32235443464E+02  0.50400000000E-02 0.  1.
          1   -1    0    0  501    0  0.00000000000E+00 -0.00000000000E+00 -0.68801641835E+02  0.68801642019E+02  0.50400000000E-02 0. -1.
         23    2    1    2    0    0  0.17763568394E-14 -0.35527136788E-14 -0.36566198765E+02  0.10103708548E+03  0.94188140182E+02 0.  0.
    9000005    2    3    3    0    0  0.84524095601E+01 -0.30810100485E+02 -0.54405824454E+02  0.64445313676E+02  0.13133895119E+02 0.  0.
         22    1    3    3    0    0 -0.84524095601E+01  0.30810100485E+02  0.17839625689E+02  0.36591771807E+02  0.00000000000E+00 0.  1.
         22    1    4    4    0    0  0.50392304954E+00 -0.21225522419E+02 -0.40854594828E+02  0.46042096596E+02  0.00000000000E+00 0.  1.
         22    1    4    4    0    0  0.79484865106E+01 -0.95845780664E+01 -0.13551229626E+02  0.18403217080E+02  0.00000000000E+00 0.  1.
<mgrwt>
<rscale>  0 0.94188140E+02</rscale>
<asrwt>0</asrwt>
<pdfrwt beam="2">  1        1 0.10584868E-01 0.94188140E+02</pdfrwt>
<pdfrwt beam="1">  1       -1 0.49592990E-02 0.94188140E+02</pdfrwt>
<totfact> 0.89938760E+04</totfact>
</mgrwt>
</event>
<event>
 7    1  0.2787125E-009  0.9226664E+02  0.7818608E-02  0.1297454E+00
         -1   -1    0    0    0  501 -0.00000000000E+00  0.00000000000E+00  0.25392073028E+03  0.25392073033E+03  0.50400000000E-02 0.  1.
          1   -1    0    0  501    0  0.00000000000E+00 -0.00000000000E+00 -0.83816835168E+01  0.83816850321E+01  0.50400000000E-02 0. -1.
         23    2    1    2    0    0  0.00000000000E+00 -0.17763568394E-14  0.24553904677E+03  0.26230241537E+03  0.92266644133E+02 0.  0.
    9000005    2    3    3    0    0 -0.24861637325E+02 -0.13480302808E+02  0.22542615826E+03  0.22759870003E+03  0.13579243410E+02 0.  0.
         22    1    3    3    0    0  0.24861637325E+02  0.13480302808E+02  0.20112888508E+02  0.34703715341E+02  0.00000000000E+00 0. -1.
         22    1    4    4    0    0  0.10715394858E+01  0.98236635933E+00  0.17909639819E+02  0.17968540258E+02  0.00000000000E+00 0.  1.
         22    1    4    4    0    0 -0.25933176811E+02 -0.14462669168E+02  0.20751651844E+03  0.20963015977E+03  0.00000000000E+00 0.  1.
<mgrwt>
<rscale>  0 0.92266644E+02</rscale>
<asrwt>0</asrwt>
<pdfrwt beam="2">  1        1 0.12894898E-02 0.92266644E+02</pdfrwt>
<pdfrwt beam="1">  1       -1 0.39064730E-01 0.92266644E+02</pdfrwt>
<totfact> 0.62451791E+04</totfact>
</mgrwt>
</event>
<event>
 7    1  0.4318931E-009  0.8848931E+02  0.7818608E-02  0.1306552E+00
          1   -1    0    0  501    0  0.00000000000E+00  0.00000000000E+00  0.13486166861E+04  0.13486166861E+04  0.50400000000E-02 0. -1.
         -1   -1    0    0    0  501 -0.00000000000E+00 -0.00000000000E+00 -0.14515493005E+01  0.14515580503E+01  0.50400000000E-02 0.  1.
         23    2    1    2    0    0  0.00000000000E+00  0.00000000000E+00  0.13471651368E+04  0.13500682442E+04  0.88489310544E+02 0.  0.
    9000005    2    3    3    0    0  0.98749728480E+01 -0.22921106325E+02  0.12290002547E+04  0.12292964281E+04  0.10256206415E+02 0.  0.
         22    1    3    3    0    0 -0.98749728480E+01  0.22921106325E+02  0.11816488211E+03  0.12077181611E+03  0.00000000000E+00 0.  1.
         22    1    4    4    0    0  0.11573984798E+01 -0.20602467059E+01  0.33869576615E+02  0.33951913168E+02  0.00000000000E+00 0.  1.
         22    1    4    4    0    0  0.87175743682E+01 -0.20860859619E+02  0.11951306781E+04  0.11953445149E+04  0.00000000000E+00 0.  1.
<mgrwt>
<rscale>  0 0.88489311E+02</rscale>
<asrwt>0</asrwt>
<pdfrwt beam="1">  1        1 0.20748057E+00 0.88489311E+02</pdfrwt>
<pdfrwt beam="2">  1       -1 0.22331479E-03 0.88489311E+02</pdfrwt>
<totfact> 0.12919472E+05</totfact>
</mgrwt>
</event>
<event>
 7    1  0.2787125E-009  0.9131485E+02  0.7818608E-02  0.1299698E+00
         -1   -1    0    0    0  501 -0.00000000000E+00  0.00000000000E+00  0.45038954456E+01  0.45038982655E+01  0.50400000000E-02 0.  1.
          1   -1    0    0  501    0  0.00000000000E+00 -0.00000000000E+00 -0.46284377298E+03  0.46284377301E+03  0.50400000000E-02 0. -1.
         23    2    1    2    0    0 -0.88817841970E-15  0.00000000000E+00 -0.45833987754E+03  0.46734767128E+03  0.91314853699E+02 0.  0.
    9000005    2    3    3    0    0  0.62806167143E+01  0.15337975903E+02 -0.44645418962E+03  0.44695234759E+03  0.13052123701E+02 0.  0.
         22    1    3    3    0    0 -0.62806167143E+01 -0.15337975903E+02 -0.11885687918E+02  0.20395323690E+02  0.00000000000E+00 0.  1.
         22    1    4    4    0    0  0.38069805817E+01 -0.14839777034E+01 -0.81872738649E+02  0.81974634033E+02  0.00000000000E+00 0. -1.
         22    1    4    4    0    0  0.24736361326E+01  0.16821953607E+02 -0.36458145097E+03  0.36497771355E+03  0.00000000000E+00 0. -1.
<mgrwt>
<rscale>  0 0.91314854E+02</rscale>
<asrwt>0</asrwt>
<pdfrwt beam="2">  1        1 0.71206697E-01 0.91314854E+02</pdfrwt>
<pdfrwt beam="1">  1       -1 0.69290758E-03 0.91314854E+02</pdfrwt>
<totfact> 0.13734661E+05</totfact>
</mgrwt>
</event>
<event>
 7    1  0.2787125E-009  0.9046300E+02  0.7818608E-02  0.1301734E+00
         -1   -1    0    0    0  501 -0.00000000000E+00  0.00000000000E+00  0.34276180597E+02  0.34276180967E+02  0.50400000000E-02 0.  1.
          1   -1    0    0  501    0  0.00000000000E+00 -0.00000000000E+00 -0.59688349136E+02  0.59688349348E+02  0.50400000000E-02 0. -1.
         23    2    1    2    0    0  0.88817841970E-15 -0.71054273576E-14 -0.25412168539E+02  0.93964530316E+02  0.90463001540E+02 0.  0.
    9000005    2    3    3    0    0  0.67155717474E+01 -0.43625726537E+02 -0.91200529253E+01  0.46914174834E+02  0.13017738480E+02 0.  0.
         22    1    3    3    0    0 -0.67155717474E+01  0.43625726537E+02 -0.16292115614E+02  0.47050355482E+02  0.00000000000E+00 0. -1.
         22    1    4    4    0    0  0.32019994173E+01 -0.26972475475E+02 -0.11925679369E+02  0.29664609587E+02  0.00000000000E+00 0. -1.
         22    1    4    4    0    0  0.35135723300E+01 -0.16653251062E+02  0.28056264437E+01  0.17249565247E+02  0.00000000000E+00 0. -1.
<mgrwt>
<rscale>  0 0.90463002E+02</rscale>
<asrwt>0</asrwt>
<pdfrwt beam="2">  1        1 0.91828230E-02 0.90463002E+02</pdfrwt>
<pdfrwt beam="1">  1       -1 0.52732586E-02 0.90463002E+02</pdfrwt>
<totfact> 0.98415697E+04</totfact>
</mgrwt>
</event>
<event>
 7    1  0.2787125E-009  0.8529804E+02  0.7818608E-02  0.1314655E+00
          1   -1    0    0  501    0  0.00000000000E+00  0.00000000000E+00  0.67458422516E+01  0.67458441344E+01  0.50400000000E-02 0. -1.
         -1   -1    0    0    0  501 -0.00000000000E+00 -0.00000000000E+00 -0.26963847396E+03  0.26963847401E+03  0.50400000000E-02 0.  1.
         23    2    1    2    0    0  0.00000000000E+00  0.00000000000E+00 -0.26289263171E+03  0.27638431814E+03  0.85298039297E+02 0.  0.
    9000005    2    3    3    0    0  0.36072274705E+02 -0.18682714690E+02 -0.17216319508E+03  0.17697564900E+03  0.54737342380E+01 0.  0.
         22    1    3    3    0    0 -0.36072274705E+02  0.18682714690E+02 -0.90729436625E+02  0.99408669144E+02  0.00000000000E+00 0. -1.
         22    1    4    4    0    0  0.35627312471E+01 -0.28030829585E+00 -0.17951307054E+02  0.18303580295E+02  0.00000000000E+00 0. -1.
         22    1    4    4    0    0  0.32509543457E+02 -0.18402406394E+02 -0.15421188803E+03  0.15867206870E+03  0.00000000000E+00 0. -1.
<mgrwt>
<rscale>  0 0.85298039E+02</rscale>
<asrwt>0</asrwt>
<pdfrwt beam="1">  1        1 0.10378222E-02 0.85298039E+02</pdfrwt>
<pdfrwt beam="2">  1       -1 0.41482834E-01 0.85298039E+02</pdfrwt>
<totfact> 0.75036168E+04</totfact>
</mgrwt>
</event>
<event>
 7    1  0.3538236E-009  0.9101566E+02  0.7818608E-02  0.1300411E+00
         -1   -1    0    0    0  501 -0.00000000000E+00  0.00000000000E+00  0.63620302787E+01  0.63620322750E+01  0.50400000000E-02 0.  1.
          1   -1    0    0  501    0  0.00000000000E+00 -0.00000000000E+00 -0.32551909512E+03  0.32551909516E+03  0.50400000000E-02 0. -1.
         23    2    1    2    0    0  0.00000000000E+00  0.00000000000E+00 -0.31915706484E+03  0.33188112743E+03  0.91015661887E+02 0.  0.
    9000005    2    3    3    0    0 -0.42051605210E+02  0.92301562203E+01 -0.20455940277E+03  0.20946316537E+03  0.13294175375E+02 0.  0.
         22    1    3    3    0    0  0.42051605210E+02 -0.92301562203E+01 -0.11459766206E+03  0.12241796206E+03  0.00000000000E+00 0.  1.
         22    1    4    4    0    0 -0.20688262419E+02  0.10310758265E+02 -0.89806768832E+02  0.92733875503E+02  0.00000000000E+00 0. -1.
         22    1    4    4    0    0 -0.21363342791E+02 -0.10806020448E+01 -0.11475263394E+03  0.11672928987E+03  0.00000000000E+00 0. -1.
<mgrwt>
<rscale>  0 0.91015662E+02</rscale>
<asrwt>0</asrwt>
<pdfrwt beam="2">  1        1 0.50079848E-01 0.91015662E+02</pdfrwt>
<pdfrwt beam="1">  1       -1 0.97877430E-03 0.91015662E+02</pdfrwt>
<totfact> 0.13071858E+05</totfact>
</mgrwt>
</event>
<event>
 7    1  0.2787125E-009  0.8975105E+02  0.7818608E-02  0.1303456E+00
         -1   -1    0    0    0  501 -0.00000000000E+00  0.00000000000E+00  0.16344308217E+02  0.16344308994E+02  0.50400000000E-02 0.  1.
          1   -1    0    0  501    0  0.00000000000E+00 -0.00000000000E+00 -0.12321186333E+03  0.12321186344E+03  0.50400000000E-02 0. -1.
         23    2    1    2    0    0  0.00000000000E+00  0.00000000000E+00 -0.10686755512E+03  0.13955617243E+03  0.89751049726E+02 0.  0.
    9000005    2    3    3    0    0  0.36442729546E+02 -0.43551982378E+01 -0.91435397484E+02  0.99741705491E+02  0.15522100782E+02 0.  0.
         22    1    3    3    0    0 -0.36442729546E+02  0.43551982378E+01 -0.15432157631E+02  0.39814466938E+02  0.00000000000E+00 0.  1.
         22    1    4    4    0    0  0.30617703053E+02 -0.98473794996E+00 -0.57557530057E+02  0.65201861287E+02  0.00000000000E+00 0.  1.
         22    1    4    4    0    0  0.58250264931E+01 -0.33704602878E+01 -0.33877867428E+02  0.34539844204E+02  0.00000000000E+00 0.  1.
<mgrwt>
<rscale>  0 0.89751050E+02</rscale>
<asrwt>0</asrwt>
<pdfrwt beam="2">  1        1 0.18955671E-01 0.89751050E+02</pdfrwt>
<pdfrwt beam="1">  1       -1 0.25145091E-02 0.89751050E+02</pdfrwt>
<totfact> 0.11295238E+05</totfact>
</mgrwt>
</event>
<event>
 7    1  0.2787125E-009  0.9157048E+02  0.7818608E-02  0.1299093E+00
          1   -1    0    0  501    0  0.00000000000E+00  0.00000000000E+00  0.46439519765E+01  0.46439547115E+01  0.50400000000E-02 0. -1.
         -1   -1    0    0    0  501 -0.00000000000E+00 -0.00000000000E+00 -0.45140162740E+03  0.45140162743E+03  0.50400000000E-02 0.  1.
         23    2    1    2    0    0  0.88817841970E-15  0.00000000000E+00 -0.44675767542E+03  0.45604558214E+03  0.91570477990E+02 0.  0.
    9000005    2    3    3    0    0  0.58857406068E+01 -0.17327386228E+02 -0.43237917229E+03  0.43277281676E+03  0.23837035652E+01 0.  0.
         22    1    3    3    0    0 -0.58857406068E+01  0.17327386228E+02 -0.14378503136E+02  0.23272765380E+02  0.00000000000E+00 0. -1.
         22    1    4    4    0    0  0.18839707988E+01 -0.45097245426E+01 -0.14039903474E+03  0.14048407709E+03  0.00000000000E+00 0.  1.
         22    1    4    4    0    0  0.40017698081E+01 -0.12817661685E+02 -0.29198013755E+03  0.29228873967E+03  0.00000000000E+00 0.  1.
<mgrwt>
<rscale>  0 0.91570478E+02</rscale>
<asrwt>0</asrwt>
<pdfrwt beam="1">  1        1 0.71445472E-03 0.91570478E+02</pdfrwt>
<pdfrwt beam="2">  1       -1 0.69446370E-01 0.91570478E+02</pdfrwt>
<totfact> 0.49401853E+04</totfact>
</mgrwt>
</event>
<event>
 7    1  0.2787125E-009  0.9042598E+02  0.7818608E-02  0.1301823E+00
          1   -1    0    0  501    0  0.00000000000E+00  0.00000000000E+00  0.37769731025E+02  0.37769731361E+02  0.50400000000E-02 0. -1.
         -1   -1    0    0    0  501 -0.00000000000E+00 -0.00000000000E+00 -0.54123089786E+02  0.54123090021E+02  0.50400000000E-02 0.  1.
         23    2    1    2    0    0  0.00000000000E+00  0.00000000000E+00 -0.16353358761E+02  0.91892821382E+02  0.90425982321E+02 0.  0.
    9000005    2    3    3    0    0  0.26803531150E+02 -0.19664507845E+02  0.22600808672E+02  0.40681989410E+02  0.62534437556E+01 0.  0.
         22    1    3    3    0    0 -0.26803531150E+02  0.19664507845E+02 -0.38954167433E+02  0.51210831972E+02  0.00000000000E+00 0.  1.
         22    1    4    4    0    0  0.15174235246E+02 -0.10823957941E+02  0.89023930589E+01  0.20655945464E+02  0.00000000000E+00 0. -1.
         22    1    4    4    0    0  0.11629295903E+02 -0.88405499042E+01  0.13698415613E+02  0.20026043946E+02  0.00000000000E+00 0. -1.
<mgrwt>
<rscale>  0 0.90425982E+02</rscale>
<asrwt>0</asrwt>
<pdfrwt beam="1">  1        1 0.58107278E-02 0.90425982E+02</pdfrwt>
<pdfrwt beam="2">  1       -1 0.83266293E-02 0.90425982E+02</pdfrwt>
<totfact> 0.92001023E+04</totfact>
</mgrwt>
</event>
<event>
 7    1  0.2787125E-009  0.9341307E+02  0.7818608E-02  0.1294791E+00
         -1   -1    0    0    0  501 -0.00000000000E+00  0.00000000000E+00  0.97637809870E+02  0.97637810000E+02  0.50400000000E-02 0.  1.
          1   -1    0    0  501    0  0.00000000000E+00 -0.00000000000E+00 -0.22342784788E+02  0.22342785357E+02  0.50400000000E-02 0. -1.
         23    2    1    2    0    0  0.00000000000E+00  0.88817841970E-15  0.75295025081E+02  0.11998059536E+03  0.93413074353E+02 0.  0.
    9000005    2    3    3    0    0  0.34641676809E+02 -0.54350193863E+01  0.83079380930E+00  0.37673202330E+02  0.13747536054E+02 0.  0.
         22    1    3    3    0    0 -0.34641676809E+02  0.54350193863E+01  0.74464231272E+02  0.82307393026E+02  0.00000000000E+00 0.  1.
         22    1    4    4    0    0  0.19923558957E+02  0.34699180008E+01 -0.16599154650E+01  0.20291472391E+02  0.00000000000E+00 0. -1.
         22    1    4    4    0    0  0.14718117852E+02 -0.89049373871E+01  0.24907092742E+01  0.17381729939E+02  0.00000000000E+00 0. -1.
<mgrwt>
<rscale>  0 0.93413074E+02</rscale>
<asrwt>0</asrwt>
<pdfrwt beam="2">  1        1 0.34373516E-02 0.93413074E+02</pdfrwt>
<pdfrwt beam="1">  1       -1 0.15021202E-01 0.93413074E+02</pdfrwt>
<totfact> 0.76783576E+04</totfact>
</mgrwt>
</event>
<event>
 7    1  0.2787125E-009  0.9344992E+02  0.7818608E-02  0.1294706E+00
         -1   -1    0    0    0  501 -0.00000000000E+00  0.00000000000E+00  0.65049165059E+03  0.65049165061E+03  0.50400000000E-02 0.  1.
          1   -1    0    0  501    0  0.00000000000E+00 -0.00000000000E+00 -0.33562626532E+01  0.33562664375E+01  0.50400000000E-02 0. -1.
         23    2    1    2    0    0 -0.35527136788E-14  0.00000000000E+00  0.64713538794E+03  0.65384791705E+03  0.93449924059E+02 0.  0.
    9000005    2    3    3    0    0  0.24066082527E+02 -0.25870518635E+02  0.53376936319E+03  0.53510316715E+03  0.13311887351E+02 0.  0.
         22    1    3    3    0    0 -0.24066082527E+02  0.25870518635E+02  0.11336602475E+03  0.11874474991E+03  0.00000000000E+00 0. -1.
         22    1    4    4    0    0  0.15418622567E+02 -0.18266033771E+02  0.26145221547E+03  0.26254264965E+03  0.00000000000E+00 0.  1.
         22    1    4    4    0    0  0.86474599595E+01 -0.76044848641E+01  0.27231714772E+03  0.27256051750E+03  0.00000000000E+00 0.  1.
<mgrwt>
<rscale>  0 0.93449924E+02</rscale>
<asrwt>0</asrwt>
<pdfrwt beam="2">  1        1 0.51634833E-03 0.93449924E+02</pdfrwt>
<pdfrwt beam="1">  1       -1 0.10007565E+00 0.93449924E+02</pdfrwt>
<totfact> 0.36682843E+04</totfact>
</mgrwt>
</event>
<event>
 7    1  0.2787125E-009  0.1136293E+03  0.7818608E-02  0.1253993E+00
          1   -1    0    0  501    0  0.00000000000E+00  0.00000000000E+00  0.20365329979E+02  0.20365330602E+02  0.50400000000E-02 0. -1.
         -1   -1    0    0    0  501 -0.00000000000E+00 -0.00000000000E+00 -0.15849985642E+03  0.15849985650E+03  0.50400000000E-02 0.  1.
         23    2    1    2    0    0 -0.17763568394E-14  0.00000000000E+00 -0.13813452644E+03  0.17886518710E+03  0.11362925575E+03 0.  0.
    9000005    2    3    3    0    0 -0.14308372129E+02  0.52157663350E+02 -0.92743090608E+02  0.10825687452E+03  0.13896714199E+02 0.  0.
         22    1    3    3    0    0  0.14308372129E+02 -0.52157663350E+02 -0.45391435833E+02  0.70608312585E+02  0.00000000000E+00 0. -1.
         22    1    4    4    0    0 -0.14624123456E+02  0.42448212455E+02 -0.66169285093E+02  0.79963054076E+02  0.00000000000E+00 0.  1.
         22    1    4    4    0    0  0.31575132744E+00  0.97094508956E+01 -0.26573805515E+02  0.28293820441E+02  0.00000000000E+00 0.  1.
<mgrwt>
<rscale>  0 0.11362926E+03</rscale>
<asrwt>0</asrwt>
<pdfrwt beam="1">  1        1 0.31331278E-02 0.11362926E+03</pdfrwt>
<pdfrwt beam="2">  1       -1 0.24384593E-01 0.11362926E+03</pdfrwt>
<totfact> 0.41539376E+04</totfact>
</mgrwt>
</event>
<event>
 7    1  0.2787125E-009  0.8959335E+02  0.7818608E-02  0.1303839E+00
         -1   -1    0    0    0  501 -0.00000000000E+00  0.00000000000E+00  0.28525616092E+03  0.28525616097E+03  0.50400000000E-02 0.  1.
          1   -1    0    0  501    0  0.00000000000E+00 -0.00000000000E+00 -0.70348769608E+01  0.70348787662E+01  0.50400000000E-02 0. -1.
         23    2    1    2    0    0  0.00000000000E+00  0.00000000000E+00  0.27822128396E+03  0.29229103974E+03  0.89593353878E+02 0.  0.
    9000005    2    3    3    0    0 -0.18427431732E+02  0.31528637616E+02  0.22365543676E+03  0.22663240046E+03  0.26201750003E+01 0.  0.
         22    1    3    3    0    0  0.18427431732E+02 -0.31528637616E+02  0.54565847207E+02  0.65658639276E+02  0.00000000000E+00 0. -1.
         22    1    4    4    0    0 -0.13033418765E+02  0.22352582193E+02  0.16560121299E+03  0.16761047008E+03  0.00000000000E+00 0. -1.
         22    1    4    4    0    0 -0.53940129662E+01  0.91760554234E+01  0.58054223764E+02  0.59021930380E+02  0.00000000000E+00 0. -1.
<mgrwt>
<rscale>  0 0.89593354E+02</rscale>
<asrwt>0</asrwt>
<pdfrwt beam="2">  1        1 0.10822890E-02 0.89593354E+02</pdfrwt>
<pdfrwt beam="1">  1       -1 0.43885558E-01 0.89593354E+02</pdfrwt>
<totfact> 0.64667151E+04</totfact>
</mgrwt>
</event>
<event>
 7    1  0.2787125E-009  0.9022506E+02  0.7818608E-02  0.1302308E+00
          1   -1    0    0  501    0  0.00000000000E+00  0.00000000000E+00  0.73565322560E+02  0.73565322733E+02  0.50400000000E-02 0. -1.
         -1   -1    0    0    0  501 -0.00000000000E+00 -0.00000000000E+00 -0.27664396991E+02  0.27664397450E+02  0.50400000000E-02 0.  1.
         23    2    1    2    0    0  0.00000000000E+00  0.00000000000E+00  0.45900925569E+02  0.10122972018E+03  0.90225059049E+02 0.  0.
    9000005    2    3    3    0    0  0.20821092811E+02 -0.87296696957E+01  0.66697277177E+02  0.70534227370E+02  0.41018787194E+01 0.  0.
         22    1    3    3    0    0 -0.20821092811E+02  0.87296696957E+01 -0.20796351608E+02  0.30695492813E+02  0.00000000000E+00 0.  1.
         22    1    4    4    0    0  0.64744950626E+01 -0.45261214281E+01  0.26233110260E+02  0.27396732203E+02  0.00000000000E+00 0. -1.
         22    1    4    4    0    0  0.14346597748E+02 -0.42035482675E+01  0.40464166918E+02  0.43137495168E+02  0.00000000000E+00 0. -1.
<mgrwt>
<rscale>  0 0.90225059E+02</rscale>
<asrwt>0</asrwt>
<pdfrwt beam="1">  1        1 0.11317742E-01 0.90225059E+02</pdfrwt>
<pdfrwt beam="2">  1       -1 0.42560611E-02 0.90225059E+02</pdfrwt>
<totfact> 0.10233962E+05</totfact>
</mgrwt>
</event>
<event>
 7    1  0.2787125E-009  0.9866770E+02  0.7818608E-02  0.1283123E+00
         -1   -1    0    0    0  501 -0.00000000000E+00  0.00000000000E+00  0.55029482432E+01  0.55029505512E+01  0.50400000000E-02 0.  1.
          1   -1    0    0  501    0  0.00000000000E+00 -0.00000000000E+00 -0.44227718436E+03  0.44227718439E+03  0.50400000000E-02 0. -1.
         23    2    1    2    0    0  0.00000000000E+00  0.00000000000E+00 -0.43677423612E+03  0.44778013494E+03  0.98667704501E+02 0.  0.
    9000005    2    3    3    0    0 -0.36896378602E+02  0.13079730443E+02 -0.35460829719E+03  0.35676550083E+03  0.14683474640E+01 0.  0.
         22    1    3    3    0    0  0.36896378602E+02 -0.13079730443E+02 -0.82165938927E+02  0.91014634110E+02  0.00000000000E+00 0.  1.
         22    1    4    4    0    0 -0.19444689423E+01  0.72689786178E+00 -0.22012085050E+02  0.22109754142E+02  0.00000000000E+00 0. -1.
         22    1    4    4    0    0 -0.34951909660E+02  0.12352832581E+02 -0.33259621214E+03  0.33465574669E+03  0.00000000000E+00 0. -1.
<mgrwt>
<rscale>  0 0.98667705E+02</rscale>
<asrwt>0</asrwt>
<pdfrwt beam="2">  1        1 0.68042616E-01 0.98667705E+02</pdfrwt>
<pdfrwt beam="1">  1       -1 0.84660795E-03 0.98667705E+02</pdfrwt>
<totfact> 0.11102355E+05</totfact>
</mgrwt>
</event>
<event>
 7    1  0.2787125E-009  0.9137911E+02  0.7818608E-02  0.1299546E+00
          1   -1    0    0  501    0  0.00000000000E+00  0.00000000000E+00  0.15915545113E+02  0.15915545911E+02  0.50400000000E-02 0. -1.
         -1   -1    0    0    0  501 -0.00000000000E+00 -0.00000000000E+00 -0.13116328843E+03  0.13116328853E+03  0.50400000000E-02 0.  1.
         23    2    1    2    0    0  0.00000000000E+00  0.00000000000E+00 -0.11524774332E+03  0.14707883444E+03  0.91379107023E+02 0.  0.
    9000005    2    3    3    0    0 -0.19339958224E+02 -0.14438940688E+02  0.78082010571E+00  0.28566621894E+02  0.15261887632E+02 0.  0.
         22    1    3    3    0    0  0.19339958224E+02  0.14438940688E+02 -0.11602856343E+03  0.11851221255E+03  0.00000000000E+00 0.  1.
         22    1    4    4    0    0 -0.66536192633E+01 -0.15104089059E+01 -0.61374152347E+01  0.91771373602E+01  0.00000000000E+00 0. -1.
         22    1    4    4    0    0 -0.12686338960E+02 -0.12928531782E+02  0.69182353405E+01  0.19389484534E+02  0.00000000000E+00 0. -1.
<mgrwt>
<rscale>  0 0.91379107E+02</rscale>
<asrwt>0</asrwt>
<pdfrwt beam="1">  1        1 0.24485456E-02 0.91379107E+02</pdfrwt>
<pdfrwt beam="2">  1       -1 0.20178967E-01 0.91379107E+02</pdfrwt>
<totfact> 0.76635531E+04</totfact>
</mgrwt>
</event>
<event>
 7    1  0.2787125E-009  0.9140042E+02  0.7818608E-02  0.1299495E+00
          1   -1    0    0  501    0  0.00000000000E+00  0.00000000000E+00  0.10012782155E+04  0.10012782155E+04  0.50400000000E-02 0. -1.
         -1   -1    0    0    0  501 -0.00000000000E+00 -0.00000000000E+00 -0.20858400921E+01  0.20858461812E+01  0.50400000000E-02 0.  1.
         23    2    1    2    0    0 -0.35527136788E-14  0.00000000000E+00  0.99919237539E+03  0.10033640617E+04  0.91400422458E+02 0.  0.
    9000005    2    3    3    0    0 -0.19819374271E+02  0.10903867997E+02  0.93493641828E+03  0.93524262629E+03  0.78078092599E+01 0.  0.
         22    1    3    3    0    0  0.19819374271E+02 -0.10903867997E+02  0.64255957111E+02  0.68121435379E+02  0.00000000000E+00 0.  1.
         22    1    4    4    0    0 -0.13185719296E+02  0.84746809193E+01  0.76324900499E+03  0.76340993380E+03  0.00000000000E+00 0. -1.
         22    1    4    4    0    0 -0.66336549746E+01  0.24291870781E+01  0.17168741329E+03  0.17183269249E+03  0.00000000000E+00 0. -1.
<mgrwt>
<rscale>  0 0.91400422E+02</rscale>
<asrwt>0</asrwt>
<pdfrwt beam="1">  1        1 0.15404306E+00 0.91400422E+02</pdfrwt>
<pdfrwt beam="2">  1       -1 0.32089840E-03 0.91400422E+02</pdfrwt>
<totfact> 0.13509133E+05</totfact>
</mgrwt>
</event>
<event>
 7    1  0.2787125E-009  0.9273093E+02  0.7818608E-02  0.1296370E+00
         -1   -1    0    0    0  501 -0.00000000000E+00  0.00000000000E+00  0.24840474390E+01  0.24840525519E+01  0.50400000000E-02 0.  1.
          1   -1    0    0  501    0  0.00000000000E+00 -0.00000000000E+00 -0.86542385873E+03  0.86542385874E+03  0.50400000000E-02 0. -1.
         23    2    1    2    0    0  0.17763568394E-14  0.00000000000E+00 -0.86293981129E+03  0.86790791129E+03  0.92730925695E+02 0.  0.
    9000005    2    3    3    0    0  0.15368135489E+02 -0.17780164157E+02 -0.80501566197E+03  0.80539774492E+03  0.79371076935E+01 0.  0.
         22    1    3    3    0    0 -0.15368135489E+02  0.17780164157E+02 -0.57924149313E+02  0.62510166370E+02  0.00000000000E+00 0.  1.
         22    1    4    4    0    0  0.12727650921E+02 -0.90951996955E+01 -0.47664277227E+03  0.47689941090E+03  0.00000000000E+00 0.  1.
         22    1    4    4    0    0  0.26404845680E+01 -0.86849644618E+01 -0.32837288970E+03  0.32849833403E+03  0.00000000000E+00 0.  1.
<mgrwt>
<rscale>  0 0.92730926E+02</rscale>
<asrwt>0</asrwt>
<pdfrwt beam="2">  1        1 0.13314189E+00 0.92730926E+02</pdfrwt>
<pdfrwt beam="1">  1       -1 0.38216223E-03 0.92730926E+02</pdfrwt>
<totfact> 0.13391314E+05</totfact>
</mgrwt>
</event>
<event>
 7    1  0.2787125E-009  0.8983081E+02  0.7818608E-02  0.1303262E+00
         -1   -1    0    0    0  501 -0.00000000000E+00  0.00000000000E+00  0.10697429326E+04  0.10697429326E+04  0.50400000000E-02 0.  1.
          1   -1    0    0  501    0  0.00000000000E+00 -0.00000000000E+00 -0.18858641708E+01  0.18858709055E+01  0.50400000000E-02 0. -1.
         23    2    1    2    0    0  0.17763568394E-14  0.00000000000E+00  0.10678570685E+04  0.10716288035E+04  0.89830807266E+02 0.  0.
    9000005    2    3    3    0    0  0.10438621670E+02  0.26577718539E+02  0.94539004816E+03  0.94587702024E+03  0.10278827981E+02 0.  0.
         22    1    3    3    0    0 -0.10438621670E+02 -0.26577718539E+02  0.12246702030E+03  0.12575178331E+03  0.00000000000E+00 0. -1.
         22    1    4    4    0    0  0.10631719440E+02  0.14112685930E+02  0.49816960273E+03  0.49848285271E+03  0.00000000000E+00 0. -1.
         22    1    4    4    0    0 -0.19309776965E+00  0.12465032610E+02  0.44722044543E+03  0.44739416753E+03  0.00000000000E+00 0. -1.
<mgrwt>
<rscale>  0 0.89830807E+02</rscale>
<asrwt>0</asrwt>
<pdfrwt beam="2">  1        1 0.29013326E-03 0.89830807E+02</pdfrwt>
<pdfrwt beam="1">  1       -1 0.16457595E+00 0.89830807E+02</pdfrwt>
<totfact> 0.24503870E+04</totfact>
</mgrwt>
</event>
<event>
 7    1  0.2787125E-009  0.9096012E+02  0.7818608E-02  0.1300543E+00
          1   -1    0    0  501    0  0.00000000000E+00  0.00000000000E+00  0.12721506006E+04  0.12721506006E+04  0.50400000000E-02 0. -1.
         -1   -1    0    0    0  501 -0.00000000000E+00 -0.00000000000E+00 -0.16259323494E+01  0.16259401608E+01  0.50400000000E-02 0.  1.
         23    2    1    2    0    0  0.00000000000E+00  0.00000000000E+00  0.12705246682E+04  0.12737765408E+04  0.90960118649E+02 0.  0.
    9000005    2    3    3    0    0 -0.43663888856E+01 -0.10346832675E+02  0.12518200604E+04  0.12519594683E+04  0.14930646770E+02 0.  0.
         22    1    3    3    0    0  0.43663888856E+01  0.10346832675E+02  0.18704607786E+02  0.21817072460E+02  0.00000000000E+00 0.  1.
         22    1    4    4    0    0  0.23430674008E+01 -0.21218743744E+01  0.54038032809E+02  0.54130410174E+02  0.00000000000E+00 0.  1.
         22    1    4    4    0    0 -0.67094562864E+01 -0.82249583005E+01  0.11977820276E+04  0.11978290581E+04  0.00000000000E+00 0.  1.
<mgrwt>
<rscale>  0 0.90960119E+02</rscale>
<asrwt>0</asrwt>
<pdfrwt beam="1">  1        1 0.19571493E+00 0.90960119E+02</pdfrwt>
<pdfrwt beam="2">  1       -1 0.25014474E-03 0.90960119E+02</pdfrwt>
<totfact> 0.12435177E+05</totfact>
</mgrwt>
</event>
<event>
 7    1  0.2787125E-009  0.9062787E+02  0.7818608E-02  0.1301338E+00
          1   -1    0    0  501    0  0.00000000000E+00  0.00000000000E+00  0.16021137854E+02  0.16021138647E+02  0.50400000000E-02 0. -1.
         -1   -1    0    0    0  501 -0.00000000000E+00 -0.00000000000E+00 -0.12816520619E+03  0.12816520629E+03  0.50400000000E-02 0.  1.
         23    2    1    2    0    0  0.00000000000E+00  0.00000000000E+00 -0.11214406834E+03  0.14418634494E+03  0.90627865490E+02 0.  0.
    9000005    2    3    3    0    0  0.12455713068E+01  0.44277957835E+02 -0.65322010085E+02  0.79731755210E+02  0.11318073578E+02 0.  0.
         22    1    3    3    0    0 -0.12455713068E+01 -0.44277957835E+02 -0.46822058254E+02  0.64454589728E+02  0.00000000000E+00 0. -1.
         22    1    4    4    0    0  0.23609501254E+01  0.76806132240E+01 -0.60322970323E+01  0.10047612277E+02  0.00000000000E+00 0. -1.
         22    1    4    4    0    0 -0.11153788186E+01  0.36597344611E+02 -0.59289713052E+02  0.69684142933E+02  0.00000000000E+00 0. -1.
<mgrwt>
<rscale>  0 0.90627865E+02</rscale>
<asrwt>0</asrwt>
<pdfrwt beam="1">  1        1 0.24647906E-02 0.90627865E+02</pdfrwt>
<pdfrwt beam="2">  1       -1 0.19717723E-01 0.90627865E+02</pdfrwt>
<totfact> 0.78679213E+04</totfact>
</mgrwt>
</event>
<event>
 7    1  0.2787125E-009  0.9150518E+02  0.7818608E-02  0.1299247E+00
         -1   -1    0    0    0  501 -0.00000000000E+00  0.00000000000E+00  0.34059106363E+01  0.34059143653E+01  0.50400000000E-02 0.  1.
          1   -1    0    0  501    0  0.00000000000E+00 -0.00000000000E+00 -0.61460752605E+03  0.61460752607E+03  0.50400000000E-02 0. -1.
         23    2    1    2    0    0  0.17763568394E-14  0.00000000000E+00 -0.61120161541E+03  0.61801344044E+03  0.91505179499E+02 0.  0.
    9000005    2    3    3    0    0 -0.13358562418E+02 -0.20272952912E+01 -0.60039031555E+03  0.60070895198E+03  0.14147539126E+02 0.  0.
         22    1    3    3    0    0  0.13358562418E+02  0.20272952912E+01 -0.10811299863E+02  0.17304488458E+02  0.00000000000E+00 0.  1.
         22    1    4    4    0    0  0.43435195078E+00 -0.86848490378E+00 -0.28985329924E+01  0.30568645951E+01  0.00000000000E+00 0. -1.
         22    1    4    4    0    0 -0.13792914368E+02 -0.11588103874E+01 -0.59749178256E+03  0.59765208738E+03  0.00000000000E+00 0. -1.
<mgrwt>
<rscale>  0 0.91505179E+02</rscale>
<asrwt>0</asrwt>
<pdfrwt beam="2">  1        1 0.94554916E-01 0.91505179E+02</pdfrwt>
<pdfrwt beam="1">  1       -1 0.52398703E-03 0.91505179E+02</pdfrwt>
<totfact> 0.14043206E+05</totfact>
</mgrwt>
</event>
<event>
 7    1  0.2787125E-009  0.9149516E+02  0.7818608E-02  0.1299271E+00
         -1   -1    0    0    0  501 -0.00000000000E+00  0.00000000000E+00  0.19622743923E+03  0.19622743930E+03  0.50400000000E-02 0.  1.
          1   -1    0    0  501    0  0.00000000000E+00 -0.00000000000E+00 -0.10665382708E+02  0.10665383899E+02  0.50400000000E-02 0. -1.
         23    2    1    2    0    0  0.00000000000E+00 -0.35527136788E-14  0.18556205652E+03  0.20689282320E+03  0.91495155436E+02 0.  0.
    9000005    2    3    3    0    0  0.37176052067E+02  0.25674890651E+02  0.98791257994E+02  0.10906424693E+03  0.96973421267E+01 0.  0.
         22    1    3    3    0    0 -0.37176052067E+02 -0.25674890651E+02  0.86770798530E+02  0.97828576269E+02  0.00000000000E+00 0.  1.
         22    1    4    4    0    0  0.18422912804E+02  0.11389383418E+02  0.58528236612E+02  0.62407341329E+02  0.00000000000E+00 0.  1.
         22    1    4    4    0    0  0.18753139263E+02  0.14285507233E+02  0.40263021383E+02  0.46656905598E+02  0.00000000000E+00 0.  1.
<mgrwt>
<rscale>  0 0.91495155E+02</rscale>
<asrwt>0</asrwt>
<pdfrwt beam="2">  1        1 0.16408284E-02 0.91495155E+02</pdfrwt>
<pdfrwt beam="1">  1       -1 0.30188834E-01 0.91495155E+02</pdfrwt>
<totfact> 0.69169786E+04</totfact>
</mgrwt>
</event>
<event>
 7    1  0.2787125E-009  0.9150885E+02  0.7818608E-02  0.1299238E+00
         -1   -1    0    0    0  501 -0.00000000000E+00  0.00000000000E+00  0.70525946976E+02  0.70525947156E+02  0.50400000000E-02 0.  1.
          1   -1    0    0  501    0  0.00000000000E+00 -0.00000000000E+00 -0.29683646513E+02  0.29683646941E+02  0.50400000000E-02 0. -1.
         23    2    1    2    0    0  0.00000000000E+00  0.00000000000E+00  0.40842300463E+02  0.10020959410E+03  0.91508847889E+02 0.  0.
    9000005    2    3    3    0    0  0.39722394334E+02  0.45649482526E+01  0.44410294040E+02  0.60066874430E+02  0.60866922820E+01 0.  0.
         22    1    3    3    0    0 -0.39722394334E+02 -0.45649482526E+01 -0.35679935765E+01  0.40142719667E+02  0.00000000000E+00 0. -1.
         22    1    4    4    0    0  0.35447436983E+02  0.22122424528E+01  0.38045838014E+02  0.52047099780E+02  0.00000000000E+00 0. -1.
         22    1    4    4    0    0  0.42749573508E+01  0.23527057998E+01  0.63644560256E+01  0.80197746498E+01  0.00000000000E+00 0. -1.
<mgrwt>
<rscale>  0 0.91508848E+02</rscale>
<asrwt>0</asrwt>
<pdfrwt beam="2">  1        1 0.45667149E-02 0.91508848E+02</pdfrwt>
<pdfrwt beam="1">  1       -1 0.10850146E-01 0.91508848E+02</pdfrwt>
<totfact> 0.85636146E+04</totfact>
</mgrwt>
</event>
<event>
 7    1  0.2787125E-009  0.9126581E+02  0.7818608E-02  0.1299815E+00
         -1   -1    0    0    0  501 -0.00000000000E+00  0.00000000000E+00  0.44893900654E+01  0.44893928944E+01  0.50400000000E-02 0.  1.
          1   -1    0    0  501    0  0.00000000000E+00 -0.00000000000E+00 -0.46384056299E+03  0.46384056302E+03  0.50400000000E-02 0. -1.
         23    2    1    2    0    0  0.88817841970E-15 -0.35527136788E-14 -0.45935117293E+03  0.46832995592E+03  0.91265807054E+02 0.  0.
    9000005    2    3    3    0    0 -0.75221574901E+01  0.17721705093E+02 -0.44194802540E+03  0.44237786103E+03  0.30778395726E+01 0.  0.
         22    1    3    3    0    0  0.75221574901E+01 -0.17721705093E+02 -0.17403147532E+02  0.25952094881E+02  0.00000000000E+00 0.  1.
         22    1    4    4    0    0 -0.38292676433E+01  0.11281636153E+02 -0.29888205169E+03  0.29911940664E+03  0.00000000000E+00 0. -1.
         22    1    4    4    0    0 -0.36928898468E+01  0.64400689408E+01 -0.14306597370E+03  0.14325845439E+03  0.00000000000E+00 0. -1.
<mgrwt>
<rscale>  0 0.91265807E+02</rscale>
<asrwt>0</asrwt>
<pdfrwt beam="2">  1        1 0.71360049E-01 0.91265807E+02</pdfrwt>
<pdfrwt beam="1">  1       -1 0.69067598E-03 0.91265807E+02</pdfrwt>
<totfact> 0.13758294E+05</totfact>
</mgrwt>
</event>
<event>
 7    1  0.2787125E-009  0.9170270E+02  0.7818608E-02  0.1298780E+00
          1   -1    0    0  501    0  0.00000000000E+00  0.00000000000E+00  0.19418835543E+04  0.19418835543E+04  0.50400000000E-02 0. -1.
         -1   -1    0    0    0  501 -0.00000000000E+00 -0.00000000000E+00 -0.10826265533E+01  0.10826382847E+01  0.50400000000E-02 0.  1.
         23    2    1    2    0    0  0.00000000000E+00 -0.88817841970E-15  0.19408009277E+04  0.19429661926E+04  0.91702695764E+02 0.  0.
    9000005    2    3    3    0    0 -0.18750038238E+02  0.50892050710E+01  0.18473392660E+04  0.18475065354E+04  0.15510336894E+02 0.  0.
         22    1    3    3    0    0  0.18750038238E+02 -0.50892050710E+01  0.93461661733E+02  0.95459657218E+02  0.00000000000E+00 0.  1.
         22    1    4    4    0    0 -0.56213846842E+01 -0.46705690871E+01  0.34023149073E+03  0.34030997850E+03  0.00000000000E+00 0. -1.
         22    1    4    4    0    0 -0.13128653554E+02  0.97597741581E+01  0.15071077753E+04  0.15071965569E+04  0.00000000000E+00 0. -1.
<mgrwt>
<rscale>  0 0.91702696E+02</rscale>
<asrwt>0</asrwt>
<pdfrwt beam="1">  1        1 0.29874660E+00 0.91702696E+02</pdfrwt>
<pdfrwt beam="2">  1       -1 0.16656146E-03 0.91702696E+02</pdfrwt>
<totfact> 0.81988380E+04</totfact>
</mgrwt>
</event>
<event>
 7    1  0.2787125E-009  0.9179160E+02  0.7818608E-02  0.1298570E+00
         -1   -1    0    0    0  501 -0.00000000000E+00  0.00000000000E+00  0.19473934510E+01  0.19473999729E+01  0.50400000000E-02 0.  1.
          1   -1    0    0  501    0  0.00000000000E+00 -0.00000000000E+00 -0.10816618095E+04  0.10816618096E+04  0.50400000000E-02 0. -1.
         23    2    1    2    0    0 -0.71054273576E-14 -0.17763568394E-14 -0.10797144161E+04  0.10836092095E+04  0.91791604497E+02 0.  0.
    9000005    2    3    3    0    0 -0.33932678909E+02 -0.14049537469E+02 -0.85985719181E+03  0.86070560868E+03  0.10532725564E+02 0.  0.
         22    1    3    3    0    0  0.33932678909E+02  0.14049537469E+02 -0.21985722428E+03  0.22290360084E+03  0.00000000000E+00 0.  1.
         22    1    4    4    0    0 -0.33406309334E+01 -0.38131423802E+01 -0.19544573375E+03  0.19551146951E+03  0.00000000000E+00 0. -1.
         22    1    4    4    0    0 -0.30592047976E+02 -0.10236395088E+02 -0.66441145806E+03  0.66519413917E+03  0.00000000000E+00 0. -1.
<mgrwt>
<rscale>  0 0.91791604E+02</rscale>
<asrwt>0</asrwt>
<pdfrwt beam="2">  1        1 0.16640903E+00 0.91791604E+02</pdfrwt>
<pdfrwt beam="1">  1       -1 0.29960036E-03 0.91791604E+02</pdfrwt>
<totfact> 0.13045437E+05</totfact>
</mgrwt>
</event>
<event>
 7    1  0.2787125E-009  0.8845159E+02  0.7818608E-02  0.1306645E+00
          1   -1    0    0  501    0  0.00000000000E+00  0.00000000000E+00  0.65787871032E+03  0.65787871034E+03  0.50400000000E-02 0. -1.
         -1   -1    0    0    0  501 -0.00000000000E+00 -0.00000000000E+00 -0.29730702967E+01  0.29730745686E+01  0.50400000000E-02 0.  1.
         23    2    1    2    0    0 -0.88817841970E-15  0.00000000000E+00  0.65490564003E+03  0.66085178491E+03  0.88451592873E+02 0.  0.
    9000005    2    3    3    0    0 -0.71796299070E+01 -0.95953383878E+01  0.64548813352E+03  0.64561016318E+03  0.37329174803E+01 0.  0.
         22    1    3    3    0    0  0.71796299070E+01  0.95953383878E+01  0.94175065042E+01  0.15241621736E+02  0.00000000000E+00 0.  1.
         22    1    4    4    0    0 -0.33111114024E+01 -0.72257079983E+01  0.44209273940E+03  0.44216418280E+03  0.00000000000E+00 0. -1.
         22    1    4    4    0    0 -0.38685185046E+01 -0.23696303895E+01  0.20339539412E+03  0.20344598038E+03  0.00000000000E+00 0. -1.
<mgrwt>
<rscale>  0 0.88451593E+02</rscale>
<asrwt>0</asrwt>
<pdfrwt beam="1">  1        1 0.10121228E+00 0.88451593E+02</pdfrwt>
<pdfrwt beam="2">  1       -1 0.45739501E-03 0.88451593E+02</pdfrwt>
<totfact> 0.15398201E+05</totfact>
</mgrwt>
</event>
<event>
 7    1  0.2787125E-009  0.9702099E+02  0.7818608E-02  0.1286688E+00
          1   -1    0    0  501    0  0.00000000000E+00  0.00000000000E+00  0.69927896171E+02  0.69927896353E+02  0.50400000000E-02 0. -1.
         -1   -1    0    0    0  501 -0.00000000000E+00 -0.00000000000E+00 -0.33652779155E+02  0.33652779533E+02  0.50400000000E-02 0.  1.
         23    2    1    2    0    0 -0.17763568394E-14  0.17763568394E-14  0.36275117016E+02  0.10358067589E+03  0.97020988978E+02 0.  0.
    9000005    2    3    3    0    0  0.84971605740E+01 -0.12103011279E+02 -0.30543319582E+02  0.35145391936E+02  0.91443744121E+01 0.  0.
         22    1    3    3    0    0 -0.84971605740E+01  0.12103011279E+02  0.66818436598E+02  0.68435283949E+02  0.00000000000E+00 0. -1.
         22    1    4    4    0    0  0.27415095618E+01 -0.85185948602E+00 -0.10471393684E+01  0.30558206947E+01  0.00000000000E+00 0.  1.
         22    1    4    4    0    0  0.57556510123E+01 -0.11251151793E+02 -0.29496180214E+02  0.32089571241E+02  0.00000000000E+00 0.  1.
<mgrwt>
<rscale>  0 0.97020989E+02</rscale>
<asrwt>0</asrwt>
<pdfrwt beam="1">  1        1 0.10758138E-01 0.97020989E+02</pdfrwt>
<pdfrwt beam="2">  1       -1 0.51773507E-02 0.97020989E+02</pdfrwt>
<totfact> 0.83041571E+04</totfact>
</mgrwt>
</event>
<event>
 7    1  0.2787125E-009  0.9264013E+02  0.7818608E-02  0.1296581E+00
         -1   -1    0    0    0  501 -0.00000000000E+00  0.00000000000E+00  0.10239360363E+04  0.10239360363E+04  0.50400000000E-02 0.  1.
          1   -1    0    0  501    0  0.00000000000E+00 -0.00000000000E+00 -0.20953897914E+01  0.20953958526E+01  0.50400000000E-02 0. -1.
         23    2    1    2    0    0  0.00000000000E+00  0.00000000000E+00  0.10218406465E+04  0.10260314322E+04  0.92640125937E+02 0.  0.
    9000005    2    3    3    0    0 -0.25027832481E+02 -0.19536346706E+01  0.94123386154E+03  0.94160594507E+03  0.83883615618E+01 0.  0.
         22    1    3    3    0    0  0.25027832481E+02  0.19536346706E+01  0.80606784999E+02  0.84425487117E+02  0.00000000000E+00 0. -1.
         22    1    4    4    0    0 -0.58767115918E+00 -0.93216547147E+00  0.12083014095E+02  0.12133157852E+02  0.00000000000E+00 0. -1.
         22    1    4    4    0    0 -0.24440161322E+02 -0.10214691992E+01  0.92915084744E+03  0.92947278722E+03  0.00000000000E+00 0. -1.
<mgrwt>
<rscale>  0 0.92640126E+02</rscale>
<asrwt>0</asrwt>
<pdfrwt beam="2">  1        1 0.32236730E-03 0.92640126E+02</pdfrwt>
<pdfrwt beam="1">  1       -1 0.15752903E+00 0.92640126E+02</pdfrwt>
<totfact> 0.23890140E+04</totfact>
</mgrwt>
</event>
<event>
 7    1  0.2977097E-009  0.9163936E+02  0.7818608E-02  0.1298930E+00
          1   -1    0    0  501    0  0.00000000000E+00  0.00000000000E+00  0.14592775434E+02  0.14592776304E+02  0.50400000000E-02 0. -1.
         -1   -1    0    0    0  501 -0.00000000000E+00 -0.00000000000E+00 -0.14386866953E+03  0.14386866961E+03  0.50400000000E-02 0.  1.
         23    2    1    2    0    0  0.00000000000E+00  0.71054273576E-14 -0.12927589409E+03  0.15846144592E+03  0.91639364081E+02 0.  0.
    9000005    2    3    3    0    0 -0.17435013969E+02  0.32737065348E+02 -0.10889881619E+03  0.11614217769E+03  0.15948608436E+02 0.  0.
         22    1    3    3    0    0  0.17435013969E+02 -0.32737065348E+02 -0.20377077904E+02  0.42319268231E+02  0.00000000000E+00 0.  1.
         22    1    4    4    0    0  0.23212517521E+01  0.62298385069E+00 -0.10385349395E+02  0.10659821792E+02  0.00000000000E+00 0. -1.
         22    1    4    4    0    0 -0.19756265721E+02  0.32114081497E+02 -0.98513466793E+02  0.10548235590E+03  0.00000000000E+00 0. -1.
<mgrwt>
<rscale>  0 0.91639364E+02</rscale>
<asrwt>0</asrwt>
<pdfrwt beam="1">  1        1 0.22450425E-02 0.91639364E+02</pdfrwt>
<pdfrwt beam="2">  1       -1 0.22133641E-01 0.91639364E+02</pdfrwt>
<totfact> 0.74527558E+04</totfact>
</mgrwt>
</event>
<event>
 7    1  0.2787125E-009  0.1106115E+03  0.7818608E-02  0.1259442E+00
          1   -1    0    0  501    0  0.00000000000E+00  0.00000000000E+00  0.54558298760E+02  0.54558298993E+02  0.50400000000E-02 0. -1.
         -1   -1    0    0    0  501 -0.00000000000E+00 -0.00000000000E+00 -0.56063408997E+02  0.56063409224E+02  0.50400000000E-02 0.  1.
         23    2    1    2    0    0  0.00000000000E+00  0.00000000000E+00 -0.15051102368E+01  0.11062170822E+03  0.11061146854E+03 0.  0.
    9000005    2    3    3    0    0 -0.17683534607E+02  0.48492552542E+02 -0.19821504101E+02  0.55851959884E+02  0.78939438738E+01 0.  0.
         22    1    3    3    0    0  0.17683534607E+02 -0.48492552542E+02  0.18316393865E+02  0.54769748332E+02  0.00000000000E+00 0.  1.
         22    1    4    4    0    0 -0.15126993697E+02  0.30617771440E+02 -0.12473365458E+02  0.36357374934E+02  0.00000000000E+00 0.  1.
         22    1    4    4    0    0 -0.25565409100E+01  0.17874781101E+02 -0.73481386437E+01  0.19494584950E+02  0.00000000000E+00 0.  1.
<mgrwt>
<rscale>  0 0.11061147E+03</rscale>
<asrwt>0</asrwt>
<pdfrwt beam="1">  1        1 0.83935845E-02 0.11061147E+03</pdfrwt>
<pdfrwt beam="2">  1       -1 0.86251398E-02 0.11061147E+03</pdfrwt>
<totfact> 0.54991655E+04</totfact>
</mgrwt>
</event>
<event>
 7    1  0.2787125E-009  0.9095198E+02  0.7818608E-02  0.1300563E+00
          1   -1    0    0  501    0  0.00000000000E+00  0.00000000000E+00  0.38580961508E+02  0.38580961837E+02  0.50400000000E-02 0. -1.
         -1   -1    0    0    0  501 -0.00000000000E+00 -0.00000000000E+00 -0.53603263020E+02  0.53603263257E+02  0.50400000000E-02 0.  1.
         23    2    1    2    0    0 -0.71054273576E-14  0.00000000000E+00 -0.15022301513E+02  0.92184225094E+02  0.90951975314E+02 0.  0.
    9000005    2    3    3    0    0  0.39598843730E+02  0.11868680488E+02  0.11588880736E+02  0.43020325514E+02  0.27408482845E+01 0.  0.
         22    1    3    3    0    0 -0.39598843730E+02 -0.11868680488E+02 -0.26611182249E+02  0.49163899580E+02  0.00000000000E+00 0.  1.
         22    1    4    4    0    0  0.38493010512E+02  0.11602915378E+02  0.11715656295E+02  0.41875960956E+02  0.00000000000E+00 0.  1.
         22    1    4    4    0    0  0.11058332175E+01  0.26576510989E+00 -0.12677555852E+00  0.11443645577E+01  0.00000000000E+00 0.  1.
<mgrwt>
<rscale>  0 0.90951975E+02</rscale>
<asrwt>0</asrwt>
<pdfrwt beam="1">  1        1 0.59355326E-02 0.90951975E+02</pdfrwt>
<pdfrwt beam="2">  1       -1 0.82466559E-02 0.90951975E+02</pdfrwt>
<totfact> 0.90798496E+04</totfact>
</mgrwt>
</event>
<event>
 7    1  0.2787125E-009  0.9150702E+02  0.7818608E-02  0.1299243E+00
         -1   -1    0    0    0  501 -0.00000000000E+00  0.00000000000E+00  0.24621828845E+01  0.24621880429E+01  0.50400000000E-02 0.  1.
          1   -1    0    0  501    0  0.00000000000E+00 -0.00000000000E+00 -0.85021360214E+03  0.85021360215E+03  0.50400000000E-02 0. -1.
         23    2    1    2    0    0  0.88817841970E-15  0.00000000000E+00 -0.84775141925E+03  0.85267579020E+03  0.91507017981E+02 0.  0.
    9000005    2    3    3    0    0  0.75492161991E+01  0.25492539996E+02 -0.76902400166E+03  0.76958026359E+03  0.12206830886E+02 0.  0.
         22    1    3    3    0    0 -0.75492161991E+01 -0.25492539996E+02 -0.78727417596E+02  0.83095526607E+02  0.00000000000E+00 0.  1.
         22    1    4    4    0    0  0.37565612646E+01  0.15754068511E+01 -0.57403212795E+02  0.57547567268E+02  0.00000000000E+00 0.  1.
         22    1    4    4    0    0  0.37926549345E+01  0.23917133145E+02 -0.71162078886E+03  0.71203269632E+03  0.00000000000E+00 0.  1.
<mgrwt>
<rscale>  0 0.91507018E+02</rscale>
<asrwt>0</asrwt>
<pdfrwt beam="2">  1        1 0.13080186E+00 0.91507018E+02</pdfrwt>
<pdfrwt beam="1">  1       -1 0.37879844E-03 0.91507018E+02</pdfrwt>
<totfact> 0.13903889E+05</totfact>
</mgrwt>
</event>
<event>
 7    1  0.3404181E-009  0.9144752E+02  0.7818608E-02  0.1299384E+00
         -1   -1    0    0    0  501 -0.00000000000E+00  0.00000000000E+00  0.18729295009E+03  0.18729295015E+03  0.50400000000E-02 0.  1.
          1   -1    0    0  501    0  0.00000000000E+00 -0.00000000000E+00 -0.11162524629E+02  0.11162525767E+02  0.50400000000E-02 0. -1.
         23    2    1    2    0    0  0.71054273576E-14  0.00000000000E+00  0.17613042546E+03  0.19845547592E+03  0.91447521298E+02 0.  0.
    9000005    2    3    3    0    0 -0.29289044666E+02  0.17017392384E+01  0.16295426687E+03  0.16629408278E+03  0.15455899222E+02 0.  0.
         22    1    3    3    0    0  0.29289044666E+02 -0.17017392384E+01  0.13176158583E+02  0.32161393143E+02  0.00000000000E+00 0. -1.
         22    1    4    4    0    0 -0.17222222531E+02 -0.62766102426E+00  0.12973065089E+03  0.13087032011E+03  0.00000000000E+00 0. -1.
         22    1    4    4    0    0 -0.12066822135E+02  0.23294002627E+01  0.33223615987E+02  0.35423762664E+02  0.00000000000E+00 0. -1.
<mgrwt>
<rscale>  0 0.91447521E+02</rscale>
<asrwt>0</asrwt>
<pdfrwt beam="2">  1        1 0.17173115E-02 0.91447521E+02</pdfrwt>
<pdfrwt beam="1">  1       -1 0.28814301E-01 0.91447521E+02</pdfrwt>
<totfact> 0.70165496E+04</totfact>
</mgrwt>
</event>
<event>
 7    1  0.2787125E-009  0.1053526E+03  0.7818608E-02  0.1269427E+00
          1   -1    0    0  501    0  0.00000000000E+00  0.00000000000E+00  0.82737068480E+01  0.82737083831E+01  0.50400000000E-02 0. -1.
         -1   -1    0    0    0  501 -0.00000000000E+00 -0.00000000000E+00 -0.33537446362E+03  0.33537446366E+03  0.50400000000E-02 0.  1.
         23    2    1    2    0    0  0.00000000000E+00  0.00000000000E+00 -0.32710075677E+03  0.34364817204E+03  0.10535255605E+03 0.  0.
    9000005    2    3    3    0    0 -0.11712521942E+02  0.46667491854E+02 -0.23141336261E+03  0.23654487906E+03  0.92896419686E+01 0.  0.
         22    1    3    3    0    0  0.11712521942E+02 -0.46667491854E+02 -0.95687394156E+02  0.10710329298E+03  0.00000000000E+00 0. -1.
         22    1    4    4    0    0 -0.21215342523E+01  0.11381987087E+02 -0.38767384213E+02  0.40459369945E+02  0.00000000000E+00 0. -1.
         22    1    4    4    0    0 -0.95909876893E+01  0.35285504767E+02 -0.19264597840E+03  0.19608550912E+03  0.00000000000E+00 0. -1.
<mgrwt>
<rscale>  0 0.10535256E+03</rscale>
<asrwt>0</asrwt>
<pdfrwt beam="1">  1        1 0.12728784E-02 0.10535256E+03</pdfrwt>
<pdfrwt beam="2">  1       -1 0.51596061E-01 0.10535256E+03</pdfrwt>
<totfact> 0.39563672E+04</totfact>
</mgrwt>
</event>
<event>
 7    1  0.2787125E-009  0.9960662E+02  0.7818608E-02  0.1281125E+00
         -1   -1    0    0    0  501 -0.00000000000E+00  0.00000000000E+00  0.38728269730E+02  0.38728270058E+02  0.50400000000E-02 0.  1.
          1   -1    0    0  501    0  0.00000000000E+00 -0.00000000000E+00 -0.64045460528E+02  0.64045460726E+02  0.50400000000E-02 0. -1.
         23    2    1    2    0    0  0.00000000000E+00  0.00000000000E+00 -0.25317190798E+02  0.10277373078E+03  0.99606624225E+02 0.  0.
    9000005    2    3    3    0    0  0.15711570671E+02 -0.45081962740E+02 -0.25667210362E+02  0.55031094377E+02  0.95067787985E+01 0.  0.
         22    1    3    3    0    0 -0.15711570671E+02  0.45081962740E+02  0.35001956387E+00  0.47742636407E+02  0.00000000000E+00 0. -1.
         22    1    4    4    0    0  0.51957036043E+01 -0.26796192240E+02 -0.11486641458E+02  0.29613749957E+02  0.00000000000E+00 0.  1.
         22    1    4    4    0    0  0.10515867067E+02 -0.18285770500E+02 -0.14180568903E+02  0.25417344420E+02  0.00000000000E+00 0.  1.
<mgrwt>
<rscale>  0 0.99606624E+02</rscale>
<asrwt>0</asrwt>
<pdfrwt beam="2">  1        1 0.98531478E-02 0.99606624E+02</pdfrwt>
<pdfrwt beam="1">  1       -1 0.59581954E-02 0.99606624E+02</pdfrwt>
<totfact> 0.76070571E+04</totfact>
</mgrwt>
</event>
<event>
 7    1  0.2787125E-009  0.9150014E+02  0.7818608E-02  0.1299259E+00
         -1   -1    0    0    0  501 -0.00000000000E+00  0.00000000000E+00  0.28836760899E+02  0.28836761340E+02  0.50400000000E-02 0.  1.
          1   -1    0    0  501    0  0.00000000000E+00 -0.00000000000E+00 -0.72583356393E+02  0.72583356568E+02  0.50400000000E-02 0. -1.
         23    2    1    2    0    0  0.00000000000E+00  0.00000000000E+00 -0.43746595493E+02  0.10142011791E+03  0.91500140433E+02 0.  0.
    9000005    2    3    3    0    0 -0.26882262032E+02 -0.33095485521E+02 -0.63083655579E+01  0.44678702394E+02  0.11765364326E+02 0.  0.
         22    1    3    3    0    0  0.26882262032E+02  0.33095485521E+02 -0.37438229936E+02  0.56741415514E+02  0.00000000000E+00 0. -1.
         22    1    4    4    0    0 -0.46323473555E+01 -0.31825189556E+01 -0.47614037298E+01  0.73660053220E+01  0.00000000000E+00 0. -1.
         22    1    4    4    0    0 -0.22249914676E+02 -0.29912966566E+02 -0.15469618281E+01  0.37312697072E+02  0.00000000000E+00 0. -1.
<mgrwt>
<rscale>  0 0.91500140E+02</rscale>
<asrwt>0</asrwt>
<pdfrwt beam="2">  1        1 0.11166670E-01 0.91500140E+02</pdfrwt>
<pdfrwt beam="1">  1       -1 0.44364248E-02 0.91500140E+02</pdfrwt>
<totfact> 0.98258190E+04</totfact>
</mgrwt>
</event>
<event>
 7    1  0.2787125E-009  0.8677343E+02  0.7818608E-02  0.1310859E+00
         -1   -1    0    0    0  501 -0.00000000000E+00  0.00000000000E+00  0.63857495083E+01  0.63857514973E+01  0.50400000000E-02 0.  1.
          1   -1    0    0  501    0  0.00000000000E+00 -0.00000000000E+00 -0.29478243036E+03  0.29478243040E+03  0.50400000000E-02 0. -1.
         23    2    1    2    0    0 -0.35527136788E-14 -0.35527136788E-14 -0.28839668085E+03  0.30116818190E+03  0.86773430628E+02 0.  0.
    9000005    2    3    3    0    0  0.27359905847E+02  0.31330815017E+02 -0.18674709006E+03  0.19133729496E+03  0.23022553952E+01 0.  0.
         22    1    3    3    0    0 -0.27359905847E+02 -0.31330815017E+02 -0.10164959079E+03  0.10983088694E+03  0.00000000000E+00 0.  1.
         22    1    4    4    0    0  0.25179150435E+02  0.28289395453E+02 -0.17233193134E+03  0.17644425202E+03  0.00000000000E+00 0.  1.
         22    1    4    4    0    0  0.21807554117E+01  0.30414195644E+01 -0.14415158720E+02  0.14893042941E+02  0.00000000000E+00 0.  1.
<mgrwt>
<rscale>  0 0.86773431E+02</rscale>
<asrwt>0</asrwt>
<pdfrwt beam="2">  1        1 0.45351133E-01 0.86773431E+02</pdfrwt>
<pdfrwt beam="1">  1       -1 0.98242339E-03 0.86773431E+02</pdfrwt>
<totfact> 0.14564189E+05</totfact>
</mgrwt>
</event>
<event>
 7    1  0.2787125E-009  0.9136501E+02  0.7818608E-02  0.1299579E+00
          1   -1    0    0  501    0  0.00000000000E+00  0.00000000000E+00  0.24158455947E+02  0.24158456473E+02  0.50400000000E-02 0. -1.
         -1   -1    0    0    0  501 -0.00000000000E+00 -0.00000000000E+00 -0.86383470146E+02  0.86383470293E+02  0.50400000000E-02 0.  1.
         23    2    1    2    0    0 -0.22204460493E-15  0.00000000000E+00 -0.62225014199E+02  0.11054192677E+03  0.91365010705E+02 0.  0.
    9000005    2    3    3    0    0 -0.18505469254E+01 -0.34438646154E+02  0.37626047661E+01  0.36085155889E+02  0.99265506640E+01 0.  0.
         22    1    3    3    0    0  0.18505469254E+01  0.34438646154E+02 -0.65987618965E+02  0.74456770878E+02  0.00000000000E+00 0.  1.
         22    1    4    4    0    0 -0.22319093458E+01 -0.20413785314E+02 -0.25635408591E+01  0.20694825245E+02  0.00000000000E+00 0.  1.
         22    1    4    4    0    0  0.38136242039E+00 -0.14024860840E+02  0.63261456252E+01  0.15390330644E+02  0.00000000000E+00 0.  1.
<mgrwt>
<rscale>  0 0.91365011E+02</rscale>
<asrwt>0</asrwt>
<pdfrwt beam="1">  1        1 0.37166856E-02 0.91365011E+02</pdfrwt>
<pdfrwt beam="2">  1       -1 0.13289765E-01 0.91365011E+02</pdfrwt>
<totfact> 0.83101301E+04</totfact>
</mgrwt>
</event>
<event>
 7    1  0.2787125E-009  0.9563069E+02  0.7818608E-02  0.1289762E+00
         -1   -1    0    0    0  501 -0.00000000000E+00  0.00000000000E+00  0.25285464115E+02  0.25285464617E+02  0.50400000000E-02 0.  1.
          1   -1    0    0  501    0  0.00000000000E+00 -0.00000000000E+00 -0.90419814308E+02  0.90419814449E+02  0.50400000000E-02 0. -1.
         23    2    1    2    0    0  0.00000000000E+00 -0.88817841970E-15 -0.65134350193E+02  0.11570527907E+03  0.95630685602E+02 0.  0.
    9000005    2    3    3    0    0 -0.40644795774E+02 -0.74697422652E+01 -0.59548626511E+02  0.74003998726E+02  0.14925027135E+02 0.  0.
         22    1    3    3    0    0  0.40644795774E+02  0.74697422652E+01 -0.55857236821E+01  0.41701280341E+02  0.00000000000E+00 0.  1.
         22    1    4    4    0    0 -0.11162207166E+02  0.34378317638E+01 -0.23003754342E+02  0.25798958698E+02  0.00000000000E+00 0.  1.
         22    1    4    4    0    0 -0.29482588608E+02 -0.10907574029E+02 -0.36544872169E+02  0.48205040028E+02  0.00000000000E+00 0.  1.
<mgrwt>
<rscale>  0 0.95630686E+02</rscale>
<asrwt>0</asrwt>
<pdfrwt beam="2">  1        1 0.13910741E-01 0.95630686E+02</pdfrwt>
<pdfrwt beam="1">  1       -1 0.38900715E-02 0.95630686E+02</pdfrwt>
<totfact> 0.90130359E+04</totfact>
</mgrwt>
</event>
<event>
 7    1  0.2787125E-009  0.9173644E+02  0.7818608E-02  0.1298700E+00
          1   -1    0    0  501    0  0.00000000000E+00  0.00000000000E+00  0.40723541488E+03  0.40723541491E+03  0.50400000000E-02 0. -1.
         -1   -1    0    0    0  501 -0.00000000000E+00 -0.00000000000E+00 -0.51662825720E+01  0.51662850304E+01  0.50400000000E-02 0.  1.
         23    2    1    2    0    0 -0.71054273576E-14  0.17763568394E-14  0.40206913231E+03  0.41240169995E+03  0.91736442921E+02 0.  0.
    9000005    2    3    3    0    0 -0.43287092234E+02 -0.12012526769E+02  0.18175595484E+03  0.18755515378E+03  0.11119147326E+02 0.  0.
         22    1    3    3    0    0  0.43287092234E+02  0.12012526769E+02  0.22031317747E+03  0.22484654616E+03  0.00000000000E+00 0. -1.
         22    1    4    4    0    0 -0.29325027545E+01 -0.36483402099E+01  0.27153492592E+02  0.27553985531E+02  0.00000000000E+00 0.  1.
         22    1    4    4    0    0 -0.40354589479E+02 -0.83641865596E+01  0.15460246225E+03  0.16000116825E+03  0.00000000000E+00 0.  1.
<mgrwt>
<rscale>  0 0.91736443E+02</rscale>
<asrwt>0</asrwt>
<pdfrwt beam="1">  1        1 0.62651605E-01 0.91736443E+02</pdfrwt>
<pdfrwt beam="2">  1       -1 0.79481286E-03 0.91736443E+02</pdfrwt>
<totfact> 0.13310314E+05</totfact>
</mgrwt>
</event>
<event>
 7    1  0.2787125E-009  0.9014909E+02  0.7818608E-02  0.1302491E+00
         -1   -1    0    0    0  501 -0.00000000000E+00  0.00000000000E+00  0.47658544534E+02  0.47658544801E+02  0.50400000000E-02 0.  1.
          1   -1    0    0  501    0  0.00000000000E+00 -0.00000000000E+00 -0.42630645362E+02  0.42630645660E+02  0.50400000000E-02 0. -1.
         23    2    1    2    0    0  0.00000000000E+00  0.22204460493E-15  0.50278991718E+01  0.90289190461E+02  0.90149088426E+02 0.  0.
    9000005    2    3    3    0    0  0.44031549174E+02 -0.17024380107E+01 -0.57471618382E+01  0.44926457325E+02  0.66091664170E+01 0.  0.
         22    1    3    3    0    0 -0.44031549174E+02  0.17024380107E+01  0.10775061010E+02  0.45362733136E+02  0.00000000000E+00 0.  1.
         22    1    4    4    0    0  0.10315375759E+02  0.18981117915E+01 -0.29912915485E+01  0.10906769941E+02  0.00000000000E+00 0. -1.
         22    1    4    4    0    0  0.33716173415E+02 -0.36005498022E+01 -0.27558702897E+01  0.34019687384E+02  0.00000000000E+00 0. -1.
<mgrwt>
<rscale>  0 0.90149088E+02</rscale>
<asrwt>0</asrwt>
<pdfrwt beam="2">  1        1 0.65585609E-02 0.90149088E+02</pdfrwt>
<pdfrwt beam="1">  1       -1 0.73320838E-02 0.90149088E+02</pdfrwt>
<totfact> 0.94506714E+04</totfact>
</mgrwt>
</event>
<event>
 7    1  0.2787125E-009  0.8919044E+02  0.7818608E-02  0.1304824E+00
          1   -1    0    0  501    0  0.00000000000E+00  0.00000000000E+00  0.19995731221E+03  0.19995731227E+03  0.50400000000E-02 0. -1.
         -1   -1    0    0    0  501 -0.00000000000E+00 -0.00000000000E+00 -0.99457905538E+01  0.99457918308E+01  0.50400000000E-02 0.  1.
         23    2    1    2    0    0  0.00000000000E+00 -0.71054273576E-14  0.19001152165E+03  0.20990310410E+03  0.89190440914E+02 0.  0.
    9000005    2    3    3    0    0  0.75431813582E+01 -0.37419120032E+02  0.14854585244E+03  0.15354272926E+03  0.72394269219E+01 0.  0.
         22    1    3    3    0    0 -0.75431813582E+01  0.37419120032E+02  0.41465669209E+02  0.56360374838E+02  0.00000000000E+00 0.  1.
         22    1    4    4    0    0  0.70386541155E+01 -0.26424094434E+02  0.93964703157E+02  0.97862867614E+02  0.00000000000E+00 0.  1.
         22    1    4    4    0    0  0.50452724269E+00 -0.10995025598E+02  0.54581149288E+02  0.55679861649E+02  0.00000000000E+00 0.  1.
<mgrwt>
<rscale>  0 0.89190441E+02</rscale>
<asrwt>0</asrwt>
<pdfrwt beam="1">  1        1 0.30762662E-01 0.89190441E+02</pdfrwt>
<pdfrwt beam="2">  1       -1 0.15301218E-02 0.89190441E+02</pdfrwt>
<totfact> 0.12559241E+05</totfact>
</mgrwt>
</event>
<event>
 7    1  0.2787125E-009  0.9336015E+02  0.7818608E-02  0.1294913E+00
          1   -1    0    0  501    0  0.00000000000E+00  0.00000000000E+00  0.53828344145E+03  0.53828344147E+03  0.50400000000E-02 0. -1.
         -1   -1    0    0    0  501 -0.00000000000E+00 -0.00000000000E+00 -0.40481060219E+01  0.40481091594E+01  0.50400000000E-02 0.  1.
         23    2    1    2    0    0 -0.35527136788E-14  0.35527136788E-14  0.53423533542E+03  0.54233155063E+03  0.93360147772E+02 0.  0.
    9000005    2    3    3    0    0  0.23749677269E+02 -0.30572850997E+02  0.41621090649E+03  0.41811998831E+03  0.96984305360E+01 0.  0.
         22    1    3    3    0    0 -0.23749677269E+02  0.30572850997E+02  0.11802442894E+03  0.12421156232E+03  0.00000000000E+00 0.  1.
         22    1    4    4    0    0  0.15284691268E+02 -0.23131910509E+02  0.33247029784E+03  0.33362434866E+03  0.00000000000E+00 0. -1.
         22    1    4    4    0    0  0.84649860012E+01 -0.74409404875E+01  0.83740608645E+02  0.84495639648E+02  0.00000000000E+00 0. -1.
<mgrwt>
<rscale>  0 0.93360148E+02</rscale>
<asrwt>0</asrwt>
<pdfrwt beam="1">  1        1 0.82812872E-01 0.93360148E+02</pdfrwt>
<pdfrwt beam="2">  1       -1 0.62278552E-03 0.93360148E+02</pdfrwt>
<totfact> 0.13183703E+05</totfact>
</mgrwt>
</event>
<event>
 7    1  0.2787125E-009  0.9294874E+02  0.7818608E-02  0.1295864E+00
         -1   -1    0    0    0  501 -0.00000000000E+00  0.00000000000E+00  0.43836154709E+02  0.43836154999E+02  0.50400000000E-02 0.  1.
          1   -1    0    0  501    0  0.00000000000E+00 -0.00000000000E+00 -0.49271363455E+02  0.49271363712E+02  0.50400000000E-02 0. -1.
         23    2    1    2    0    0  0.00000000000E+00  0.00000000000E+00 -0.54352087452E+01  0.93107518711E+02  0.92948741500E+02 0.  0.
    9000005    2    3    3    0    0 -0.41798032159E+02 -0.15821923914E+02  0.69065154894E+01  0.46742370963E+02  0.11821189381E+02 0.  0.
         22    1    3    3    0    0  0.41798032159E+02  0.15821923914E+02 -0.12341724235E+02  0.46365147748E+02  0.00000000000E+00 0. -1.
         22    1    4    4    0    0 -0.28561291503E+02 -0.16481112112E+02  0.48015694676E+01  0.33323107569E+02  0.00000000000E+00 0. -1.
         22    1    4    4    0    0 -0.13236740656E+02  0.65918819794E+00  0.21049460217E+01  0.13419263394E+02  0.00000000000E+00 0. -1.
<mgrwt>
<rscale>  0 0.92948742E+02</rscale>
<asrwt>0</asrwt>
<pdfrwt beam="2">  1        1 0.75802098E-02 0.92948742E+02</pdfrwt>
<pdfrwt beam="1">  1       -1 0.67440239E-02 0.92948742E+02</pdfrwt>
<totfact> 0.88642086E+04</totfact>
</mgrwt>
</event>
<event>
 7    1  0.2787125E-009  0.9070907E+02  0.7818608E-02  0.1301144E+00
          1   -1    0    0  501    0  0.00000000000E+00  0.00000000000E+00  0.16173794341E+03  0.16173794349E+03  0.50400000000E-02 0. -1.
         -1   -1    0    0    0  501 -0.00000000000E+00 -0.00000000000E+00 -0.12718312416E+02  0.12718313414E+02  0.50400000000E-02 0.  1.
         23    2    1    2    0    0  0.17763568394E-14  0.35527136788E-14  0.14901963099E+03  0.17445625690E+03  0.90709068734E+02 0.  0.
    9000005    2    3    3    0    0  0.14821945384E+02  0.31183853306E+02  0.13002285529E+03  0.13504813262E+03  0.11829304906E+02 0.  0.
         22    1    3    3    0    0 -0.14821945384E+02 -0.31183853306E+02  0.18996775698E+02  0.39408124275E+02  0.00000000000E+00 0.  1.
         22    1    4    4    0    0  0.19670908997E+01  0.13188990507E+02  0.34229943060E+02  0.36735649159E+02  0.00000000000E+00 0.  1.
         22    1    4    4    0    0  0.12854854485E+02  0.17994862799E+02  0.95792912233E+02  0.98312483465E+02  0.00000000000E+00 0.  1.
<mgrwt>
<rscale>  0 0.90709069E+02</rscale>
<asrwt>0</asrwt>
<pdfrwt beam="1">  1        1 0.24882760E-01 0.90709069E+02</pdfrwt>
<pdfrwt beam="2">  1       -1 0.19566636E-02 0.90709069E+02</pdfrwt>
<totfact> 0.11529380E+05</totfact>
</mgrwt>
</event>
<event>
 7    1  0.2787125E-009  0.8655514E+02  0.7818608E-02  0.1311415E+00
          1   -1    0    0  501    0  0.00000000000E+00  0.00000000000E+00  0.21452809536E+03  0.21452809542E+03  0.50400000000E-02 0. -1.
         -1   -1    0    0    0  501 -0.00000000000E+00 -0.00000000000E+00 -0.87305492841E+01  0.87305507388E+01  0.50400000000E-02 0.  1.
         23    2    1    2    0    0 -0.35527136788E-14  0.00000000000E+00  0.20579754608E+03  0.22325864616E+03  0.86555144927E+02 0.  0.
    9000005    2    3    3    0    0 -0.16502618902E+02 -0.19019732480E+02  0.19293767462E+03  0.19498387033E+03  0.12636326493E+02 0.  0.
         22    1    3    3    0    0  0.16502618902E+02  0.19019732480E+02  0.12859871456E+02  0.28274775827E+02  0.00000000000E+00 0.  1.
         22    1    4    4    0    0 -0.82607265029E+01 -0.28074370125E+01  0.38344479511E+02  0.39324552304E+02  0.00000000000E+00 0.  1.
         22    1    4    4    0    0 -0.82418923989E+01 -0.16212295467E+02  0.15459319511E+03  0.15565931803E+03  0.00000000000E+00 0.  1.
<mgrwt>
<rscale>  0 0.86555145E+02</rscale>
<asrwt>0</asrwt>
<pdfrwt beam="1">  1        1 0.33004322E-01 0.86555145E+02</pdfrwt>
<pdfrwt beam="2">  1       -1 0.13431616E-02 0.86555145E+02</pdfrwt>
<totfact> 0.13791126E+05</totfact>
</mgrwt>
</event>
<event>
 7    1  0.2787125E-009  0.1155576E+03  0.7818608E-02  0.1250611E+00
         -1   -1    0    0    0  501 -0.00000000000E+00  0.00000000000E+00  0.97027329438E+02  0.97027329569E+02  0.50400000000E-02 0.  1.
          1   -1    0    0  501    0  0.00000000000E+00 -0.00000000000E+00 -0.34406711353E+02  0.34406711722E+02  0.50400000000E-02 0. -1.
         23    2    1    2    0    0  0.00000000000E+00  0.35527136788E-14  0.62620618085E+02  0.13143404129E+03  0.11555762805E+03 0.  0.
    9000005    2    3    3    0    0  0.69694783077E+01  0.28915092849E+02 -0.23880670637E+02  0.39962028234E+02  0.11917258414E+02 0.  0.
         22    1    3    3    0    0 -0.69694783077E+01 -0.28915092849E+02  0.86501288721E+02  0.91472013058E+02  0.00000000000E+00 0.  1.
         22    1    4    4    0    0 -0.25311611332E+01  0.12338988369E+02 -0.12383301862E+02  0.17663622948E+02  0.00000000000E+00 0.  1.
         22    1    4    4    0    0  0.95006394409E+01  0.16576104481E+02 -0.11497368775E+02  0.22298405286E+02  0.00000000000E+00 0.  1.
<mgrwt>
<rscale>  0 0.11555763E+03</rscale>
<asrwt>0</asrwt>
<pdfrwt beam="2">  1        1 0.52933403E-02 0.11555763E+03</pdfrwt>
<pdfrwt beam="1">  1       -1 0.14927281E-01 0.11555763E+03</pdfrwt>
<totfact> 0.44386865E+04</totfact>
</mgrwt>
</event>
<event>
 7    1  0.2787125E-009  0.9154734E+02  0.7818608E-02  0.1299147E+00
          1   -1    0    0  501    0  0.00000000000E+00  0.00000000000E+00  0.11240137879E+03  0.11240137891E+03  0.50400000000E-02 0. -1.
         -1   -1    0    0    0  501 -0.00000000000E+00 -0.00000000000E+00 -0.18640596276E+02  0.18640596957E+02  0.50400000000E-02 0.  1.
         23    2    1    2    0    0  0.00000000000E+00  0.17763568394E-14  0.93760782519E+02  0.13104197587E+03  0.91547338028E+02 0.  0.
    9000005    2    3    3    0    0  0.17008051584E+02 -0.15532641204E+02 -0.97243856761E+01  0.25024445250E+02  0.10594441202E+01 0.  0.
         22    1    3    3    0    0 -0.17008051584E+02  0.15532641204E+02  0.10348516819E+03  0.10601753062E+03  0.00000000000E+00 0. -1.
         22    1    4    4    0    0  0.70846312869E+01 -0.70429307771E+01 -0.45525791226E+01  0.10978198899E+02  0.00000000000E+00 0.  1.
         22    1    4    4    0    0  0.99234202967E+01 -0.84897104268E+01 -0.51718065535E+01  0.14046246351E+02  0.00000000000E+00 0.  1.
<mgrwt>
<rscale>  0 0.91547338E+02</rscale>
<asrwt>0</asrwt>
<pdfrwt beam="1">  1        1 0.17292520E-01 0.91547338E+02</pdfrwt>
<pdfrwt beam="2">  1       -1 0.28677841E-02 0.91547338E+02</pdfrwt>
<totfact> 0.10536254E+05</totfact>
</mgrwt>
</event>
<event>
 7    1  0.3137511E-009  0.9446518E+02  0.7818608E-02  0.1292385E+00
         -1   -1    0    0    0  501 -0.00000000000E+00  0.00000000000E+00  0.27744730796E+03  0.27744730800E+03  0.50400000000E-02 0.  1.
          1   -1    0    0  501    0  0.00000000000E+00 -0.00000000000E+00 -0.80408691373E+01  0.80408707168E+01  0.50400000000E-02 0. -1.
         23    2    1    2    0    0  0.00000000000E+00  0.17763568394E-14  0.26940643882E+03  0.28548817872E+03  0.94465183592E+02 0.  0.
    9000005    2    3    3    0    0 -0.37936193544E+02  0.12063771580E+02  0.68108410976E+02  0.80291723148E+02  0.14943754384E+02 0.  0.
         22    1    3    3    0    0  0.37936193544E+02 -0.12063771580E+02  0.20129802784E+03  0.20519645557E+03  0.00000000000E+00 0.  1.
         22    1    4    4    0    0 -0.11974927993E+02 -0.23650766452E+01  0.26434642766E+02  0.29116710428E+02  0.00000000000E+00 0. -1.
         22    1    4    4    0    0 -0.25961265551E+02  0.14428848225E+02  0.41673768210E+02  0.51175012720E+02  0.00000000000E+00 0. -1.
<mgrwt>
<rscale>  0 0.94465184E+02</rscale>
<asrwt>0</asrwt>
<pdfrwt beam="2">  1        1 0.12370568E-02 0.94465184E+02</pdfrwt>
<pdfrwt beam="1">  1       -1 0.42684205E-01 0.94465184E+02</pdfrwt>
<totfact> 0.56889352E+04</totfact>
</mgrwt>
</event>
<event>
 7    1  0.2787125E-009  0.9130472E+02  0.7818608E-02  0.1299723E+00
         -1   -1    0    0    0  501 -0.00000000000E+00  0.00000000000E+00  0.14138022181E+01  0.14138112015E+01  0.50400000000E-02 0.  1.
          1   -1    0    0  501    0  0.00000000000E+00 -0.00000000000E+00 -0.14741320171E+04  0.14741320171E+04  0.50400000000E-02 0. -1.
         23    2    1    2    0    0 -0.35527136788E-14  0.44408920985E-15 -0.14727182149E+04  0.14755458283E+04  0.91304715094E+02 0.  0.
    9000005    2    3    3    0    0  0.23198736360E+02 -0.22996952240E+01 -0.13689604677E+04  0.13692013876E+04  0.10779969910E+02 0.  0.
         22    1    3    3    0    0 -0.23198736360E+02  0.22996952240E+01 -0.10375774720E+03  0.10634444071E+03  0.00000000000E+00 0.  1.
         22    1    4    4    0    0  0.21681906620E+01  0.20180475957E+01 -0.36178107328E+03  0.36179319860E+03  0.00000000000E+00 0. -1.
         22    1    4    4    0    0  0.21030545698E+02 -0.43177428197E+01 -0.10071793944E+04  0.10074081890E+04  0.00000000000E+00 0. -1.
<mgrwt>
<rscale>  0 0.91304715E+02</rscale>
<asrwt>0</asrwt>
<pdfrwt beam="2">  1        1 0.22678831E+00 0.91304715E+02</pdfrwt>
<pdfrwt beam="1">  1       -1 0.21750990E-03 0.91304715E+02</pdfrwt>
<totfact> 0.11164911E+05</totfact>
</mgrwt>
</event>
<event>
 7    1  0.2787125E-009  0.9306262E+02  0.7818608E-02  0.1295600E+00
          1   -1    0    0  501    0  0.00000000000E+00  0.00000000000E+00  0.12787394373E+02  0.12787395366E+02  0.50400000000E-02 0. -1.
         -1   -1    0    0    0  501 -0.00000000000E+00 -0.00000000000E+00 -0.16932008162E+03  0.16932008169E+03  0.50400000000E-02 0.  1.
         23    2    1    2    0    0 -0.71054273576E-14  0.00000000000E+00 -0.15653268725E+03  0.18210747706E+03  0.93062618837E+02 0.  0.
    9000005    2    3    3    0    0  0.37021189040E+02  0.21947595162E+01 -0.13221896773E+03  0.13776176291E+03  0.11002839793E+02 0.  0.
         22    1    3    3    0    0 -0.37021189040E+02 -0.21947595162E+01 -0.24313719512E+02  0.44345714153E+02  0.00000000000E+00 0. -1.
         22    1    4    4    0    0  0.17319200936E+02 -0.29083023925E+01 -0.75075889688E+02  0.77102543125E+02  0.00000000000E+00 0. -1.
         22    1    4    4    0    0  0.19701988104E+02  0.51030619087E+01 -0.57143078044E+02  0.60659219781E+02  0.00000000000E+00 0. -1.
<mgrwt>
<rscale>  0 0.93062619E+02</rscale>
<asrwt>0</asrwt>
<pdfrwt beam="1">  1        1 0.19672916E-02 0.93062619E+02</pdfrwt>
<pdfrwt beam="2">  1       -1 0.26049242E-01 0.93062619E+02</pdfrwt>
<totfact> 0.68843520E+04</totfact>
</mgrwt>
</event>
<event>
 7    1  0.2787125E-009  0.9184834E+02  0.7818608E-02  0.1298436E+00
          1   -1    0    0  501    0  0.00000000000E+00  0.00000000000E+00  0.22151019044E+03  0.22151019050E+03  0.50400000000E-02 0. -1.
         -1   -1    0    0    0  501 -0.00000000000E+00 -0.00000000000E+00 -0.95211380910E+01  0.95211394249E+01  0.50400000000E-02 0.  1.
         23    2    1    2    0    0  0.44408920985E-15  0.00000000000E+00  0.21198905235E+03  0.23103132993E+03  0.91848337437E+02 0.  0.
    9000005    2    3    3    0    0 -0.39504387825E+01  0.35789420233E+02  0.17615073537E+03  0.18022903144E+03  0.12527315581E+02 0.  0.
         22    1    3    3    0    0  0.39504387825E+01 -0.35789420233E+02  0.35838316984E+02  0.50802298486E+02  0.00000000000E+00 0.  1.
         22    1    4    4    0    0  0.13174318355E+01  0.82002415729E+01  0.67395651196E+02  0.67905473922E+02  0.00000000000E+00 0.  1.
         22    1    4    4    0    0 -0.52678706179E+01  0.27589178660E+02  0.10875508417E+03  0.11232355752E+03  0.00000000000E+00 0.  1.
<mgrwt>
<rscale>  0 0.91848337E+02</rscale>
<asrwt>0</asrwt>
<pdfrwt beam="1">  1        1 0.34078490E-01 0.91848337E+02</pdfrwt>
<pdfrwt beam="2">  1       -1 0.14647906E-02 0.91848337E+02</pdfrwt>
<totfact> 0.11843232E+05</totfact>
</mgrwt>
</event>
<event>
 6    1  0.2787125E-009  0.6997660E+03  0.7818608E-02  0.9717632E-01
          1   -1    0    0  501    0  0.00000000000E+00  0.00000000000E+00  0.73781114756E+02  0.73781114929E+02  0.50400000000E-02 0. -1.
         -1   -1    0    0    0  501 -0.00000000000E+00 -0.00000000000E+00 -0.16592067077E+04  0.16592067077E+04  0.50400000000E-02 0.  1.
    9000005    2    1    2    0    0  0.38538861600E+02  0.52154866565E+02 -0.16441636359E+04  0.16454919276E+04  0.12815932198E+02 0.  0.
         22    1    1    2    0    0 -0.38538861600E+02 -0.52154866565E+02  0.58738042968E+02  0.87495895056E+02  0.00000000000E+00 0. -1.
         22    1    3    3    0    0  0.24326046733E+02  0.42301307538E+02 -0.12002408101E+04  0.12012323503E+04  0.00000000000E+00 0.  1.
         22    1    3    3    0    0  0.14212814867E+02  0.98535590270E+01 -0.44392282584E+03  0.44425957731E+03  0.00000000000E+00 0.  1.
<mgrwt>
<rscale>  0 0.69976602E+03</rscale>
<asrwt>0</asrwt>
<pdfrwt beam="1">  1        1 0.11350942E-01 0.69976602E+03</pdfrwt>
<pdfrwt beam="2">  1       -1 0.25526254E+00 0.69976602E+03</pdfrwt>
<totfact> 0.37643086E+01</totfact>
</mgrwt>
</event>
<event>
 7    1  0.2787125E-009  0.8994991E+02  0.7818608E-02  0.1302973E+00
          1   -1    0    0  501    0  0.00000000000E+00  0.00000000000E+00  0.72694361588E+01  0.72694379059E+01  0.50400000000E-02 0. -1.
         -1   -1    0    0    0  501 -0.00000000000E+00 -0.00000000000E+00 -0.27825353561E+03  0.27825353565E+03  0.50400000000E-02 0.  1.
         23    2    1    2    0    0  0.00000000000E+00  0.71054273576E-14 -0.27098409945E+03  0.28552297356E+03  0.89949909817E+02 0.  0.
    9000005    2    3    3    0    0 -0.13606196984E+02 -0.41783761736E+02 -0.13488486442E+03  0.14250544626E+03  0.13522729798E+02 0.  0.
         22    1    3    3    0    0  0.13606196984E+02  0.41783761736E+02 -0.13609923503E+03  0.14301752730E+03  0.00000000000E+00 0.  1.
         22    1    4    4    0    0  0.19279779743E+01 -0.38775396232E+01 -0.71175292977E+01  0.83313645882E+01  0.00000000000E+00 0. -1.
         22    1    4    4    0    0 -0.15534174959E+02 -0.37906222113E+02 -0.12776733513E+03  0.13417408167E+03  0.00000000000E+00 0. -1.
<mgrwt>
<rscale>  0 0.89949910E+02</rscale>
<asrwt>0</asrwt>
<pdfrwt beam="1">  1        1 0.11183751E-02 0.89949910E+02</pdfrwt>
<pdfrwt beam="2">  1       -1 0.42808228E-01 0.89949910E+02</pdfrwt>
<totfact> 0.64597582E+04</totfact>
</mgrwt>
</event>
<event>
 7    1  0.2787125E-009  0.8510622E+02  0.7818608E-02  0.1315155E+00
         -1   -1    0    0    0  501 -0.00000000000E+00  0.00000000000E+00  0.21550101693E+01  0.21550160629E+01  0.50400000000E-02 0.  1.
          1   -1    0    0  501    0  0.00000000000E+00 -0.00000000000E+00 -0.84025806884E+03  0.84025806886E+03  0.50400000000E-02 0. -1.
         23    2    1    2    0    0  0.00000000000E+00  0.00000000000E+00 -0.83810305868E+03  0.84241308492E+03  0.85106220031E+02 0.  0.
    9000005    2    3    3    0    0  0.35267687035E+02 -0.26708050086E+00 -0.65077781906E+03  0.65179664681E+03  0.91223864722E+01 0.  0.
         22    1    3    3    0    0 -0.35267687035E+02  0.26708050086E+00 -0.18732523961E+03  0.19061643811E+03  0.00000000000E+00 0.  1.
         22    1    4    4    0    0  0.20378262652E+02 -0.12587903233E+01 -0.29478535025E+03  0.29549155802E+03  0.00000000000E+00 0. -1.
         22    1    4    4    0    0  0.14889424383E+02  0.99170982245E+00 -0.35599246881E+03  0.35630508879E+03  0.00000000000E+00 0. -1.
<mgrwt>
<rscale>  0 0.85106220E+02</rscale>
<asrwt>0</asrwt>
<pdfrwt beam="2">  1        1 0.12927021E+00 0.85106220E+02</pdfrwt>
<pdfrwt beam="1">  1       -1 0.33154115E-03 0.85106220E+02</pdfrwt>
<totfact> 0.16856489E+05</totfact>
</mgrwt>
</event>
<event>
 7    1  0.2787125E-009  0.9058617E+02  0.7818608E-02  0.1301438E+00
         -1   -1    0    0    0  501 -0.00000000000E+00  0.00000000000E+00  0.10093068335E+02  0.10093069594E+02  0.50400000000E-02 0.  1.
          1   -1    0    0  501    0  0.00000000000E+00 -0.00000000000E+00 -0.20325468121E+03  0.20325468127E+03  0.50400000000E-02 0. -1.
         23    2    1    2    0    0  0.00000000000E+00  0.00000000000E+00 -0.19316161288E+03  0.21334775087E+03  0.90586169538E+02 0.  0.
    9000005    2    3    3    0    0  0.59841937862E+01 -0.32324635737E+02 -0.16829106185E+03  0.17212594888E+03  0.14992268958E+02 0.  0.
         22    1    3    3    0    0 -0.59841937862E+01  0.32324635737E+02 -0.24870551027E+02  0.41221801989E+02  0.00000000000E+00 0. -1.
         22    1    4    4    0    0  0.67241162959E+01 -0.18929567736E+02 -0.66891717000E+02  0.69842995911E+02  0.00000000000E+00 0. -1.
         22    1    4    4    0    0 -0.73992250978E+00 -0.13395068001E+02 -0.10139934485E+03  0.10228295297E+03  0.00000000000E+00 0. -1.
<mgrwt>
<rscale>  0 0.90586170E+02</rscale>
<asrwt>0</asrwt>
<pdfrwt beam="2">  1        1 0.31269948E-01 0.90586170E+02</pdfrwt>
<pdfrwt beam="1">  1       -1 0.15527800E-02 0.90586170E+02</pdfrwt>
<totfact> 0.12086383E+05</totfact>
</mgrwt>
</event>
<event>
 7    1  0.2787125E-009  0.9066165E+02  0.7818608E-02  0.1301257E+00
         -1   -1    0    0    0  501 -0.00000000000E+00  0.00000000000E+00  0.34245834510E+02  0.34245834881E+02  0.50400000000E-02 0.  1.
          1   -1    0    0  501    0  0.00000000000E+00 -0.00000000000E+00 -0.60003902732E+02  0.60003902943E+02  0.50400000000E-02 0. -1.
         23    2    1    2    0    0  0.00000000000E+00  0.00000000000E+00 -0.25758068221E+02  0.94249737825E+02  0.90661651218E+02 0.  0.
    9000005    2    3    3    0    0  0.32352622799E+02 -0.27801842410E+02  0.13650355391E+01  0.43699788261E+02  0.93900760721E+01 0.  0.
         22    1    3    3    0    0 -0.32352622799E+02  0.27801842410E+02 -0.27123103760E+02  0.50549949564E+02  0.00000000000E+00 0. -1.
         22    1    4    4    0    0  0.10759520689E+02 -0.56771162313E+01 -0.28597226099E+01  0.12496997542E+02  0.00000000000E+00 0.  1.
         22    1    4    4    0    0  0.21593102110E+02 -0.22124726179E+02  0.42247581490E+01  0.31202790719E+02  0.00000000000E+00 0.  1.
<mgrwt>
<rscale>  0 0.90661651E+02</rscale>
<asrwt>0</asrwt>
<pdfrwt beam="2">  1        1 0.92313697E-02 0.90661651E+02</pdfrwt>
<pdfrwt beam="1">  1       -1 0.52685900E-02 0.90661651E+02</pdfrwt>
<totfact> 0.97897564E+04</totfact>
</mgrwt>
</event>
<event>
 7    1  0.2787125E-009  0.8980592E+02  0.7818608E-02  0.1303322E+00
          1   -1    0    0  501    0  0.00000000000E+00  0.00000000000E+00  0.86780764050E+02  0.86780764196E+02  0.50400000000E-02 0. -1.
         -1   -1    0    0    0  501 -0.00000000000E+00 -0.00000000000E+00 -0.23234130523E+02  0.23234131069E+02  0.50400000000E-02 0.  1.
         23    2    1    2    0    0  0.17763568394E-14  0.00000000000E+00  0.63546633527E+02  0.11001489527E+03  0.89805915995E+02 0.  0.
    9000005    2    3    3    0    0  0.11847231908E+02 -0.35581113461E+02  0.23822877152E+01  0.38269165514E+02  0.72443906160E+01 0.  0.
         22    1    3    3    0    0 -0.11847231908E+02  0.35581113461E+02  0.61164345812E+02  0.71745729752E+02  0.00000000000E+00 0. -1.
         22    1    4    4    0    0  0.11752508377E+02 -0.28866426201E+02  0.71163289821E-01  0.31167243686E+02  0.00000000000E+00 0. -1.
         22    1    4    4    0    0  0.94723531288E-01 -0.67146872597E+01  0.23111244254E+01  0.71019218281E+01  0.00000000000E+00 0. -1.
<mgrwt>
<rscale>  0 0.89805916E+02</rscale>
<asrwt>0</asrwt>
<pdfrwt beam="1">  1        1 0.13350887E-01 0.89805916E+02</pdfrwt>
<pdfrwt beam="2">  1       -1 0.35744817E-02 0.89805916E+02</pdfrwt>
<totfact> 0.10637231E+05</totfact>
</mgrwt>
</event>
<event>
 7    1  0.2787125E-009  0.8996410E+02  0.7818608E-02  0.1302939E+00
          1   -1    0    0  501    0  0.00000000000E+00  0.00000000000E+00  0.23520772616E+03  0.23520772621E+03  0.50400000000E-02 0. -1.
         -1   -1    0    0    0  501 -0.00000000000E+00 -0.00000000000E+00 -0.86025440635E+01  0.86025455399E+01  0.50400000000E-02 0.  1.
         23    2    1    2    0    0  0.00000000000E+00  0.35527136788E-14  0.22660518210E+03  0.24381027175E+03  0.89964104285E+02 0.  0.
    9000005    2    3    3    0    0 -0.30770483734E+02 -0.31994926799E+02  0.13269745102E+03  0.13993939053E+03  0.19802789878E+01 0.  0.
         22    1    3    3    0    0  0.30770483734E+02  0.31994926799E+02  0.93907731078E+02  0.10387088122E+03  0.00000000000E+00 0. -1.
         22    1    4    4    0    0 -0.26808579486E+02 -0.28763760924E+02  0.11785859543E+03  0.12424452662E+03  0.00000000000E+00 0. -1.
         22    1    4    4    0    0 -0.39619042484E+01 -0.32311658755E+01  0.14838855585E+02  0.15694863913E+02  0.00000000000E+00 0. -1.
<mgrwt>
<rscale>  0 0.89964104E+02</rscale>
<asrwt>0</asrwt>
<pdfrwt beam="1">  1        1 0.36185798E-01 0.89964104E+02</pdfrwt>
<pdfrwt beam="2">  1       -1 0.13234687E-02 0.89964104E+02</pdfrwt>
<totfact> 0.12665724E+05</totfact>
</mgrwt>
</event>
<event>
 7    1  0.2787125E-009  0.8883571E+02  0.7818608E-02  0.1305696E+00
         -1   -1    0    0    0  501 -0.00000000000E+00  0.00000000000E+00  0.15531679337E+03  0.15531679345E+03  0.50400000000E-02 0.  1.
          1   -1    0    0  501    0  0.00000000000E+00 -0.00000000000E+00 -0.12702720315E+02  0.12702721315E+02  0.50400000000E-02 0. -1.
         23    2    1    2    0    0  0.00000000000E+00  0.00000000000E+00  0.14261407306E+03  0.16801951477E+03  0.88835710778E+02 0.  0.
    9000005    2    3    3    0    0  0.20453519258E+02 -0.12734653938E+01  0.14555315600E+03  0.14731670403E+03  0.98245559188E+01 0.  0.
         22    1    3    3    0    0 -0.20453519258E+02  0.12734653938E+01 -0.29390829438E+01  0.20702810744E+02  0.00000000000E+00 0. -1.
         22    1    4    4    0    0  0.28787546068E+01  0.33647160182E+01  0.22922974714E+02  0.23346762339E+02  0.00000000000E+00 0. -1.
         22    1    4    4    0    0  0.17574764651E+02 -0.46381814120E+01  0.12263018129E+03  0.12396994169E+03  0.00000000000E+00 0. -1.
<mgrwt>
<rscale>  0 0.88835711E+02</rscale>
<asrwt>0</asrwt>
<pdfrwt beam="2">  1        1 0.19542648E-02 0.88835711E+02</pdfrwt>
<pdfrwt beam="1">  1       -1 0.23894891E-01 0.88835711E+02</pdfrwt>
<totfact> 0.79349826E+04</totfact>
</mgrwt>
</event>
<event>
 6    1  0.2787125E-009  0.1636325E+03  0.7818608E-02  0.1184656E+00
         -1   -1    0    0    0  501 -0.00000000000E+00  0.00000000000E+00  0.14717749071E+02  0.14717749934E+02  0.50400000000E-02 0.  1.
          1   -1    0    0  501    0  0.00000000000E+00 -0.00000000000E+00 -0.45481796495E+03  0.45481796498E+03  0.50400000000E-02 0. -1.
    9000005    2    1    2    0    0  0.38386544369E+02 -0.65657925631E+02 -0.30295853750E+03  0.31271629668E+03  0.14937093989E+02 0.  0.
         22    1    1    2    0    0 -0.38386544369E+02  0.65657925631E+02 -0.13714167838E+03  0.15681941824E+03  0.00000000000E+00 0.  1.
         22    1    3    3    0    0  0.13976373688E+02 -0.38512104756E+02 -0.16469091350E+03  0.16971039516E+03  0.00000000000E+00 0. -1.
         22    1    3    3    0    0  0.24410170681E+02 -0.27145820874E+02 -0.13826762399E+03  0.14300590152E+03  0.00000000000E+00 0. -1.
<mgrwt>
<rscale>  0 0.16363248E+03</rscale>
<asrwt>0</asrwt>
<pdfrwt beam="2">  1        1 0.69971984E-01 0.16363248E+03</pdfrwt>
<pdfrwt beam="1">  1       -1 0.22642695E-02 0.16363248E+03</pdfrwt>
<totfact> 0.27844129E+04</totfact>
</mgrwt>
</event>
<event>
 7    1  0.2787125E-009  0.9282295E+02  0.7818608E-02  0.1296156E+00
         -1   -1    0    0    0  501 -0.00000000000E+00  0.00000000000E+00  0.85334865288E+01  0.85334880171E+01  0.50400000000E-02 0.  1.
          1   -1    0    0  501    0  0.00000000000E+00 -0.00000000000E+00 -0.25242026986E+03  0.25242026991E+03  0.50400000000E-02 0. -1.
         23    2    1    2    0    0  0.71054273576E-14  0.00000000000E+00 -0.24388678333E+03  0.26095375792E+03  0.92822953480E+02 0.  0.
    9000005    2    3    3    0    0 -0.35684383545E+02  0.21154771779E+02 -0.17985171076E+03  0.18465572311E+03  0.54953266501E+01 0.  0.
         22    1    3    3    0    0  0.35684383545E+02 -0.21154771779E+02 -0.64035072562E+02  0.76298034811E+02  0.00000000000E+00 0.  1.
         22    1    4    4    0    0 -0.29677250144E+02  0.15026761086E+02 -0.14314823452E+03  0.14696244340E+03  0.00000000000E+00 0.  1.
         22    1    4    4    0    0 -0.60071334005E+01  0.61280106938E+01 -0.36703476243E+02  0.37693279707E+02  0.00000000000E+00 0.  1.
<mgrwt>
<rscale>  0 0.92822953E+02</rscale>
<asrwt>0</asrwt>
<pdfrwt beam="2">  1        1 0.38833882E-01 0.92822953E+02</pdfrwt>
<pdfrwt beam="1">  1       -1 0.13128444E-02 0.92822953E+02</pdfrwt>
<totfact> 0.11811048E+05</totfact>
</mgrwt>
</event>
<event>
 7    1  0.2787125E-009  0.9350093E+02  0.7818608E-02  0.1294589E+00
         -1   -1    0    0    0  501 -0.00000000000E+00  0.00000000000E+00  0.17774007617E+03  0.17774007624E+03  0.50400000000E-02 0.  1.
          1   -1    0    0  501    0  0.00000000000E+00 -0.00000000000E+00 -0.12296640340E+02  0.12296641373E+02  0.50400000000E-02 0. -1.
         23    2    1    2    0    0  0.00000000000E+00  0.17763568394E-14  0.16544343583E+03  0.19003671761E+03  0.93500928245E+02 0.  0.
    9000005    2    3    3    0    0 -0.32789117351E+02 -0.14689885793E+02  0.14350403711E+03  0.14793854452E+03  0.12187402945E+01 0.  0.
         22    1    3    3    0    0  0.32789117351E+02  0.14689885793E+02  0.21939398718E+02  0.42098173088E+02  0.00000000000E+00 0. -1.
         22    1    4    4    0    0 -0.28472335496E+01 -0.10077581721E+01  0.11131054294E+02  0.11533546077E+02  0.00000000000E+00 0.  1.
         22    1    4    4    0    0 -0.29941883802E+02 -0.13682127621E+02  0.13237298282E+03  0.13640499845E+03  0.00000000000E+00 0.  1.
<mgrwt>
<rscale>  0 0.93500928E+02</rscale>
<asrwt>0</asrwt>
<pdfrwt beam="2">  1        1 0.18917910E-02 0.93500928E+02</pdfrwt>
<pdfrwt beam="1">  1       -1 0.27344626E-01 0.93500928E+02</pdfrwt>
<totfact> 0.67156422E+04</totfact>
</mgrwt>
</event>
<event>
 7    1  0.2787125E-009  0.8921403E+02  0.7818608E-02  0.1304766E+00
         -1   -1    0    0    0  501 -0.00000000000E+00  0.00000000000E+00  0.18165317748E+02  0.18165318447E+02  0.50400000000E-02 0.  1.
          1   -1    0    0  501    0  0.00000000000E+00 -0.00000000000E+00 -0.10953763051E+03  0.10953763063E+03  0.50400000000E-02 0. -1.
         23    2    1    2    0    0  0.00000000000E+00  0.00000000000E+00 -0.91372312761E+02  0.12770294907E+03  0.89214032879E+02 0.  0.
    9000005    2    3    3    0    0  0.28942205510E+02 -0.18067564515E+02 -0.74609736310E+01  0.37120384625E+02  0.12576513027E+02 0.  0.
         22    1    3    3    0    0 -0.28942205510E+02  0.18067564515E+02 -0.83911339130E+02  0.90582564448E+02  0.00000000000E+00 0. -1.
         22    1    4    4    0    0  0.35990330980E+00 -0.24891248502E+01  0.20089035408E+01  0.32188454994E+01  0.00000000000E+00 0. -1.
         22    1    4    4    0    0  0.28582302200E+02 -0.15578439665E+02 -0.94698771719E+01  0.33901539126E+02  0.00000000000E+00 0. -1.
<mgrwt>
<rscale>  0 0.89214033E+02</rscale>
<asrwt>0</asrwt>
<pdfrwt beam="2">  1        1 0.16851943E-01 0.89214033E+02</pdfrwt>
<pdfrwt beam="1">  1       -1 0.27946644E-02 0.89214033E+02</pdfrwt>
<totfact> 0.11251413E+05</totfact>
</mgrwt>
</event>
<event>
 7    1  0.2787125E-009  0.9339678E+02  0.7818608E-02  0.1294828E+00
         -1   -1    0    0    0  501 -0.00000000000E+00  0.00000000000E+00  0.47329221904E+02  0.47329222173E+02  0.50400000000E-02 0.  1.
          1   -1    0    0  501    0  0.00000000000E+00 -0.00000000000E+00 -0.46075970471E+02  0.46075970747E+02  0.50400000000E-02 0. -1.
         23    2    1    2    0    0 -0.17763568394E-14 -0.71054273576E-14  0.12532514330E+01  0.93405192920E+02  0.93396784876E+02 0.  0.
    9000005    2    3    3    0    0 -0.10040090278E+02 -0.32040501468E+02  0.31253879256E+02  0.48378147526E+02  0.15370199818E+02 0.  0.
         22    1    3    3    0    0  0.10040090278E+02  0.32040501468E+02 -0.30000627823E+02  0.45027045393E+02  0.00000000000E+00 0. -1.
         22    1    4    4    0    0 -0.12774718505E+02 -0.19021046019E+02  0.15053273354E+02  0.27415226850E+02  0.00000000000E+00 0.  1.
         22    1    4    4    0    0  0.27346282269E+01 -0.13019455449E+02  0.16200605901E+02  0.20962920676E+02  0.00000000000E+00 0.  1.
<mgrwt>
<rscale>  0 0.93396785E+02</rscale>
<asrwt>0</asrwt>
<pdfrwt beam="2">  1        1 0.70886109E-02 0.93396785E+02</pdfrwt>
<pdfrwt beam="1">  1       -1 0.72814188E-02 0.93396785E+02</pdfrwt>
<totfact> 0.86558590E+04</totfact>
</mgrwt>
</event>
<event>
 7    1  0.2787125E-009  0.9152036E+02  0.7818608E-02  0.1299211E+00
          1   -1    0    0  501    0  0.00000000000E+00  0.00000000000E+00  0.54288144247E+03  0.54288144250E+03  0.50400000000E-02 0. -1.
         -1   -1    0    0    0  501 -0.00000000000E+00 -0.00000000000E+00 -0.38571834734E+01  0.38571867661E+01  0.50400000000E-02 0.  1.
         23    2    1    2    0    0  0.00000000000E+00  0.00000000000E+00  0.53902425900E+03  0.54673862926E+03  0.91520363514E+02 0.  0.
    9000005    2    3    3    0    0 -0.25964047866E+02  0.23119065179E+02  0.44692408926E+03  0.44829542623E+03  0.43617274066E+01 0.  0.
         22    1    3    3    0    0  0.25964047866E+02 -0.23119065179E+02  0.92100169745E+02  0.98443203033E+02  0.00000000000E+00 0.  1.
         22    1    4    4    0    0 -0.18664081460E+02  0.15935365601E+02  0.28937982989E+03  0.29041861125E+03  0.00000000000E+00 0.  1.
         22    1    4    4    0    0 -0.72999664060E+01  0.71836995779E+01  0.15754425937E+03  0.15787681498E+03  0.00000000000E+00 0.  1.
<mgrwt>
<rscale>  0 0.91520364E+02</rscale>
<asrwt>0</asrwt>
<pdfrwt beam="1">  1        1 0.83520228E-01 0.91520364E+02</pdfrwt>
<pdfrwt beam="2">  1       -1 0.59341306E-03 0.91520364E+02</pdfrwt>
<totfact> 0.13909841E+05</totfact>
</mgrwt>
</event>
<event>
 7    1  0.2787125E-009  0.8222531E+02  0.7818608E-02  0.1322852E+00
         -1   -1    0    0    0  501 -0.00000000000E+00  0.00000000000E+00  0.15044459592E+03  0.15044459600E+03  0.50400000000E-02 0.  1.
          1   -1    0    0  501    0  0.00000000000E+00 -0.00000000000E+00 -0.11235034925E+02  0.11235036056E+02  0.50400000000E-02 0. -1.
         23    2    1    2    0    0  0.00000000000E+00  0.00000000000E+00  0.13920956099E+03  0.16167963206E+03  0.82225309672E+02 0.  0.
    9000005    2    3    3    0    0 -0.19681187809E+02  0.38759941331E+01  0.14010101864E+03  0.14160060865E+03  0.44793374914E+01 0.  0.
         22    1    3    3    0    0  0.19681187809E+02 -0.38759941331E+01 -0.89145764392E+00  0.20079023403E+02  0.00000000000E+00 0. -1.
         22    1    4    4    0    0 -0.12156282481E+02  0.20365077511E+01  0.10013853364E+03  0.10089424408E+03  0.00000000000E+00 0.  1.
         22    1    4    4    0    0 -0.75249053276E+01  0.18394863820E+01  0.39962484994E+02  0.40706364579E+02  0.00000000000E+00 0.  1.
<mgrwt>
<rscale>  0 0.82225310E+02</rscale>
<asrwt>0</asrwt>
<pdfrwt beam="2">  1        1 0.17284671E-02 0.82225310E+02</pdfrwt>
<pdfrwt beam="1">  1       -1 0.23145321E-01 0.82225310E+02</pdfrwt>
<totfact> 0.97640356E+04</totfact>
</mgrwt>
</event>
<event>
 7    1  0.2787125E-009  0.9025668E+02  0.7818608E-02  0.1302231E+00
         -1   -1    0    0    0  501 -0.00000000000E+00  0.00000000000E+00  0.80471374398E+02  0.80471374556E+02  0.50400000000E-02 0.  1.
          1   -1    0    0  501    0  0.00000000000E+00 -0.00000000000E+00 -0.25307969041E+02  0.25307969543E+02  0.50400000000E-02 0. -1.
         23    2    1    2    0    0  0.35527136788E-14  0.00000000000E+00  0.55163405357E+02  0.10577934410E+03  0.90256680348E+02 0.  0.
    9000005    2    3    3    0    0 -0.27438634977E+02 -0.26560714501E+02  0.30852213448E+01  0.41200032441E+02  0.15151694235E+02 0.  0.
         22    1    3    3    0    0  0.27438634977E+02  0.26560714501E+02  0.52078184012E+02  0.64579311658E+02  0.00000000000E+00 0.  1.
         22    1    4    4    0    0 -0.21403493795E+01 -0.94186825604E+01  0.43977367811E+01  0.10612858495E+02  0.00000000000E+00 0. -1.
         22    1    4    4    0    0 -0.25298285597E+02 -0.17142031941E+02 -0.13125154363E+01  0.30587173946E+02  0.00000000000E+00 0. -1.
<mgrwt>
<rscale>  0 0.90256680E+02</rscale>
<asrwt>0</asrwt>
<pdfrwt beam="2">  1        1 0.38935338E-02 0.90256680E+02</pdfrwt>
<pdfrwt beam="1">  1       -1 0.12380211E-01 0.90256680E+02</pdfrwt>
<totfact> 0.86789461E+04</totfact>
</mgrwt>
</event>
<event>
 7    1  0.2787125E-009  0.9112612E+02  0.7818608E-02  0.1300147E+00
          1   -1    0    0  501    0  0.00000000000E+00  0.00000000000E+00  0.18196703454E+03  0.18196703461E+03  0.50400000000E-02 0. -1.
         -1   -1    0    0    0  501 -0.00000000000E+00 -0.00000000000E+00 -0.11408617107E+02  0.11408618220E+02  0.50400000000E-02 0.  1.
         23    2    1    2    0    0  0.71054273576E-14 -0.16653345369E-15  0.17055841743E+03  0.19337565283E+03  0.91126117827E+02 0.  0.
    9000005    2    3    3    0    0  0.43430015184E+02 -0.26858959712E+00  0.10769013854E+03  0.11696453551E+03  0.14046290215E+02 0.  0.
         22    1    3    3    0    0 -0.43430015184E+02  0.26858959712E+00  0.62868278889E+02  0.76411117317E+02  0.00000000000E+00 0.  1.
         22    1    4    4    0    0  0.42179544826E+02 -0.31534546800E+01  0.10266551146E+03  0.11103722584E+03  0.00000000000E+00 0.  1.
         22    1    4    4    0    0  0.12504703579E+01  0.28848650829E+01  0.50246270844E+01  0.59273096764E+01  0.00000000000E+00 0.  1.
<mgrwt>
<rscale>  0 0.91126118E+02</rscale>
<asrwt>0</asrwt>
<pdfrwt beam="1">  1        1 0.27994927E-01 0.91126118E+02</pdfrwt>
<pdfrwt beam="2">  1       -1 0.17551720E-02 0.91126118E+02</pdfrwt>
<totfact> 0.11644191E+05</totfact>
</mgrwt>
</event>
<event>
 7    1  0.2787125E-009  0.9219881E+02  0.7818608E-02  0.1297613E+00
         -1   -1    0    0    0  501 -0.00000000000E+00  0.00000000000E+00  0.44358754398E+02  0.44358754684E+02  0.50400000000E-02 0.  1.
          1   -1    0    0  501    0  0.00000000000E+00 -0.00000000000E+00 -0.47908357377E+02  0.47908357642E+02  0.50400000000E-02 0. -1.
         23    2    1    2    0    0  0.00000000000E+00  0.00000000000E+00 -0.35496029787E+01  0.92267112326E+02  0.92198808754E+02 0.  0.
    9000005    2    3    3    0    0 -0.26838900692E+02  0.15333015102E+02  0.30975548124E+02  0.45926913781E+02  0.13941624202E+02 0.  0.
         22    1    3    3    0    0  0.26838900692E+02 -0.15333015102E+02 -0.34525151103E+02  0.46340198545E+02  0.00000000000E+00 0. -1.
         22    1    4    4    0    0 -0.10760540420E+02  0.13254513985E+02  0.11489910465E+02  0.20578858414E+02  0.00000000000E+00 0. -1.
         22    1    4    4    0    0 -0.16078360272E+02  0.20785011166E+01  0.19485637660E+02  0.25348055367E+02  0.00000000000E+00 0. -1.
<mgrwt>
<rscale>  0 0.92198809E+02</rscale>
<asrwt>0</asrwt>
<pdfrwt beam="2">  1        1 0.73705165E-02 0.92198809E+02</pdfrwt>
<pdfrwt beam="1">  1       -1 0.68244238E-02 0.92198809E+02</pdfrwt>
<totfact> 0.90295825E+04</totfact>
</mgrwt>
</event>
<event>
 7    1  0.3255692E-009  0.9228846E+02  0.7818608E-02  0.1297403E+00
         -1   -1    0    0    0  501 -0.00000000000E+00  0.00000000000E+00  0.21419894998E+02  0.21419895591E+02  0.50400000000E-02 0.  1.
          1   -1    0    0  501    0  0.00000000000E+00 -0.00000000000E+00 -0.99407116505E+02  0.99407116633E+02  0.50400000000E-02 0. -1.
         23    2    1    2    0    0  0.00000000000E+00  0.71054273576E-14 -0.77987221507E+02  0.12082701222E+03  0.92288461708E+02 0.  0.
    9000005    2    3    3    0    0  0.90506782792E+01  0.34945713621E+02 -0.74901621392E+02  0.84596657466E+02  0.15595636872E+02 0.  0.
         22    1    3    3    0    0 -0.90506782792E+01 -0.34945713621E+02 -0.30856001150E+01  0.36230354757E+02  0.00000000000E+00 0.  1.
         22    1    4    4    0    0  0.94853972471E+01  0.12048051691E+02 -0.40138435912E+02  0.42967689581E+02  0.00000000000E+00 0.  1.
         22    1    4    4    0    0 -0.43471896795E+00  0.22897661929E+02 -0.34763185481E+02  0.41628967885E+02  0.00000000000E+00 0.  1.
<mgrwt>
<rscale>  0 0.92288462E+02</rscale>
<asrwt>0</asrwt>
<pdfrwt beam="2">  1        1 0.15293402E-01 0.92288462E+02</pdfrwt>
<pdfrwt beam="1">  1       -1 0.32953686E-02 0.92288462E+02</pdfrwt>
<totfact> 0.10095145E+05</totfact>
</mgrwt>
</event>
<event>
 7    1  0.2787125E-009  0.8809123E+02  0.7818608E-02  0.1307541E+00
         -1   -1    0    0    0  501 -0.00000000000E+00  0.00000000000E+00  0.30215617863E+03  0.30215617868E+03  0.50400000000E-02 0.  1.
          1   -1    0    0  501    0  0.00000000000E+00 -0.00000000000E+00 -0.64205729936E+01  0.64205749718E+01  0.50400000000E-02 0. -1.
         23    2    1    2    0    0  0.00000000000E+00  0.00000000000E+00  0.29573560564E+03  0.30857675365E+03  0.88091227987E+02 0.  0.
    9000005    2    3    3    0    0 -0.13006896626E+02 -0.22088451505E+02  0.27322963844E+03  0.27446520708E+03  0.44311989513E+01 0.  0.
         22    1    3    3    0    0  0.13006896626E+02  0.22088451505E+02  0.22505967198E+02  0.34111546568E+02  0.00000000000E+00 0. -1.
         22    1    4    4    0    0 -0.28692222589E+01 -0.85517341986E+01  0.10564447035E+03  0.10602885791E+03  0.00000000000E+00 0.  1.
         22    1    4    4    0    0 -0.10137674368E+02 -0.13536717307E+02  0.16758516809E+03  0.16843634917E+03  0.00000000000E+00 0.  1.
<mgrwt>
<rscale>  0 0.88091228E+02</rscale>
<asrwt>0</asrwt>
<pdfrwt beam="2">  1        1 0.98778040E-03 0.88091228E+02</pdfrwt>
<pdfrwt beam="1">  1       -1 0.46485576E-01 0.88091228E+02</pdfrwt>
<totfact> 0.66097194E+04</totfact>
</mgrwt>
</event>
<event>
 7    1  0.2787125E-009  0.9566550E+02  0.7818608E-02  0.1289684E+00
          1   -1    0    0  501    0  0.00000000000E+00  0.00000000000E+00  0.78675162528E+02  0.78675162690E+02  0.50400000000E-02 0. -1.
         -1   -1    0    0    0  501 -0.00000000000E+00 -0.00000000000E+00 -0.29081246702E+02  0.29081247139E+02  0.50400000000E-02 0.  1.
         23    2    1    2    0    0  0.00000000000E+00  0.00000000000E+00  0.49593915826E+02  0.10775640983E+03  0.95665497292E+02 0.  0.
    9000005    2    3    3    0    0 -0.10726810988E+02  0.46004116676E+02  0.26829083647E+02  0.55319010873E+02  0.10437912126E+02 0.  0.
         22    1    3    3    0    0  0.10726810988E+02 -0.46004116676E+02  0.22764832180E+02  0.52437398956E+02  0.00000000000E+00 0.  1.
         22    1    4    4    0    0 -0.53865657593E+01  0.16458233036E+02  0.44735758683E+01  0.17885787833E+02  0.00000000000E+00 0.  1.
         22    1    4    4    0    0 -0.53402452286E+01  0.29545883639E+02  0.22355507778E+02  0.37433223040E+02  0.00000000000E+00 0.  1.
<mgrwt>
<rscale>  0 0.95665497E+02</rscale>
<asrwt>0</asrwt>
<pdfrwt beam="1">  1        1 0.12103871E-01 0.95665497E+02</pdfrwt>
<pdfrwt beam="2">  1       -1 0.44740380E-02 0.95665497E+02</pdfrwt>
<totfact> 0.88006302E+04</totfact>
</mgrwt>
</event>
<event>
 7    1  0.2787125E-009  0.9168083E+02  0.7818608E-02  0.1298832E+00
          1   -1    0    0  501    0  0.00000000000E+00  0.00000000000E+00  0.64385237829E+02  0.64385238027E+02  0.50400000000E-02 0. -1.
         -1   -1    0    0    0  501 -0.00000000000E+00 -0.00000000000E+00 -0.32637043954E+02  0.32637044343E+02  0.50400000000E-02 0.  1.
         23    2    1    2    0    0  0.00000000000E+00  0.00000000000E+00  0.31748193876E+02  0.97022282370E+02  0.91680834757E+02 0.  0.
    9000005    2    3    3    0    0 -0.25922596191E+02  0.21603362189E+02  0.47349226788E+02  0.59845966265E+02  0.14174066093E+02 0.  0.
         22    1    3    3    0    0  0.25922596191E+02 -0.21603362189E+02 -0.15601032912E+02  0.37176316105E+02  0.00000000000E+00 0.  1.
         22    1    4    4    0    0 -0.43697134145E+01  0.46715414572E+01  0.17302571659E+01  0.66265741354E+01  0.00000000000E+00 0.  1.
         22    1    4    4    0    0 -0.21552882777E+02  0.16931820732E+02  0.45618969622E+02  0.53219392130E+02  0.00000000000E+00 0.  1.
<mgrwt>
<rscale>  0 0.91680835E+02</rscale>
<asrwt>0</asrwt>
<pdfrwt beam="1">  1        1 0.99054211E-02 0.91680835E+02</pdfrwt>
<pdfrwt beam="2">  1       -1 0.50210838E-02 0.91680835E+02</pdfrwt>
<totfact> 0.95933317E+04</totfact>
</mgrwt>
</event>
<event>
 7    1  0.2987450E-009  0.9063659E+02  0.7818608E-02  0.1301317E+00
          1   -1    0    0  501    0  0.00000000000E+00  0.00000000000E+00  0.54313921908E+03  0.54313921910E+03  0.50400000000E-02 0. -1.
         -1   -1    0    0    0  501 -0.00000000000E+00 -0.00000000000E+00 -0.37812533663E+01  0.37812567252E+01  0.50400000000E-02 0.  1.
         23    2    1    2    0    0  0.00000000000E+00  0.35527136788E-14  0.53935796571E+03  0.54692047583E+03  0.90636591406E+02 0.  0.
    9000005    2    3    3    0    0 -0.74838037740E+01 -0.27638779050E+02  0.47987214765E+03  0.48090175138E+03  0.13011801187E+02 0.  0.
         22    1    3    3    0    0  0.74838037740E+01  0.27638779050E+02  0.59485818068E+02  0.66018724446E+02  0.00000000000E+00 0.  1.
         22    1    4    4    0    0 -0.32683828615E+01 -0.86714076934E+01  0.26232422878E+03  0.26248785999E+03  0.00000000000E+00 0. -1.
         22    1    4    4    0    0 -0.42154209124E+01 -0.18967371356E+02  0.21754791887E+03  0.21841389139E+03  0.00000000000E+00 0. -1.
<mgrwt>
<rscale>  0 0.90636591E+02</rscale>
<asrwt>0</asrwt>
<pdfrwt beam="1">  1        1 0.83559887E-01 0.90636591E+02</pdfrwt>
<pdfrwt beam="2">  1       -1 0.58173150E-03 0.90636591E+02</pdfrwt>
<totfact> 0.14272540E+05</totfact>
</mgrwt>
</event>
<event>
 7    1  0.2787125E-009  0.9342926E+02  0.7818608E-02  0.1294753E+00
          1   -1    0    0  501    0  0.00000000000E+00  0.00000000000E+00  0.27619231088E+03  0.27619231092E+03  0.50400000000E-02 0. -1.
         -1   -1    0    0    0  501 -0.00000000000E+00 -0.00000000000E+00 -0.79012207086E+01  0.79012223160E+01  0.50400000000E-02 0.  1.
         23    2    1    2    0    0 -0.17763568394E-14  0.00000000000E+00  0.26829109017E+03  0.28409353324E+03  0.93429259681E+02 0.  0.
    9000005    2    3    3    0    0  0.74799176852E+01  0.38751858650E+02  0.20946633244E+03  0.21325563492E+03  0.66457263744E+01 0.  0.
         22    1    3    3    0    0 -0.74799176852E+01 -0.38751858650E+02  0.58824757728E+02  0.70837898325E+02  0.00000000000E+00 0.  1.
         22    1    4    4    0    0  0.25844930661E+01  0.43098374864E+01  0.34535218223E+02  0.34898934099E+02  0.00000000000E+00 0. -1.
         22    1    4    4    0    0  0.48954246191E+01  0.34442021163E+02  0.17493111422E+03  0.17835670082E+03  0.00000000000E+00 0. -1.
<mgrwt>
<rscale>  0 0.93429260E+02</rscale>
<asrwt>0</asrwt>
<pdfrwt beam="1">  1        1 0.42491123E-01 0.93429260E+02</pdfrwt>
<pdfrwt beam="2">  1       -1 0.12155726E-02 0.93429260E+02</pdfrwt>
<totfact> 0.11813575E+05</totfact>
</mgrwt>
</event>
<event>
 7    1  0.2787125E-009  0.8996924E+02  0.7818608E-02  0.1302926E+00
          1   -1    0    0  501    0  0.00000000000E+00  0.00000000000E+00  0.40073093153E+02  0.40073093470E+02  0.50400000000E-02 0. -1.
         -1   -1    0    0    0  501 -0.00000000000E+00 -0.00000000000E+00 -0.50498119615E+02  0.50498119867E+02  0.50400000000E-02 0.  1.
         23    2    1    2    0    0 -0.17763568394E-14  0.00000000000E+00 -0.10425026462E+02  0.90571213337E+02  0.89969236457E+02 0.  0.
    9000005    2    3    3    0    0 -0.15642782490E+02 -0.33914724290E+02  0.19962194939E+02  0.42422605962E+02  0.25066116824E+01 0.  0.
         22    1    3    3    0    0  0.15642782490E+02  0.33914724290E+02 -0.30387221401E+02  0.48148607375E+02  0.00000000000E+00 0.  1.
         22    1    4    4    0    0 -0.75351587953E+01 -0.13526695065E+02  0.86816397765E+01  0.17751646872E+02  0.00000000000E+00 0.  1.
         22    1    4    4    0    0 -0.81076236943E+01 -0.20388029225E+02  0.11280555162E+02  0.24670959090E+02  0.00000000000E+00 0.  1.
<mgrwt>
<rscale>  0 0.89969236E+02</rscale>
<asrwt>0</asrwt>
<pdfrwt beam="1">  1        1 0.61650913E-02 0.89969236E+02</pdfrwt>
<pdfrwt beam="2">  1       -1 0.77689415E-02 0.89969236E+02</pdfrwt>
<totfact> 0.94162533E+04</totfact>
</mgrwt>
</event>
<event>
 7    1  0.2787125E-009  0.8980392E+02  0.7818608E-02  0.1303327E+00
          1   -1    0    0  501    0  0.00000000000E+00  0.00000000000E+00  0.19377632944E+03  0.19377632951E+03  0.50400000000E-02 0. -1.
         -1   -1    0    0    0  501 -0.00000000000E+00 -0.00000000000E+00 -0.10404706806E+02  0.10404708027E+02  0.50400000000E-02 0.  1.
         23    2    1    2    0    0 -0.17763568394E-14 -0.35527136788E-14  0.18337162264E+03  0.20418103754E+03  0.89803920295E+02 0.  0.
    9000005    2    3    3    0    0 -0.11314152854E+02 -0.28849847567E+02  0.16495965482E+03  0.16813489602E+03  0.98656870499E+01 0.  0.
         22    1    3    3    0    0  0.11314152854E+02  0.28849847567E+02  0.18411967817E+02  0.36046141518E+02  0.00000000000E+00 0.  1.
         22    1    4    4    0    0 -0.74204145905E+01 -0.22056293082E+02  0.14155592635E+03  0.14345599640E+03  0.00000000000E+00 0. -1.
         22    1    4    4    0    0 -0.38937382631E+01 -0.67935544848E+01  0.23403728466E+02  0.24678899617E+02  0.00000000000E+00 0. -1.
<mgrwt>
<rscale>  0 0.89803920E+02</rscale>
<asrwt>0</asrwt>
<pdfrwt beam="1">  1        1 0.29811740E-01 0.89803920E+02</pdfrwt>
<pdfrwt beam="2">  1       -1 0.16007244E-02 0.89803920E+02</pdfrwt>
<totfact> 0.12256638E+05</totfact>
</mgrwt>
</event>
<event>
 7    1  0.2787125E-009  0.8901183E+02  0.7818608E-02  0.1305262E+00
          1   -1    0    0  501    0  0.00000000000E+00  0.00000000000E+00  0.19783188073E+01  0.19783252273E+01  0.50400000000E-02 0. -1.
         -1   -1    0    0    0  501 -0.00000000000E+00 -0.00000000000E+00 -0.10012406281E+04  0.10012406281E+04  0.50400000000E-02 0.  1.
         23    2    1    2    0    0  0.00000000000E+00  0.00000000000E+00 -0.99926230927E+03  0.10032189533E+04  0.89011828244E+02 0.  0.
    9000005    2    3    3    0    0 -0.11760560092E+02 -0.23465290574E+02 -0.90280107961E+03  0.90325046097E+03  0.11075886235E+02 0.  0.
         22    1    3    3    0    0  0.11760560092E+02  0.23465290574E+02 -0.96461229664E+02  0.99968492354E+02  0.00000000000E+00 0. -1.
         22    1    4    4    0    0 -0.97106840198E+01 -0.16296310254E+02 -0.46631993039E+03  0.46670562949E+03  0.00000000000E+00 0. -1.
         22    1    4    4    0    0 -0.20498760721E+01 -0.71689803201E+01 -0.43648114922E+03  0.43654483148E+03  0.00000000000E+00 0. -1.
<mgrwt>
<rscale>  0 0.89011828E+02</rscale>
<asrwt>0</asrwt>
<pdfrwt beam="1">  1        1 0.30435803E-03 0.89011828E+02</pdfrwt>
<pdfrwt beam="2">  1       -1 0.15403662E+00 0.89011828E+02</pdfrwt>
<totfact> 0.27277957E+04</totfact>
</mgrwt>
</event>
<event>
 7    1  0.2787125E-009  0.9195901E+02  0.7818608E-02  0.1298176E+00
         -1   -1    0    0    0  501 -0.00000000000E+00  0.00000000000E+00  0.30213701577E+02  0.30213701997E+02  0.50400000000E-02 0. -1.
          1   -1    0    0  501    0  0.00000000000E+00 -0.00000000000E+00 -0.69972049627E+02  0.69972049808E+02  0.50400000000E-02 0.  1.
         23    2    1    2    0    0  0.00000000000E+00 -0.35527136788E-14 -0.39758348050E+02  0.10018575181E+03  0.91959005133E+02 0.  0.
    9000005    2    3    3    0    0  0.25894164173E+02 -0.31263959652E+02 -0.41937436876E+02  0.59532445181E+02  0.11722649282E+02 0.  0.
         22    1    3    3    0    0 -0.25894164173E+02  0.31263959652E+02  0.21790888265E+01  0.40653306624E+02  0.00000000000E+00 0. -1.
         22    1    4    4    0    0  0.13386565069E+02 -0.21648772979E+02 -0.31994858432E+02  0.40884477028E+02  0.00000000000E+00 0.  1.
         22    1    4    4    0    0  0.12507599104E+02 -0.96151866737E+01 -0.99425784448E+01  0.18647968153E+02  0.00000000000E+00 0.  1.
<mgrwt>
<rscale>  0 0.91959005E+02</rscale>
<asrwt>0</asrwt>
<pdfrwt beam="2">  1        1 0.10764931E-01 0.91959005E+02</pdfrwt>
<pdfrwt beam="1">  1       -1 0.46482618E-02 0.91959005E+02</pdfrwt>
<totfact> 0.96360173E+04</totfact>
</mgrwt>
</event>
<event>
 7    1  0.2787125E-009  0.8904110E+02  0.7818608E-02  0.1305191E+00
          1   -1    0    0  501    0  0.00000000000E+00  0.00000000000E+00  0.72775495806E+03  0.72775495807E+03  0.50400000000E-02 0. -1.
         -1   -1    0    0    0  501 -0.00000000000E+00 -0.00000000000E+00 -0.27235507832E+01  0.27235554465E+01  0.50400000000E-02 0.  1.
         23    2    1    2    0    0 -0.71054273576E-14  0.17763568394E-14  0.72503140727E+03  0.73047851352E+03  0.89041098277E+02 0.  0.
    9000005    2    3    3    0    0  0.35585345007E+02 -0.15851091017E+02  0.52775588248E+03  0.52939344061E+03  0.14614020696E+02 0.  0.
         22    1    3    3    0    0 -0.35585345007E+02  0.15851091017E+02  0.19727552479E+03  0.20108507291E+03  0.00000000000E+00 0.  1.
         22    1    4    4    0    0  0.36644329263E+01 -0.79016561699E+01  0.10890012025E+03  0.10924788524E+03  0.00000000000E+00 0.  1.
         22    1    4    4    0    0  0.31920912081E+02 -0.79494348471E+01  0.41885576223E+03  0.42014555537E+03  0.00000000000E+00 0.  1.
<mgrwt>
<rscale>  0 0.89041098E+02</rscale>
<asrwt>0</asrwt>
<pdfrwt beam="1">  1        1 0.11196238E+00 0.89041098E+02</pdfrwt>
<pdfrwt beam="2">  1       -1 0.41900788E-03 0.89041098E+02</pdfrwt>
<totfact> 0.15124704E+05</totfact>
</mgrwt>
</event>
<event>
 7    1  0.2787125E-009  0.9064534E+02  0.7818608E-02  0.1301296E+00
         -1   -1    0    0    0  501 -0.00000000000E+00  0.00000000000E+00  0.13044572375E+02  0.13044573348E+02  0.50400000000E-02 0.  1.
          1   -1    0    0  501    0  0.00000000000E+00 -0.00000000000E+00 -0.15747118169E+03  0.15747118177E+03  0.50400000000E-02 0. -1.
         23    2    1    2    0    0  0.00000000000E+00  0.00000000000E+00 -0.14442660931E+03  0.17051575511E+03  0.90645337801E+02 0.  0.
    9000005    2    3    3    0    0  0.35110536717E+02  0.73624270932E+01 -0.12363922932E+03  0.12905408260E+03  0.90189847594E+01 0.  0.
         22    1    3    3    0    0 -0.35110536717E+02 -0.73624270932E+01 -0.20787379989E+02  0.41461672519E+02  0.00000000000E+00 0. -1.
         22    1    4    4    0    0  0.35225972411E+02  0.70285321540E+01 -0.11663493648E+03  0.12204088579E+03  0.00000000000E+00 0. -1.
         22    1    4    4    0    0 -0.11543569414E+00  0.33389493919E+00 -0.70042928459E+01  0.70131968104E+01  0.00000000000E+00 0. -1.
<mgrwt>
<rscale>  0 0.90645338E+02</rscale>
<asrwt>0</asrwt>
<pdfrwt beam="2">  1        1 0.24226334E-01 0.90645338E+02</pdfrwt>
<pdfrwt beam="1">  1       -1 0.20068575E-02 0.90645338E+02</pdfrwt>
<totfact> 0.11493984E+05</totfact>
</mgrwt>
</event>
<event>
 7    1  0.2787125E-009  0.9212521E+02  0.7818608E-02  0.1297785E+00
          1   -1    0    0  501    0  0.00000000000E+00  0.00000000000E+00  0.39683943221E+03  0.39683943224E+03  0.50400000000E-02 0. -1.
         -1   -1    0    0    0  501 -0.00000000000E+00 -0.00000000000E+00 -0.53466535090E+01  0.53466558844E+01  0.50400000000E-02 0.  1.
         23    2    1    2    0    0  0.00000000000E+00  0.35527136788E-14  0.39149277870E+03  0.40218608812E+03  0.92125206688E+02 0.  0.
    9000005    2    3    3    0    0 -0.27020739618E+02 -0.15312904166E+02  0.34294652538E+03  0.34455498441E+03  0.11883291262E+02 0.  0.
         22    1    3    3    0    0  0.27020739618E+02  0.15312904166E+02  0.48546253321E+02  0.57631103711E+02  0.00000000000E+00 0.  1.
         22    1    4    4    0    0 -0.36476964562E+01  0.20065280155E+01  0.43226671000E+02  0.43426684537E+02  0.00000000000E+00 0.  1.
         22    1    4    4    0    0 -0.23373043162E+02 -0.17319432182E+02  0.29971985438E+03  0.30112829987E+03  0.00000000000E+00 0.  1.
<mgrwt>
<rscale>  0 0.92125207E+02</rscale>
<asrwt>0</asrwt>
<pdfrwt beam="1">  1        1 0.61052226E-01 0.92125207E+02</pdfrwt>
<pdfrwt beam="2">  1       -1 0.82256219E-03 0.92125207E+02</pdfrwt>
<totfact> 0.13106074E+05</totfact>
</mgrwt>
</event>
<event>
 7    1  0.2787125E-009  0.9020526E+02  0.7818608E-02  0.1302355E+00
          1   -1    0    0  501    0  0.00000000000E+00  0.00000000000E+00  0.54406167139E+02  0.54406167372E+02  0.50400000000E-02 0. -1.
         -1   -1    0    0    0  501 -0.00000000000E+00 -0.00000000000E+00 -0.37390008451E+02  0.37390008791E+02  0.50400000000E-02 0.  1.
         23    2    1    2    0    0  0.00000000000E+00  0.00000000000E+00  0.17016158688E+02  0.91796176163E+02  0.90205256508E+02 0.  0.
    9000005    2    3    3    0    0  0.15128610340E+02  0.26047091223E+02  0.42654822515E+02  0.52240305615E+02  0.15132200560E+01 0.  0.
         22    1    3    3    0    0 -0.15128610340E+02 -0.26047091223E+02 -0.25638663827E+02  0.39555870548E+02  0.00000000000E+00 0.  1.
         22    1    4    4    0    0  0.90112196991E+01  0.14830323945E+02  0.25711163896E+02  0.31019421943E+02  0.00000000000E+00 0.  1.
         22    1    4    4    0    0  0.61173906414E+01  0.11216767277E+02  0.16943658619E+02  0.21220883672E+02  0.00000000000E+00 0.  1.
<mgrwt>
<rscale>  0 0.90205257E+02</rscale>
<asrwt>0</asrwt>
<pdfrwt beam="1">  1        1 0.83701796E-02 0.90205257E+02</pdfrwt>
<pdfrwt beam="2">  1       -1 0.57523091E-02 0.90205257E+02</pdfrwt>
<totfact> 0.97831325E+04</totfact>
</mgrwt>
</event>
<event>
 7    1  0.2787125E-009  0.9026988E+02  0.7818608E-02  0.1302199E+00
          1   -1    0    0  501    0  0.00000000000E+00  0.00000000000E+00  0.47388343640E+03  0.47388343642E+03  0.50400000000E-02 0. -1.
         -1   -1    0    0    0  501 -0.00000000000E+00 -0.00000000000E+00 -0.42988674942E+01  0.42988704487E+01  0.50400000000E-02 0.  1.
         23    2    1    2    0    0  0.00000000000E+00  0.00000000000E+00  0.46958456890E+03  0.47818230687E+03  0.90269880106E+02 0.  0.
    9000005    2    3    3    0    0 -0.14187318251E+02  0.41872584946E+02  0.22143841763E+03  0.22612853133E+03  0.12022749841E+02 0.  0.
         22    1    3    3    0    0  0.14187318251E+02 -0.41872584946E+02  0.24814615128E+03  0.25205377554E+03  0.00000000000E+00 0.  1.
         22    1    4    4    0    0 -0.11506570292E+02  0.21303211792E+02  0.97191931513E+02  0.10016236591E+03  0.00000000000E+00 0. -1.
         22    1    4    4    0    0 -0.26807479590E+01  0.20569373154E+02  0.12424648611E+03  0.12596616543E+03  0.00000000000E+00 0. -1.
<mgrwt>
<rscale>  0 0.90269880E+02</rscale>
<asrwt>0</asrwt>
<pdfrwt beam="1">  1        1 0.72905123E-01 0.90269880E+02</pdfrwt>
<pdfrwt beam="2">  1       -1 0.66136465E-03 0.90269880E+02</pdfrwt>
<totfact> 0.14204802E+05</totfact>
</mgrwt>
</event>
<event>
 7    1  0.2787125E-009  0.1059444E+03  0.7818608E-02  0.1268270E+00
         -1   -1    0    0    0  501 -0.00000000000E+00  0.00000000000E+00  0.73941431256E+01  0.73941448432E+01  0.50400000000E-02 0.  1.
          1   -1    0    0  501    0  0.00000000000E+00 -0.00000000000E+00 -0.37949679122E+03  0.37949679126E+03  0.50400000000E-02 0. -1.
         23    2    1    2    0    0 -0.88817841970E-15  0.00000000000E+00 -0.37210264810E+03  0.38689093610E+03  0.10594439917E+03 0.  0.
    9000005    2    3    3    0    0 -0.43520207873E+01 -0.12195883210E+02 -0.37346754062E+03  0.37387008421E+03  0.11539337924E+02 0.  0.
         22    1    3    3    0    0  0.43520207873E+01  0.12195883210E+02  0.13648925255E+01  0.13020851885E+02  0.00000000000E+00 0.  1.
         22    1    4    4    0    0 -0.20700859965E+01 -0.12174099749E+02 -0.35991286082E+03  0.36012464696E+03  0.00000000000E+00 0. -1.
         22    1    4    4    0    0 -0.22819347908E+01 -0.21783460929E-01 -0.13554679800E+02  0.13745437257E+02  0.00000000000E+00 0. -1.
<mgrwt>
<rscale>  0 0.10594440E+03</rscale>
<asrwt>0</asrwt>
<pdfrwt beam="2">  1        1 0.58384107E-01 0.10594440E+03</pdfrwt>
<pdfrwt beam="1">  1       -1 0.11375609E-02 0.10594440E+03</pdfrwt>
<totfact> 0.89452904E+04</totfact>
</mgrwt>
</event>
<event>
 7    1  0.2787125E-009  0.9051379E+02  0.7818608E-02  0.1301612E+00
          1   -1    0    0  501    0  0.00000000000E+00  0.00000000000E+00  0.85084397905E+02  0.85084398055E+02  0.50400000000E-02 0. -1.
         -1   -1    0    0    0  501 -0.00000000000E+00 -0.00000000000E+00 -0.24072410136E+02  0.24072410664E+02  0.50400000000E-02 0.  1.
         23    2    1    2    0    0  0.00000000000E+00 -0.88817841970E-15  0.61011987769E+02  0.10915680872E+03  0.90513790320E+02 0.  0.
    9000005    2    3    3    0    0 -0.18343782506E+02  0.61442739874E+01 -0.16888569084E+02  0.28890108167E+02  0.13235109548E+02 0.  0.
         22    1    3    3    0    0  0.18343782506E+02 -0.61442739874E+01  0.77900556853E+02  0.80266700552E+02  0.00000000000E+00 0. -1.
         22    1    4    4    0    0 -0.12256822574E+02  0.68054507164E+01 -0.17844732735E+02  0.22693134324E+02  0.00000000000E+00 0.  1.
         22    1    4    4    0    0 -0.60869599321E+01 -0.66117672905E+00  0.95616365116E+00  0.61969738429E+01  0.00000000000E+00 0.  1.
<mgrwt>
<rscale>  0 0.90513790E+02</rscale>
<asrwt>0</asrwt>
<pdfrwt beam="1">  1        1 0.13089907E-01 0.90513790E+02</pdfrwt>
<pdfrwt beam="2">  1       -1 0.37034478E-02 0.90513790E+02</pdfrwt>
<totfact> 0.10378776E+05</totfact>
</mgrwt>
</event>
<event>
 7    1  0.2787125E-009  0.1024460E+03  0.7818608E-02  0.1275235E+00
          1   -1    0    0  501    0  0.00000000000E+00  0.00000000000E+00  0.21763563643E+03  0.21763563649E+03  0.50400000000E-02 0. -1.
         -1   -1    0    0    0  501 -0.00000000000E+00 -0.00000000000E+00 -0.12055916550E+02  0.12055917603E+02  0.50400000000E-02 0.  1.
         23    2    1    2    0    0  0.00000000000E+00  0.00000000000E+00  0.20557971988E+03  0.22969155409E+03  0.10244602869E+03 0.  0.
    9000005    2    3    3    0    0  0.46119706853E+02 -0.21650832437E+02  0.91736782933E+02  0.10496785867E+03  0.26130645922E+01 0.  0.
         22    1    3    3    0    0 -0.46119706853E+02  0.21650832437E+02  0.11384293694E+03  0.12472369541E+03  0.00000000000E+00 0.  1.
         22    1    4    4    0    0  0.41420099053E+02 -0.20054739557E+02  0.81641209674E+02  0.93718217553E+02  0.00000000000E+00 0. -1.
         22    1    4    4    0    0  0.46996078001E+01 -0.15960928801E+01  0.10095573259E+02  0.11249641122E+02  0.00000000000E+00 0. -1.
<mgrwt>
<rscale>  0 0.10244603E+03</rscale>
<asrwt>0</asrwt>
<pdfrwt beam="1">  1        1 0.33482405E-01 0.10244603E+03</pdfrwt>
<pdfrwt beam="2">  1       -1 0.18547565E-02 0.10244603E+03</pdfrwt>
<totfact> 0.87914490E+04</totfact>
</mgrwt>
</event>
<event>
 7    1  0.2787125E-009  0.9204747E+02  0.7818608E-02  0.1297968E+00
          1   -1    0    0  501    0  0.00000000000E+00  0.00000000000E+00  0.28944339780E+02  0.28944340219E+02  0.50400000000E-02 0. -1.
         -1   -1    0    0    0  501 -0.00000000000E+00 -0.00000000000E+00 -0.73181298906E+02  0.73181299080E+02  0.50400000000E-02 0.  1.
         23    2    1    2    0    0  0.00000000000E+00 -0.44408920985E-15 -0.44236959126E+02  0.10212563930E+03  0.92047474976E+02 0.  0.
    9000005    2    3    3    0    0  0.30204381548E+02 -0.31910209620E+01 -0.60217454050E+02  0.67805623309E+02  0.69981069301E+01 0.  0.
         22    1    3    3    0    0 -0.30204381548E+02  0.31910209620E+01  0.15980494924E+02  0.34320015989E+02  0.00000000000E+00 0. -1.
         22    1    4    4    0    0  0.48102603805E+00  0.10361110567E+01 -0.24047119241E+01  0.26622455951E+01  0.00000000000E+00 0.  1.
         22    1    4    4    0    0  0.29723355510E+02 -0.42271320187E+01 -0.57812742126E+02  0.65143377714E+02  0.00000000000E+00 0.  1.
<mgrwt>
<rscale>  0 0.92047475E+02</rscale>
<asrwt>0</asrwt>
<pdfrwt beam="1">  1        1 0.44529754E-02 0.92047475E+02</pdfrwt>
<pdfrwt beam="2">  1       -1 0.11258661E-01 0.92047475E+02</pdfrwt>
<totfact> 0.83853467E+04</totfact>
</mgrwt>
</event>
<event>
 7    1  0.2787125E-009  0.9083424E+02  0.7818608E-02  0.1300844E+00
         -1   -1    0    0    0  501 -0.00000000000E+00  0.00000000000E+00  0.81867969675E+01  0.81867985188E+01  0.50400000000E-02 0.  1.
          1   -1    0    0  501    0  0.00000000000E+00 -0.00000000000E+00 -0.25195625686E+03  0.25195625691E+03  0.50400000000E-02 0. -1.
         23    2    1    2    0    0  0.00000000000E+00  0.00000000000E+00 -0.24376945989E+03  0.26014305543E+03  0.90834243057E+02 0.  0.
    9000005    2    3    3    0    0  0.41683074992E+02 -0.13472575947E+02 -0.15314042812E+03  0.15948218695E+03  0.79742200411E+01 0.  0.
         22    1    3    3    0    0 -0.41683074992E+02  0.13472575947E+02 -0.90629031769E+02  0.10066086848E+03  0.00000000000E+00 0.  1.
         22    1    4    4    0    0  0.16797144934E+01 -0.58892213803E-01 -0.22790736888E+01  0.28317990662E+01  0.00000000000E+00 0.  1.
         22    1    4    4    0    0  0.40003360499E+02 -0.13413683733E+02 -0.15086135443E+03  0.15665038788E+03  0.00000000000E+00 0.  1.
<mgrwt>
<rscale>  0 0.90834243E+02</rscale>
<asrwt>0</asrwt>
<pdfrwt beam="2">  1        1 0.38762495E-01 0.90834243E+02</pdfrwt>
<pdfrwt beam="1">  1       -1 0.12595075E-02 0.90834243E+02</pdfrwt>
<totfact> 0.12510917E+05</totfact>
</mgrwt>
</event>
<event>
 7    1  0.2787125E-009  0.8780487E+02  0.7818608E-02  0.1308256E+00
         -1   -1    0    0    0  501 -0.00000000000E+00  0.00000000000E+00  0.20745105260E+03  0.20745105266E+03  0.50400000000E-02 0.  1.
          1   -1    0    0  501    0  0.00000000000E+00 -0.00000000000E+00 -0.92909804023E+01  0.92909817693E+01  0.50400000000E-02 0. -1.
         23    2    1    2    0    0  0.00000000000E+00  0.00000000000E+00  0.19816007219E+03  0.21674203443E+03  0.87804870454E+02 0.  0.
    9000005    2    3    3    0    0  0.30330553983E+02 -0.14130360114E+02  0.30183105802E+02  0.45464859006E+02  0.60352254876E+01 0.  0.
         22    1    3    3    0    0 -0.30330553983E+02  0.14130360114E+02  0.16797696639E+03  0.17127717542E+03  0.00000000000E+00 0.  1.
         22    1    4    4    0    0  0.11840138196E+02 -0.73898495547E+01  0.93135779486E+01  0.16779197929E+02  0.00000000000E+00 0. -1.
         22    1    4    4    0    0  0.18490415787E+02 -0.67405105598E+01  0.20869527853E+02  0.28685661077E+02  0.00000000000E+00 0. -1.
<mgrwt>
<rscale>  0 0.87804870E+02</rscale>
<asrwt>0</asrwt>
<pdfrwt beam="2">  1        1 0.14293818E-02 0.87804870E+02</pdfrwt>
<pdfrwt beam="1">  1       -1 0.31915544E-01 0.87804870E+02</pdfrwt>
<totfact> 0.75768434E+04</totfact>
</mgrwt>
</event>
<event>
 7    1  0.4887936E-009  0.9099398E+02  0.7818608E-02  0.1300462E+00
          1   -1    0    0  501    0  0.00000000000E+00  0.00000000000E+00  0.24722476140E+03  0.24722476146E+03  0.50400000000E-02 0. -1.
         -1   -1    0    0    0  501 -0.00000000000E+00 -0.00000000000E+00 -0.83728510838E+01  0.83728526007E+01  0.50400000000E-02 0.  1.
         23    2    1    2    0    0  0.00000000000E+00  0.00000000000E+00  0.23885191032E+03  0.25559761406E+03  0.90993984678E+02 0.  0.
    9000005    2    3    3    0    0  0.11223931851E+02 -0.42695342233E+02  0.13387775773E+03  0.14171854835E+03  0.14561045167E+02 0.  0.
         22    1    3    3    0    0 -0.11223931851E+02  0.42695342233E+02  0.10497415259E+03  0.11387906570E+03  0.00000000000E+00 0. -1.
         22    1    4    4    0    0  0.11169901163E+02 -0.16510783403E+02  0.49208536819E+02  0.53092869168E+02  0.00000000000E+00 0. -1.
         22    1    4    4    0    0  0.54030687760E-01 -0.26184558830E+02  0.84669220916E+02  0.88625679184E+02  0.00000000000E+00 0. -1.
<mgrwt>
<rscale>  0 0.90993985E+02</rscale>
<asrwt>0</asrwt>
<pdfrwt beam="1">  1        1 0.38034576E-01 0.90993985E+02</pdfrwt>
<pdfrwt beam="2">  1       -1 0.12881312E-02 0.90993985E+02</pdfrwt>
<totfact> 0.12406530E+05</totfact>
</mgrwt>
</event>
<event>
 7    1  0.2787125E-009  0.9413726E+02  0.7818608E-02  0.1293131E+00
          1   -1    0    0  501    0  0.00000000000E+00  0.00000000000E+00  0.80314296983E+02  0.80314297141E+02  0.50400000000E-02 0. -1.
         -1   -1    0    0    0  501 -0.00000000000E+00 -0.00000000000E+00 -0.27584823195E+02  0.27584823656E+02  0.50400000000E-02 0.  1.
         23    2    1    2    0    0  0.00000000000E+00  0.35527136788E-14  0.52729473788E+02  0.10789912080E+03  0.94137255445E+02 0.  0.
    9000005    2    3    3    0    0 -0.19679484118E+02 -0.28442968993E+02  0.61656419999E+02  0.72178329247E+02  0.14557214893E+02 0.  0.
         22    1    3    3    0    0  0.19679484118E+02  0.28442968993E+02 -0.89269462116E+01  0.35720791550E+02  0.00000000000E+00 0.  1.
         22    1    4    4    0    0 -0.58428073358E+00 -0.10858295270E+02  0.24987962761E+02  0.27251463137E+02  0.00000000000E+00 0. -1.
         22    1    4    4    0    0 -0.19095203384E+02 -0.17584673723E+02  0.36668457238E+02  0.44926866110E+02  0.00000000000E+00 0. -1.
<mgrwt>
<rscale>  0 0.94137255E+02</rscale>
<asrwt>0</asrwt>
<pdfrwt beam="1">  1        1 0.12356046E-01 0.94137255E+02</pdfrwt>
<pdfrwt beam="2">  1       -1 0.42438191E-02 0.94137255E+02</pdfrwt>
<totfact> 0.92317940E+04</totfact>
</mgrwt>
</event>
<event>
 7    1  0.2787125E-009  0.9589057E+02  0.7818608E-02  0.1289183E+00
          1   -1    0    0  501    0  0.00000000000E+00  0.00000000000E+00  0.14519383148E+03  0.14519383157E+03  0.50400000000E-02 0. -1.
         -1   -1    0    0    0  501 -0.00000000000E+00 -0.00000000000E+00 -0.15832284528E+02  0.15832285330E+02  0.50400000000E-02 0.  1.
         23    2    1    2    0    0 -0.88817841970E-15  0.00000000000E+00  0.12936154695E+03  0.16102611690E+03  0.95890565194E+02 0.  0.
    9000005    2    3    3    0    0  0.75723529089E+01  0.37084324120E+02  0.17214934535E+02  0.42664593163E+02  0.95564593176E+01 0.  0.
         22    1    3    3    0    0 -0.75723529089E+01 -0.37084324120E+02  0.11214661242E+03  0.11836152374E+03  0.00000000000E+00 0. -1.
         22    1    4    4    0    0  0.61163576337E+01  0.89388475802E+01  0.54412933435E+01  0.12121076685E+02  0.00000000000E+00 0.  1.
         22    1    4    4    0    0  0.14559952752E+01  0.28145476540E+02  0.11773641191E+02  0.30543516477E+02  0.00000000000E+00 0.  1.
<mgrwt>
<rscale>  0 0.95890565E+02</rscale>
<asrwt>0</asrwt>
<pdfrwt beam="1">  1        1 0.22337513E-01 0.95890565E+02</pdfrwt>
<pdfrwt beam="2">  1       -1 0.24357361E-02 0.95890565E+02</pdfrwt>
<totfact> 0.97234343E+04</totfact>
</mgrwt>
</event>
<event>
 7    1  0.2787125E-009  0.9470876E+02  0.7818608E-02  0.1291833E+00
         -1   -1    0    0    0  501 -0.00000000000E+00  0.00000000000E+00  0.19926694147E+01  0.19926757884E+01  0.50400000000E-02 0.  1.
          1   -1    0    0  501    0  0.00000000000E+00 -0.00000000000E+00 -0.11253414710E+04  0.11253414710E+04  0.50400000000E-02 0. -1.
         23    2    1    2    0    0  0.00000000000E+00  0.00000000000E+00 -0.11233488016E+04  0.11273341468E+04  0.94708756286E+02 0.  0.
    9000005    2    3    3    0    0 -0.75408291378E+01  0.30865195989E+02 -0.97759014656E+03  0.97815268032E+03  0.95208680900E+01 0.  0.
         22    1    3    3    0    0  0.75408291378E+01 -0.30865195989E+02 -0.14575865500E+03  0.14918146646E+03  0.00000000000E+00 0.  1.
         22    1    4    4    0    0 -0.18071351279E+01  0.10349384461E+00 -0.69484134600E+02  0.69507707554E+02  0.00000000000E+00 0.  1.
         22    1    4    4    0    0 -0.57336940099E+01  0.30761702144E+02 -0.90810601196E+03  0.90864497276E+03  0.00000000000E+00 0.  1.
<mgrwt>
<rscale>  0 0.94708756E+02</rscale>
<asrwt>0</asrwt>
<pdfrwt beam="2">  1        1 0.17312895E+00 0.94708756E+02</pdfrwt>
<pdfrwt beam="1">  1       -1 0.30656592E-03 0.94708756E+02</pdfrwt>
<totfact> 0.11833767E+05</totfact>
</mgrwt>
</event>
<event>
 7    1  0.2787125E-009  0.8950324E+02  0.7818608E-02  0.1304059E+00
          1   -1    0    0  501    0  0.00000000000E+00  0.00000000000E+00  0.98489213290E+01  0.98489226186E+01  0.50400000000E-02 0. -1.
         -1   -1    0    0    0  501 -0.00000000000E+00 -0.00000000000E+00 -0.20334283017E+03  0.20334283023E+03  0.50400000000E-02 0.  1.
         23    2    1    2    0    0 -0.71054273576E-14  0.44408920985E-15 -0.19349390884E+03  0.21319175285E+03  0.89503244215E+02 0.  0.
    9000005    2    3    3    0    0 -0.43480265557E+02  0.29861163271E+01 -0.11913769695E+03  0.12700418629E+03  0.60681229374E+01 0.  0.
         22    1    3    3    0    0  0.43480265557E+02 -0.29861163271E+01 -0.74356211887E+02  0.86187566562E+02  0.00000000000E+00 0.  1.
         22    1    4    4    0    0 -0.14980357672E+02  0.34762934975E+01 -0.46332263502E+02  0.48817766987E+02  0.00000000000E+00 0. -1.
         22    1    4    4    0    0 -0.28499907885E+02 -0.49017717040E+00 -0.72805433451E+02  0.78186419300E+02  0.00000000000E+00 0. -1.
<mgrwt>
<rscale>  0 0.89503244E+02</rscale>
<asrwt>0</asrwt>
<pdfrwt beam="1">  1        1 0.15152189E-02 0.89503244E+02</pdfrwt>
<pdfrwt beam="2">  1       -1 0.31283509E-01 0.89503244E+02</pdfrwt>
<totfact> 0.72507420E+04</totfact>
</mgrwt>
</event>
<event>
 7    1  0.2787125E-009  0.9083349E+02  0.7818608E-02  0.1300846E+00
          1   -1    0    0  501    0  0.00000000000E+00  0.00000000000E+00  0.25811800190E+02  0.25811800682E+02  0.50400000000E-02 0. -1.
         -1   -1    0    0    0  501 -0.00000000000E+00 -0.00000000000E+00 -0.79912319137E+02  0.79912319296E+02  0.50400000000E-02 0.  1.
         23    2    1    2    0    0  0.00000000000E+00  0.17763568394E-14 -0.54100518947E+02  0.10572411998E+03  0.90833492693E+02 0.  0.
    9000005    2    3    3    0    0  0.17817189430E+02  0.11140285173E+02  0.19671846906E+02  0.29017404779E+02  0.36701534718E+01 0.  0.
         22    1    3    3    0    0 -0.17817189430E+02 -0.11140285173E+02 -0.73772365854E+02  0.76706715199E+02  0.00000000000E+00 0.  1.
         22    1    4    4    0    0  0.16790385527E+02  0.10888555900E+02  0.19508888671E+02  0.27947708902E+02  0.00000000000E+00 0.  1.
         22    1    4    4    0    0  0.10268039035E+01  0.25172927250E+00  0.16295823574E+00  0.10696958771E+01  0.00000000000E+00 0.  1.
<mgrwt>
<rscale>  0 0.90833493E+02</rscale>
<asrwt>0</asrwt>
<pdfrwt beam="1">  1        1 0.39710463E-02 0.90833493E+02</pdfrwt>
<pdfrwt beam="2">  1       -1 0.12294203E-01 0.90833493E+02</pdfrwt>
<totfact> 0.85487760E+04</totfact>
</mgrwt>
</event>
<event>
 7    1  0.2787125E-009  0.9140308E+02  0.7818608E-02  0.1299489E+00
          1   -1    0    0  501    0  0.00000000000E+00  0.00000000000E+00  0.76126009947E+03  0.76126009948E+03  0.50400000000E-02 0. -1.
         -1   -1    0    0    0  501 -0.00000000000E+00 -0.00000000000E+00 -0.27436471952E+01  0.27436518243E+01  0.50400000000E-02 0.  1.
         23    2    1    2    0    0 -0.17763568394E-14 -0.35527136788E-14  0.75851645227E+03  0.76400375131E+03  0.91403083349E+02 0.  0.
    9000005    2    3    3    0    0 -0.13960760472E+02 -0.16914243939E+02  0.71314890305E+03  0.71361318668E+03  0.13469513854E+02 0.  0.
         22    1    3    3    0    0  0.13960760472E+02  0.16914243939E+02  0.45367549221E+02  0.50390564625E+02  0.00000000000E+00 0.  1.
         22    1    4    4    0    0 -0.16548147678E+02 -0.12996820625E+02  0.58064122652E+03  0.58102236830E+03  0.00000000000E+00 0.  1.
         22    1    4    4    0    0  0.25873872064E+01 -0.39174233136E+01  0.13250767653E+03  0.13259081838E+03  0.00000000000E+00 0.  1.
<mgrwt>
<rscale>  0 0.91403083E+02</rscale>
<asrwt>0</asrwt>
<pdfrwt beam="1">  1        1 0.11711708E+00 0.91403083E+02</pdfrwt>
<pdfrwt beam="2">  1       -1 0.42209940E-03 0.91403083E+02</pdfrwt>
<totfact> 0.14087331E+05</totfact>
</mgrwt>
</event>
<event>
 7    1  0.2787125E-009  0.9014781E+02  0.7818608E-02  0.1302494E+00
          1   -1    0    0  501    0  0.00000000000E+00  0.00000000000E+00  0.11155130375E+02  0.11155131513E+02  0.50400000000E-02 0. -1.
         -1   -1    0    0    0  501 -0.00000000000E+00 -0.00000000000E+00 -0.18212758917E+03  0.18212758924E+03  0.50400000000E-02 0.  1.
         23    2    1    2    0    0 -0.17763568394E-14  0.00000000000E+00 -0.17097245880E+03  0.19328272075E+03  0.90147814589E+02 0.  0.
    9000005    2    3    3    0    0  0.10588364364E+02  0.37665173851E+02 -0.40595162130E+02  0.57161384193E+02  0.94168929763E+01 0.  0.
         22    1    3    3    0    0 -0.10588364364E+02 -0.37665173851E+02 -0.13037729667E+03  0.13612133656E+03  0.00000000000E+00 0.  1.
         22    1    4    4    0    0  0.42896562993E+01  0.22566413624E+02 -0.29524494257E+02  0.37407752354E+02  0.00000000000E+00 0.  1.
         22    1    4    4    0    0  0.62987080647E+01  0.15098760227E+02 -0.11070667873E+02  0.19753631839E+02  0.00000000000E+00 0.  1.
<mgrwt>
<rscale>  0 0.90147815E+02</rscale>
<asrwt>0</asrwt>
<pdfrwt beam="1">  1        1 0.17161741E-02 0.90147815E+02</pdfrwt>
<pdfrwt beam="2">  1       -1 0.28019627E-01 0.90147815E+02</pdfrwt>
<totfact> 0.73379725E+04</totfact>
</mgrwt>
</event>
<event>
 7    1  0.2787125E-009  0.9821690E+02  0.7818608E-02  0.1284091E+00
          1   -1    0    0  501    0  0.00000000000E+00  0.00000000000E+00  0.12652883106E+03  0.12652883116E+03  0.50400000000E-02 0. -1.
         -1   -1    0    0    0  501 -0.00000000000E+00 -0.00000000000E+00 -0.19060003177E+02  0.19060003843E+02  0.50400000000E-02 0.  1.
         23    2    1    2    0    0 -0.17763568394E-14  0.00000000000E+00  0.10746882789E+03  0.14558883501E+03  0.98216902370E+02 0.  0.
    9000005    2    3    3    0    0  0.14835762026E+02  0.43884719959E+02  0.30237215694E+02  0.55529463464E+02  0.48232373853E+01 0.  0.
         22    1    3    3    0    0 -0.14835762026E+02 -0.43884719959E+02  0.77231612192E+02  0.90059371543E+02  0.00000000000E+00 0.  1.
         22    1    4    4    0    0  0.24317548410E+01  0.93173385894E+01  0.41719465598E+01  0.10494349341E+02  0.00000000000E+00 0. -1.
         22    1    4    4    0    0  0.12404007185E+02  0.34567381370E+02  0.26065269135E+02  0.45035114123E+02  0.00000000000E+00 0. -1.
<mgrwt>
<rscale>  0 0.98216902E+02</rscale>
<asrwt>0</asrwt>
<pdfrwt beam="1">  1        1 0.19465973E-01 0.98216902E+02</pdfrwt>
<pdfrwt beam="2">  1       -1 0.29323084E-02 0.98216902E+02</pdfrwt>
<totfact> 0.88808577E+04</totfact>
</mgrwt>
</event>
<event>
 7    1  0.2787125E-009  0.9147525E+02  0.7818608E-02  0.1299318E+00
         -1   -1    0    0    0  501 -0.00000000000E+00  0.00000000000E+00  0.46533329725E+02  0.46533329998E+02  0.50400000000E-02 0.  1.
          1   -1    0    0  501    0  0.00000000000E+00 -0.00000000000E+00 -0.44955524186E+02  0.44955524469E+02  0.50400000000E-02 0. -1.
         23    2    1    2    0    0  0.00000000000E+00  0.00000000000E+00  0.15778055387E+01  0.91488854467E+02  0.91475248135E+02 0.  0.
    9000005    2    3    3    0    0 -0.29039272916E+02  0.20427585968E+02  0.28732772881E+02  0.46790332217E+02  0.10158607759E+02 0.  0.
         22    1    3    3    0    0  0.29039272916E+02 -0.20427585968E+02 -0.27154967342E+02  0.44698522250E+02  0.00000000000E+00 0. -1.
         22    1    4    4    0    0 -0.20614094467E+01  0.56132331991E+01  0.64335794341E+01  0.87834355573E+01  0.00000000000E+00 0.  1.
         22    1    4    4    0    0 -0.26977863470E+02  0.14814352768E+02  0.22299193447E+02  0.38006896660E+02  0.00000000000E+00 0.  1.
<mgrwt>
<rscale>  0 0.91475248E+02</rscale>
<asrwt>0</asrwt>
<pdfrwt beam="2">  1        1 0.69162346E-02 0.91475248E+02</pdfrwt>
<pdfrwt beam="1">  1       -1 0.71589738E-02 0.91475248E+02</pdfrwt>
<totfact> 0.91433955E+04</totfact>
</mgrwt>
</event>
<event>
 7    1  0.2787125E-009  0.8532464E+02  0.7818608E-02  0.1314586E+00
         -1   -1    0    0    0  501 -0.00000000000E+00  0.00000000000E+00  0.42989786376E+01  0.42989815920E+01  0.50400000000E-02 0.  1.
          1   -1    0    0  501    0  0.00000000000E+00 -0.00000000000E+00 -0.42337335600E+03  0.42337335603E+03  0.50400000000E-02 0. -1.
         23    2    1    2    0    0  0.35527136788E-14  0.00000000000E+00 -0.41907437736E+03  0.42767233762E+03  0.85324642428E+02 0.  0.
    9000005    2    3    3    0    0 -0.28040267251E+02  0.15351508237E+02 -0.34897588328E+03  0.35062868594E+03  0.11592363711E+02 0.  0.
         22    1    3    3    0    0  0.28040267251E+02 -0.15351508237E+02 -0.70098494080E+02  0.77043651685E+02  0.00000000000E+00 0.  1.
         22    1    4    4    0    0 -0.68314745040E-01 -0.85997227097E+00 -0.31303135200E+02  0.31315020239E+02  0.00000000000E+00 0.  1.
         22    1    4    4    0    0 -0.27971952506E+02  0.16211480508E+02 -0.31767274808E+03  0.31931366570E+03  0.00000000000E+00 0.  1.
<mgrwt>
<rscale>  0 0.85324642E+02</rscale>
<asrwt>0</asrwt>
<pdfrwt beam="2">  1        1 0.65134330E-01 0.85324642E+02</pdfrwt>
<pdfrwt beam="1">  1       -1 0.66138189E-03 0.85324642E+02</pdfrwt>
<totfact> 0.16221474E+05</totfact>
</mgrwt>
</event>
<event>
 7    1  0.2787125E-009  0.1038146E+03  0.7818608E-02  0.1272473E+00
         -1   -1    0    0    0  501 -0.00000000000E+00  0.00000000000E+00  0.64342727519E+01  0.64342747258E+01  0.50400000000E-02 0.  1.
          1   -1    0    0  501    0  0.00000000000E+00 -0.00000000000E+00 -0.41875231811E+03  0.41875231814E+03  0.50400000000E-02 0. -1.
         23    2    1    2    0    0  0.00000000000E+00 -0.71054273576E-14 -0.41231804536E+03  0.42518659287E+03  0.10381458580E+03 0.  0.
    9000005    2    3    3    0    0 -0.23826146960E+02  0.45083941660E+02 -0.23575821743E+03  0.24141058814E+03  0.98431654728E+01 0.  0.
         22    1    3    3    0    0  0.23826146960E+02 -0.45083941660E+02 -0.17655982793E+03  0.18377600472E+03  0.00000000000E+00 0.  1.
         22    1    4    4    0    0 -0.12100163508E+02  0.12946493745E+02 -0.81749581716E+02  0.83648190464E+02  0.00000000000E+00 0.  1.
         22    1    4    4    0    0 -0.11725983452E+02  0.32137447914E+02 -0.15400863572E+03  0.15776239768E+03  0.00000000000E+00 0.  1.
<mgrwt>
<rscale>  0 0.10381459E+03</rscale>
<asrwt>0</asrwt>
<pdfrwt beam="2">  1        1 0.64423412E-01 0.10381459E+03</pdfrwt>
<pdfrwt beam="1">  1       -1 0.98988860E-03 0.10381459E+03</pdfrwt>
<totfact> 0.96059863E+04</totfact>
</mgrwt>
</event>
<event>
 7    1  0.2787125E-009  0.9395171E+02  0.7818608E-02  0.1293555E+00
         -1   -1    0    0    0  501 -0.00000000000E+00  0.00000000000E+00  0.44477453567E+01  0.44477482123E+01  0.50400000000E-02 0.  1.
          1   -1    0    0  501    0  0.00000000000E+00 -0.00000000000E+00 -0.49614583311E+03  0.49614583314E+03  0.50400000000E-02 0. -1.
         23    2    1    2    0    0  0.00000000000E+00  0.00000000000E+00 -0.49169808776E+03  0.50059358135E+03  0.93951711993E+02 0.  0.
    9000005    2    3    3    0    0  0.36085170669E+02  0.86190367116E+01 -0.39502302429E+03  0.39704409931E+03  0.14979977843E+02 0.  0.
         22    1    3    3    0    0 -0.36085170669E+02 -0.86190367116E+01 -0.96675063461E+02  0.10354948204E+03  0.00000000000E+00 0. -1.
         22    1    4    4    0    0 -0.79536768462E+00  0.24078877006E+01 -0.19781110380E+02  0.19942990267E+02  0.00000000000E+00 0.  1.
         22    1    4    4    0    0  0.36880538354E+02  0.62111490111E+01 -0.37524191391E+03  0.37710110904E+03  0.00000000000E+00 0.  1.
<mgrwt>
<rscale>  0 0.93951712E+02</rscale>
<asrwt>0</asrwt>
<pdfrwt beam="2">  1        1 0.76330085E-01 0.93951712E+02</pdfrwt>
<pdfrwt beam="1">  1       -1 0.68426913E-03 0.93951712E+02</pdfrwt>
<totfact> 0.12849128E+05</totfact>
</mgrwt>
</event>
<event>
 7    1  0.2787125E-009  0.9271688E+02  0.7818608E-02  0.1296403E+00
          1   -1    0    0  501    0  0.00000000000E+00  0.00000000000E+00  0.24397414012E+03  0.24397414017E+03  0.50400000000E-02 0. -1.
         -1   -1    0    0    0  501 -0.00000000000E+00 -0.00000000000E+00 -0.88087400652E+01  0.88087415070E+01  0.50400000000E-02 0.  1.
         23    2    1    2    0    0 -0.35527136788E-14 -0.35527136788E-14  0.23516540005E+03  0.25278288168E+03  0.92716880270E+02 0.  0.
    9000005    2    3    3    0    0 -0.25307586038E+02 -0.27431315560E+02  0.19249855021E+03  0.19609592498E+03  0.22291197512E+01 0.  0.
         22    1    3    3    0    0  0.25307586038E+02  0.27431315560E+02  0.42666849839E+02  0.56686956697E+02  0.00000000000E+00 0.  1.
         22    1    4    4    0    0 -0.18483634480E+02 -0.18573278588E+02  0.13618916031E+03  0.13868705349E+03  0.00000000000E+00 0.  1.
         22    1    4    4    0    0 -0.68239515586E+01 -0.88580369715E+01  0.56309389909E+02  0.57408871490E+02  0.00000000000E+00 0.  1.
<mgrwt>
<rscale>  0 0.92716880E+02</rscale>
<asrwt>0</asrwt>
<pdfrwt beam="1">  1        1 0.37534481E-01 0.92716880E+02</pdfrwt>
<pdfrwt beam="2">  1       -1 0.13551910E-02 0.92716880E+02</pdfrwt>
<totfact> 0.11768694E+05</totfact>
</mgrwt>
</event>
<event>
 7    1  0.2787125E-009  0.9083060E+02  0.7818608E-02  0.1300853E+00
          1   -1    0    0  501    0  0.00000000000E+00  0.00000000000E+00  0.27569871958E+03  0.27569871963E+03  0.50400000000E-02 0.  1.
         -1   -1    0    0    0  501 -0.00000000000E+00 -0.00000000000E+00 -0.74811701896E+01  0.74811718873E+01  0.50400000000E-02 0. -1.
         23    2    1    2    0    0  0.88817841970E-15  0.00000000000E+00  0.26821754939E+03  0.28317989152E+03  0.90830595928E+02 0.  0.
    9000005    2    3    3    0    0  0.67833531335E+01  0.89138384713E+01  0.27096742543E+03  0.27164593234E+03  0.15578719943E+02 0.  0.
         22    1    3    3    0    0 -0.67833531335E+01 -0.89138384713E+01 -0.27498760404E+01  0.11533959176E+02  0.00000000000E+00 0. -1.
         22    1    4    4    0    0  0.43285465800E+01  0.10669300801E+02  0.26044231674E+03  0.26069670241E+03  0.00000000000E+00 0. -1.
         22    1    4    4    0    0  0.24548065535E+01 -0.17554623298E+01  0.10525108692E+02  0.10949229936E+02  0.00000000000E+00 0. -1.
<mgrwt>
<rscale>  0 0.90830596E+02</rscale>
<asrwt>0</asrwt>
<pdfrwt beam="1">  1        1 0.42415191E-01 0.90830596E+02</pdfrwt>
<pdfrwt beam="2">  1       -1 0.11509493E-02 0.90830596E+02</pdfrwt>
<totfact> 0.12733932E+05</totfact>
</mgrwt>
</event>
<event>
 7    1  0.2787125E-009  0.9229362E+02  0.7818608E-02  0.1297391E+00
          1   -1    0    0  501    0  0.00000000000E+00  0.00000000000E+00  0.17970755124E+03  0.17970755131E+03  0.50400000000E-02 0. -1.
         -1   -1    0    0    0  501 -0.00000000000E+00 -0.00000000000E+00 -0.11849964621E+02  0.11849965693E+02  0.50400000000E-02 0.  1.
         23    2    1    2    0    0  0.00000000000E+00  0.35527136788E-14  0.16785758662E+03  0.19155751701E+03  0.92293623482E+02 0.  0.
    9000005    2    3    3    0    0  0.24575267087E+02 -0.31553825824E+02  0.12835657962E+03  0.13534437592E+03  0.15591692834E+02 0.  0.
         22    1    3    3    0    0 -0.24575267087E+02  0.31553825824E+02  0.39501007003E+02  0.56213141086E+02  0.00000000000E+00 0.  1.
         22    1    4    4    0    0  0.25962494115E+01 -0.15094970130E+02  0.40642546676E+02  0.43432881951E+02  0.00000000000E+00 0.  1.
         22    1    4    4    0    0  0.21979017676E+02 -0.16458855694E+02  0.87714032942E+02  0.91911493970E+02  0.00000000000E+00 0.  1.
<mgrwt>
<rscale>  0 0.92293623E+02</rscale>
<asrwt>0</asrwt>
<pdfrwt beam="1">  1        1 0.27647313E-01 0.92293623E+02</pdfrwt>
<pdfrwt beam="2">  1       -1 0.18230717E-02 0.92293623E+02</pdfrwt>
<totfact> 0.11225141E+05</totfact>
</mgrwt>
</event>
<event>
 7    1  0.2787125E-009  0.8960526E+02  0.7818608E-02  0.1303810E+00
          1   -1    0    0  501    0  0.00000000000E+00  0.00000000000E+00  0.15739252559E+03  0.15739252567E+03  0.50400000000E-02 0. -1.
         -1   -1    0    0    0  501 -0.00000000000E+00 -0.00000000000E+00 -0.12753309584E+02  0.12753310580E+02  0.50400000000E-02 0.  1.
         23    2    1    2    0    0 -0.88817841970E-15 -0.35527136788E-14  0.14463921601E+03  0.17014583625E+03  0.89605260934E+02 0.  0.
    9000005    2    3    3    0    0  0.75372915537E+01  0.28449822456E+02  0.13621973366E+03  0.13953389668E+03  0.69057455407E+01 0.  0.
         22    1    3    3    0    0 -0.75372915537E+01 -0.28449822456E+02  0.84194823492E+01  0.30611939579E+02  0.00000000000E+00 0.  1.
         22    1    4    4    0    0  0.60317885763E+01  0.22314208991E+02  0.91716238917E+02  0.94584221081E+02  0.00000000000E+00 0.  1.
         22    1    4    4    0    0  0.15055029774E+01  0.61356134645E+01  0.44503494743E+02  0.44949675595E+02  0.00000000000E+00 0.  1.
<mgrwt>
<rscale>  0 0.89605261E+02</rscale>
<asrwt>0</asrwt>
<pdfrwt beam="1">  1        1 0.24214235E-01 0.89605261E+02</pdfrwt>
<pdfrwt beam="2">  1       -1 0.19620477E-02 0.89605261E+02</pdfrwt>
<totfact> 0.11855123E+05</totfact>
</mgrwt>
</event>
<event>
 7    1  0.2787125E-009  0.9477354E+02  0.7818608E-02  0.1291687E+00
          1   -1    0    0  501    0  0.00000000000E+00  0.00000000000E+00  0.51130477942E+02  0.51130478191E+02  0.50400000000E-02 0. -1.
         -1   -1    0    0    0  501 -0.00000000000E+00 -0.00000000000E+00 -0.43917167299E+02  0.43917167589E+02  0.50400000000E-02 0.  1.
         23    2    1    2    0    0  0.00000000000E+00 -0.71054273576E-14  0.72133106432E+01  0.95047645779E+02  0.94773535957E+02 0.  0.
    9000005    2    3    3    0    0 -0.23832793310E+02  0.34223861606E+02 -0.18389324529E+02  0.46111261892E+02  0.69861632184E+01 0.  0.
         22    1    3    3    0    0  0.23832793310E+02 -0.34223861606E+02  0.25602635172E+02  0.48936383887E+02  0.00000000000E+00 0. -1.
         22    1    4    4    0    0 -0.11073497336E+02  0.18505020185E+02 -0.12922633644E+02  0.25140655830E+02  0.00000000000E+00 0. -1.
         22    1    4    4    0    0 -0.12759295975E+02  0.15718841421E+02 -0.54666908848E+01  0.20970606062E+02  0.00000000000E+00 0. -1.
<mgrwt>
<rscale>  0 0.94773536E+02</rscale>
<asrwt>0</asrwt>
<pdfrwt beam="1">  1        1 0.78662274E-02 0.94773536E+02</pdfrwt>
<pdfrwt beam="2">  1       -1 0.67564874E-02 0.94773536E+02</pdfrwt>
<totfact> 0.84408440E+04</totfact>
</mgrwt>
</event>
<event>
 7    1  0.2787125E-009  0.9069350E+02  0.7818608E-02  0.1301181E+00
          1   -1    0    0  501    0  0.00000000000E+00  0.00000000000E+00  0.12217593375E+03  0.12217593385E+03  0.50400000000E-02 0. -1.
         -1   -1    0    0    0  501 -0.00000000000E+00 -0.00000000000E+00 -0.16830875066E+02  0.16830875821E+02  0.50400000000E-02 0.  1.
         23    2    1    2    0    0  0.00000000000E+00  0.55511151231E-16  0.10534505868E+03  0.13900680967E+03  0.90693504436E+02 0.  0.
    9000005    2    3    3    0    0 -0.24789834642E+02 -0.14957497054E+00 -0.54794532084E+01  0.25443476198E+02  0.16696704260E+01 0.  0.
         22    1    3    3    0    0  0.24789834642E+02  0.14957497054E+00  0.11082451189E+03  0.11356333348E+03  0.00000000000E+00 0. -1.
         22    1    4    4    0    0 -0.38056407166E+01  0.37631022225E+00 -0.13119523669E+01  0.40429852412E+01  0.00000000000E+00 0. -1.
         22    1    4    4    0    0 -0.20984193925E+02 -0.52588519280E+00 -0.41675008415E+01  0.21400490957E+02  0.00000000000E+00 0. -1.
<mgrwt>
<rscale>  0 0.90693504E+02</rscale>
<asrwt>0</asrwt>
<pdfrwt beam="1">  1        1 0.18796297E-01 0.90693504E+02</pdfrwt>
<pdfrwt beam="2">  1       -1 0.25893656E-02 0.90693504E+02</pdfrwt>
<totfact> 0.10964406E+05</totfact>
</mgrwt>
</event>
<event>
 7    1  0.2787125E-009  0.9335465E+02  0.7818608E-02  0.1294925E+00
          1   -1    0    0  501    0  0.00000000000E+00  0.00000000000E+00  0.32016363579E+03  0.32016363583E+03  0.50400000000E-02 0. -1.
         -1   -1    0    0    0  501 -0.00000000000E+00 -0.00000000000E+00 -0.68051843863E+01  0.68051862527E+01  0.50400000000E-02 0.  1.
         23    2    1    2    0    0  0.00000000000E+00 -0.17763568394E-14  0.31335845140E+03  0.32696882208E+03  0.93354654666E+02 0.  0.
    9000005    2    3    3    0    0  0.34339009190E+02 -0.13933905085E+02  0.25556809378E+03  0.25831718920E+03  0.62768156814E+01 0.  0.
         22    1    3    3    0    0 -0.34339009190E+02  0.13933905085E+02  0.57790357624E+02  0.68651632882E+02  0.00000000000E+00 0.  1.
         22    1    4    4    0    0  0.31910711237E+02 -0.13153239795E+02  0.22368577049E+03  0.22633299611E+03  0.00000000000E+00 0.  1.
         22    1    4    4    0    0  0.24282979527E+01 -0.78066528967E+00  0.31882323286E+02  0.31984193085E+02  0.00000000000E+00 0.  1.
<mgrwt>
<rscale>  0 0.93354655E+02</rscale>
<asrwt>0</asrwt>
<pdfrwt beam="1">  1        1 0.49255952E-01 0.93354655E+02</pdfrwt>
<pdfrwt beam="2">  1       -1 0.10469514E-02 0.93354655E+02</pdfrwt>
<totfact> 0.12179001E+05</totfact>
</mgrwt>
</event>
<event>
 7    1  0.2787125E-009  0.1041695E+03  0.7818608E-02  0.1271765E+00
          1   -1    0    0  501    0  0.00000000000E+00  0.00000000000E+00  0.16412212230E+04  0.16412212230E+04  0.50400000000E-02 0. -1.
         -1   -1    0    0    0  501 -0.00000000000E+00 -0.00000000000E+00 -0.16529245014E+01  0.16529321853E+01  0.50400000000E-02 0.  1.
         23    2    1    2    0    0  0.00000000000E+00  0.00000000000E+00  0.16395682985E+04  0.16428741552E+04  0.10416949822E+03 0.  0.
    9000005    2    3    3    0    0  0.89451363781E+01  0.16864386670E+02  0.15838006383E+04  0.15839296480E+04  0.66516891863E+01 0.  0.
         22    1    3    3    0    0 -0.89451363781E+01 -0.16864386670E+02  0.55767660161E+02  0.58944507143E+02  0.00000000000E+00 0.  1.
         22    1    4    4    0    0  0.82828466391E+01  0.13205153634E+02  0.14260215231E+04  0.14261067162E+04  0.00000000000E+00 0. -1.
         22    1    4    4    0    0  0.66228973899E+00  0.36592330359E+01  0.15777911522E+03  0.15782293184E+03  0.00000000000E+00 0. -1.
<mgrwt>
<rscale>  0 0.10416950E+03</rscale>
<asrwt>0</asrwt>
<pdfrwt beam="1">  1        1 0.25249545E+00 0.10416950E+03</pdfrwt>
<pdfrwt beam="2">  1       -1 0.25429680E-03 0.10416950E+03</pdfrwt>
<totfact> 0.71402611E+04</totfact>
</mgrwt>
</event>
<event>
 7    1  0.2787125E-009  0.8880495E+02  0.7818608E-02  0.1305772E+00
          1   -1    0    0  501    0  0.00000000000E+00  0.00000000000E+00  0.12772520559E+04  0.12772520559E+04  0.50400000000E-02 0. -1.
         -1   -1    0    0    0  501 -0.00000000000E+00 -0.00000000000E+00 -0.15436063993E+01  0.15436146273E+01  0.50400000000E-02 0.  1.
         23    2    1    2    0    0  0.00000000000E+00  0.00000000000E+00  0.12757084495E+04  0.12787956705E+04  0.88804948381E+02 0.  0.
    9000005    2    3    3    0    0 -0.25065719269E+02  0.17049829952E+02  0.11034377736E+04  0.11038780535E+04  0.72697832696E+01 0.  0.
         22    1    3    3    0    0  0.25065719269E+02 -0.17049829952E+02  0.17227067588E+03  0.17491761704E+03  0.00000000000E+00 0.  1.
         22    1    4    4    0    0 -0.22908581141E+02  0.15654833251E+02  0.90917333356E+03  0.90959662892E+03  0.00000000000E+00 0. -1.
         22    1    4    4    0    0 -0.21571381285E+01  0.13949967016E+01  0.19426444004E+03  0.19428142455E+03  0.00000000000E+00 0. -1.
<mgrwt>
<rscale>  0 0.88804948E+02</rscale>
<asrwt>0</asrwt>
<pdfrwt beam="1">  1        1 0.19650187E+00 0.88804948E+02</pdfrwt>
<pdfrwt beam="2">  1       -1 0.23747666E-03 0.88804948E+02</pdfrwt>
<totfact> 0.13219366E+05</totfact>
</mgrwt>
</event>
<event>
 7    1  0.2787125E-009  0.9102317E+02  0.7818608E-02  0.1300393E+00
          1   -1    0    0  501    0  0.00000000000E+00  0.00000000000E+00  0.10587037056E+04  0.10587037056E+04  0.50400000000E-02 0. -1.
         -1   -1    0    0    0  501 -0.00000000000E+00 -0.00000000000E+00 -0.19564502030E+01  0.19564566948E+01  0.50400000000E-02 0.  1.
         23    2    1    2    0    0  0.35527136788E-14  0.44408920985E-15  0.10567472554E+04  0.10606601623E+04  0.91023173507E+02 0.  0.
    9000005    2    3    3    0    0  0.22147447605E+02 -0.24429541506E+01  0.98949982475E+03  0.98981741822E+03  0.11495250223E+02 0.  0.
         22    1    3    3    0    0 -0.22147447605E+02  0.24429541506E+01  0.67247430614E+02  0.70842744050E+02  0.00000000000E+00 0.  1.
         22    1    4    4    0    0  0.16276608233E+02 -0.31374992578E+01  0.88155434793E+03  0.88171017928E+03  0.00000000000E+00 0. -1.
         22    1    4    4    0    0  0.58708393723E+01  0.69454510724E+00  0.10794547681E+03  0.10810723894E+03  0.00000000000E+00 0. -1.
<mgrwt>
<rscale>  0 0.91023174E+02</rscale>
<asrwt>0</asrwt>
<pdfrwt beam="1">  1        1 0.16287733E+00 0.91023174E+02</pdfrwt>
<pdfrwt beam="2">  1       -1 0.30099314E-03 0.91023174E+02</pdfrwt>
<totfact> 0.13434842E+05</totfact>
</mgrwt>
</event>
<event>
 7    1  0.2787125E-009  0.1003585E+03  0.7818608E-02  0.1279544E+00
          1   -1    0    0  501    0  0.00000000000E+00  0.00000000000E+00  0.13186453887E+04  0.13186453887E+04  0.50400000000E-02 0. -1.
         -1   -1    0    0    0  501 -0.00000000000E+00 -0.00000000000E+00 -0.19094978522E+01  0.19095045036E+01  0.50400000000E-02 0.  1.
         23    2    1    2    0    0  0.00000000000E+00  0.00000000000E+00  0.13167358909E+04  0.13205548932E+04  0.10035845626E+03 0.  0.
    9000005    2    3    3    0    0 -0.15373435767E+02  0.16792580850E+02  0.12464255264E+04  0.12466503558E+04  0.64948827429E+01 0.  0.
         22    1    3    3    0    0  0.15373435767E+02 -0.16792580850E+02  0.70310364465E+02  0.73904537412E+02  0.00000000000E+00 0.  1.
         22    1    4    4    0    0 -0.15881745171E+02  0.15377309955E+02  0.11868067914E+04  0.11870126585E+04  0.00000000000E+00 0. -1.
         22    1    4    4    0    0  0.50830940308E+00  0.14152708948E+01  0.59618735037E+02  0.59637697286E+02  0.00000000000E+00 0. -1.
<mgrwt>
<rscale>  0 0.10035846E+03</rscale>
<asrwt>0</asrwt>
<pdfrwt beam="1">  1        1 0.20286920E+00 0.10035846E+03</pdfrwt>
<pdfrwt beam="2">  1       -1 0.29376844E-03 0.10035846E+03</pdfrwt>
<totfact> 0.93802412E+04</totfact>
</mgrwt>
</event>
<event>
 7    1  0.2787125E-009  0.8903908E+02  0.7818608E-02  0.1305196E+00
         -1   -1    0    0    0  501 -0.00000000000E+00  0.00000000000E+00  0.20253692970E+01  0.20253755678E+01  0.50400000000E-02 0.  1.
          1   -1    0    0  501    0  0.00000000000E+00 -0.00000000000E+00 -0.97858032678E+03  0.97858032680E+03  0.50400000000E-02 0. -1.
         23    2    1    2    0    0  0.00000000000E+00  0.00000000000E+00 -0.97655495749E+03  0.98060570236E+03  0.89039084216E+02 0.  0.
    9000005    2    3    3    0    0  0.28448643399E+01  0.13674765601E+02 -0.95292003814E+03  0.95315207092E+03  0.15721918744E+02 0.  0.
         22    1    3    3    0    0 -0.28448643399E+01 -0.13674765601E+02 -0.23634919343E+02  0.27453631448E+02  0.00000000000E+00 0.  1.
         22    1    4    4    0    0  0.91497163553E+01  0.92827618047E+01 -0.51673211196E+03  0.51689647175E+03  0.00000000000E+00 0.  1.
         22    1    4    4    0    0 -0.63048520154E+01  0.43920037958E+01 -0.43618792618E+03  0.43625559916E+03  0.00000000000E+00 0.  1.
<mgrwt>
<rscale>  0 0.89039084E+02</rscale>
<asrwt>0</asrwt>
<pdfrwt beam="2">  1        1 0.15055044E+00 0.89039084E+02</pdfrwt>
<pdfrwt beam="1">  1       -1 0.31159654E-03 0.89039084E+02</pdfrwt>
<totfact> 0.14561278E+05</totfact>
</mgrwt>
</event>
<event>
 7    1  0.2787125E-009  0.8997332E+02  0.7818608E-02  0.1302916E+00
         -1   -1    0    0    0  501 -0.00000000000E+00  0.00000000000E+00  0.59734453454E+02  0.59734453667E+02  0.50400000000E-02 0.  1.
          1   -1    0    0  501    0  0.00000000000E+00 -0.00000000000E+00 -0.33879936756E+02  0.33879937131E+02  0.50400000000E-02 0. -1.
         23    2    1    2    0    0  0.00000000000E+00  0.00000000000E+00  0.25854516698E+02  0.93614390798E+02  0.89973318994E+02 0.  0.
    9000005    2    3    3    0    0 -0.26403433833E+02  0.23438670688E+02  0.40141673015E+02  0.55527182480E+02  0.15013376701E+02 0.  0.
         22    1    3    3    0    0  0.26403433833E+02 -0.23438670688E+02 -0.14287156317E+02  0.38087208317E+02  0.00000000000E+00 0. -1.
         22    1    4    4    0    0 -0.19560184486E+01 -0.10017692435E+01 -0.41545234345E+00  0.22365487784E+01  0.00000000000E+00 0.  1.
         22    1    4    4    0    0 -0.24447415385E+02  0.24440439931E+02  0.40557125358E+02  0.53290633702E+02  0.00000000000E+00 0.  1.
<mgrwt>
<rscale>  0 0.89973319E+02</rscale>
<asrwt>0</asrwt>
<pdfrwt beam="2">  1        1 0.52122981E-02 0.89973319E+02</pdfrwt>
<pdfrwt beam="1">  1       -1 0.91899159E-02 0.89973319E+02</pdfrwt>
<totfact> 0.91779149E+04</totfact>
</mgrwt>
</event>
<event>
 7    1  0.2787125E-009  0.9107458E+02  0.7818608E-02  0.1300270E+00
         -1   -1    0    0    0  501 -0.00000000000E+00  0.00000000000E+00  0.33828507046E+02  0.33828507421E+02  0.50400000000E-02 0.  1.
          1   -1    0    0  501    0  0.00000000000E+00 -0.00000000000E+00 -0.61298740629E+02  0.61298740836E+02  0.50400000000E-02 0. -1.
         23    2    1    2    0    0  0.00000000000E+00  0.00000000000E+00 -0.27470233583E+02  0.95127248258E+02  0.91074582777E+02 0.  0.
    9000005    2    3    3    0    0 -0.34520302581E+02  0.23113338169E+02  0.29471868353E+01  0.43638442129E+02  0.13028815356E+02 0.  0.
         22    1    3    3    0    0  0.34520302581E+02 -0.23113338169E+02 -0.30417420419E+02  0.51488806129E+02  0.00000000000E+00 0.  1.
         22    1    4    4    0    0 -0.11930255896E+02  0.47069691922E+01  0.63318889301E+01  0.14303124909E+02  0.00000000000E+00 0. -1.
         22    1    4    4    0    0 -0.22590046685E+02  0.18406368977E+02 -0.33847020948E+01  0.29335317220E+02  0.00000000000E+00 0. -1.
<mgrwt>
<rscale>  0 0.91074583E+02</rscale>
<asrwt>0</asrwt>
<pdfrwt beam="2">  1        1 0.94305755E-02 0.91074583E+02</pdfrwt>
<pdfrwt beam="1">  1       -1 0.52043858E-02 0.91074583E+02</pdfrwt>
<totfact> 0.96985886E+04</totfact>
</mgrwt>
</event>
<event>
 7    1  0.2787125E-009  0.9014061E+02  0.7818608E-02  0.1302512E+00
         -1   -1    0    0    0  501 -0.00000000000E+00  0.00000000000E+00  0.50332917994E+02  0.50332918246E+02  0.50400000000E-02 0.  1.
          1   -1    0    0  501    0  0.00000000000E+00 -0.00000000000E+00 -0.40357926955E+02  0.40357927270E+02  0.50400000000E-02 0. -1.
         23    2    1    2    0    0  0.00000000000E+00  0.00000000000E+00  0.99749910387E+01  0.90690845515E+02  0.90140606910E+02 0.  0.
    9000005    2    3    3    0    0  0.37006727084E+02 -0.18107826055E+02 -0.10041794362E+02  0.44886228809E+02  0.14715457479E+02 0.  0.
         22    1    3    3    0    0 -0.37006727084E+02  0.18107826055E+02  0.20016785400E+02  0.45804616707E+02  0.00000000000E+00 0. -1.
         22    1    4    4    0    0  0.25247121396E+02 -0.47956542386E+01 -0.33990675703E+01  0.25922366765E+02  0.00000000000E+00 0. -1.
         22    1    4    4    0    0  0.11759605688E+02 -0.13312171816E+02 -0.66427267915E+01  0.18963862044E+02  0.00000000000E+00 0. -1.
<mgrwt>
<rscale>  0 0.90140607E+02</rscale>
<asrwt>0</asrwt>
<pdfrwt beam="2">  1        1 0.62089119E-02 0.90140607E+02</pdfrwt>
<pdfrwt beam="1">  1       -1 0.77435259E-02 0.90140607E+02</pdfrwt>
<totfact> 0.93759060E+04</totfact>
</mgrwt>
</event>
<event>
 7    1  0.2787125E-009  0.9045423E+02  0.7818608E-02  0.1301755E+00
          1   -1    0    0  501    0  0.00000000000E+00  0.00000000000E+00  0.24410167138E+02  0.24410167659E+02  0.50400000000E-02 0. -1.
         -1   -1    0    0    0  501 -0.00000000000E+00 -0.00000000000E+00 -0.83796710028E+02  0.83796710180E+02  0.50400000000E-02 0.  1.
         23    2    1    2    0    0  0.00000000000E+00  0.00000000000E+00 -0.59386542890E+02  0.10820687784E+03  0.90454225635E+02 0.  0.
    9000005    2    3    3    0    0 -0.80566505424E+01  0.35105635479E+02 -0.61485192421E+02  0.72127526539E+02  0.11164046635E+02 0.  0.
         22    1    3    3    0    0  0.80566505424E+01 -0.35105635479E+02  0.20986495316E+01  0.36079351299E+02  0.00000000000E+00 0. -1.
         22    1    4    4    0    0 -0.57922220576E+01  0.54460210249E+01 -0.12223770016E+02  0.14581822067E+02  0.00000000000E+00 0.  1.
         22    1    4    4    0    0 -0.22644284848E+01  0.29659614454E+02 -0.49261422405E+02  0.57545704473E+02  0.00000000000E+00 0.  1.
<mgrwt>
<rscale>  0 0.90454226E+02</rscale>
<asrwt>0</asrwt>
<pdfrwt beam="1">  1        1 0.37554104E-02 0.90454226E+02</pdfrwt>
<pdfrwt beam="2">  1       -1 0.12891801E-01 0.90454226E+02</pdfrwt>
<totfact> 0.85713049E+04</totfact>
</mgrwt>
</event>
<event>
 7    1  0.2787125E-009  0.9089565E+02  0.7818608E-02  0.1300697E+00
          1   -1    0    0  501    0  0.00000000000E+00  0.00000000000E+00  0.22541109244E+02  0.22541109808E+02  0.50400000000E-02 0. -1.
         -1   -1    0    0    0  501 -0.00000000000E+00 -0.00000000000E+00 -0.91632784148E+02  0.91632784287E+02  0.50400000000E-02 0.  1.
         23    2    1    2    0    0  0.00000000000E+00  0.00000000000E+00 -0.69091674904E+02  0.11417389409E+03  0.90895646495E+02 0.  0.
    9000005    2    3    3    0    0  0.21377697026E+02 -0.44495057142E+01  0.14239491002E+02  0.28029322342E+02  0.10299309480E+02 0.  0.
         22    1    3    3    0    0 -0.21377697026E+02  0.44495057142E+01 -0.83331165905E+02  0.86144571752E+02  0.00000000000E+00 0.  1.
         22    1    4    4    0    0  0.32563742655E+00 -0.30095687445E+01  0.21151174414E+01  0.36928668474E+01  0.00000000000E+00 0.  1.
         22    1    4    4    0    0  0.21052059599E+02 -0.14399369697E+01  0.12124373560E+02  0.24336455495E+02  0.00000000000E+00 0.  1.
<mgrwt>
<rscale>  0 0.90895646E+02</rscale>
<asrwt>0</asrwt>
<pdfrwt beam="1">  1        1 0.34678631E-02 0.90895646E+02</pdfrwt>
<pdfrwt beam="2">  1       -1 0.14097351E-01 0.90895646E+02</pdfrwt>
<totfact> 0.83335792E+04</totfact>
</mgrwt>
</event>
<event>
 7    1  0.2787125E-009  0.1111172E+03  0.7818608E-02  0.1258515E+00
         -1   -1    0    0    0  501 -0.00000000000E+00  0.00000000000E+00  0.31211634218E+02  0.31211634625E+02  0.50400000000E-02 0.  1.
          1   -1    0    0  501    0  0.00000000000E+00 -0.00000000000E+00 -0.98897692537E+02  0.98897692665E+02  0.50400000000E-02 0. -1.
         23    2    1    2    0    0  0.71054273576E-14  0.00000000000E+00 -0.67686058319E+02  0.13010932729E+03  0.11111721090E+03 0.  0.
    9000005    2    3    3    0    0 -0.52466714818E+02 -0.14562507631E+01 -0.54965660119E+02  0.76102981734E+02  0.39450229847E+01 0.  0.
         22    1    3    3    0    0  0.52466714818E+02  0.14562507631E+01 -0.12720398199E+02  0.54006345557E+02  0.00000000000E+00 0.  1.
         22    1    4    4    0    0 -0.34068014033E+00 -0.31220760373E+00 -0.25718367422E+00  0.52884779297E+00  0.00000000000E+00 0.  1.
         22    1    4    4    0    0 -0.52126034678E+02 -0.11440431594E+01 -0.54708476445E+02  0.75574133941E+02  0.00000000000E+00 0.  1.
<mgrwt>
<rscale>  0 0.11111721E+03</rscale>
<asrwt>0</asrwt>
<pdfrwt beam="2">  1        1 0.15215030E-01 0.11111721E+03</pdfrwt>
<pdfrwt beam="1">  1       -1 0.48017900E-02 0.11111721E+03</pdfrwt>
<totfact> 0.60348284E+04</totfact>
</mgrwt>
</event>
<event>
 7    1  0.2787125E-009  0.9503138E+02  0.7818608E-02  0.1291105E+00
          1   -1    0    0  501    0  0.00000000000E+00  0.00000000000E+00  0.23487113427E+03  0.23487113432E+03  0.50400000000E-02 0. -1.
         -1   -1    0    0    0  501 -0.00000000000E+00 -0.00000000000E+00 -0.96126790749E+01  0.96126803961E+01  0.50400000000E-02 0.  1.
         23    2    1    2    0    0 -0.11102230246E-15  0.00000000000E+00  0.22525845519E+03  0.24448381472E+03  0.95031384412E+02 0.  0.
    9000005    2    3    3    0    0 -0.82271392490E+00 -0.39094982387E+02  0.43458829707E+02  0.58526297170E+02  0.27501045124E+01 0.  0.
         22    1    3    3    0    0  0.82271392490E+00  0.39094982387E+02  0.18179962549E+03  0.18595751755E+03  0.00000000000E+00 0. -1.
         22    1    4    4    0    0 -0.58664798086E+00 -0.63281819404E+01  0.57605072337E+01  0.85774988262E+01  0.00000000000E+00 0.  1.
         22    1    4    4    0    0 -0.23606594404E+00 -0.32766800447E+02  0.37698322474E+02  0.49948798344E+02  0.00000000000E+00 0.  1.
<mgrwt>
<rscale>  0 0.95031384E+02</rscale>
<asrwt>0</asrwt>
<pdfrwt beam="1">  1        1 0.36134021E-01 0.95031384E+02</pdfrwt>
<pdfrwt beam="2">  1       -1 0.14788738E-02 0.95031384E+02</pdfrwt>
<totfact> 0.10933219E+05</totfact>
</mgrwt>
</event>
<event>
 7    1  0.2787125E-009  0.8828581E+02  0.7818608E-02  0.1307057E+00
          1   -1    0    0  501    0  0.00000000000E+00  0.00000000000E+00  0.97260272430E+03  0.97260272432E+03  0.50400000000E-02 0.  1.
         -1   -1    0    0    0  501 -0.00000000000E+00 -0.00000000000E+00 -0.20034827860E+01  0.20034891253E+01  0.50400000000E-02 0. -1.
         23    2    1    2    0    0  0.00000000000E+00  0.00000000000E+00  0.97059924152E+03  0.97460621344E+03  0.88285806590E+02 0.  0.
    9000005    2    3    3    0    0  0.22640295244E+01 -0.15243645837E+02  0.94142849025E+03  0.94161489189E+03  0.10654004461E+02 0.  0.
         22    1    3    3    0    0 -0.22640295244E+01  0.15243645837E+02  0.29170751270E+02  0.32991321552E+02  0.00000000000E+00 0. -1.
         22    1    4    4    0    0 -0.11981882543E+01 -0.27476512409E+01  0.48659287113E+02  0.48751527820E+02  0.00000000000E+00 0. -1.
         22    1    4    4    0    0  0.34622177787E+01 -0.12495994596E+02  0.89276920313E+03  0.89286336407E+03  0.00000000000E+00 0. -1.
<mgrwt>
<rscale>  0 0.88285807E+02</rscale>
<asrwt>0</asrwt>
<pdfrwt beam="1">  1        1 0.14963135E+00 0.88285807E+02</pdfrwt>
<pdfrwt beam="2">  1       -1 0.30822827E-03 0.88285807E+02</pdfrwt>
<totfact> 0.14913254E+05</totfact>
</mgrwt>
</event>
<event>
 7    1  0.2787125E-009  0.9202810E+02  0.7818608E-02  0.1298013E+00
          1   -1    0    0  501    0  0.00000000000E+00  0.00000000000E+00  0.32880418596E+02  0.32880418982E+02  0.50400000000E-02 0. -1.
         -1   -1    0    0    0  501 -0.00000000000E+00 -0.00000000000E+00 -0.64393731431E+02  0.64393731629E+02  0.50400000000E-02 0.  1.
         23    2    1    2    0    0  0.00000000000E+00 -0.71054273576E-14 -0.31513312835E+02  0.97274150611E+02  0.92028101639E+02 0.  0.
    9000005    2    3    3    0    0 -0.83098750695E+01 -0.40594509358E+02  0.31981045397E+01  0.43220004517E+02  0.11864767345E+02 0.  0.
         22    1    3    3    0    0  0.83098750695E+01  0.40594509358E+02 -0.34711417375E+02  0.54054146093E+02  0.00000000000E+00 0.  1.
         22    1    4    4    0    0 -0.33782641416E+01 -0.23797992294E+01 -0.15148485199E+01  0.44012360788E+01  0.00000000000E+00 0. -1.
         22    1    4    4    0    0 -0.49316109280E+01 -0.38214710129E+02  0.47129530596E+01  0.38818768439E+02  0.00000000000E+00 0. -1.
<mgrwt>
<rscale>  0 0.92028102E+02</rscale>
<asrwt>0</asrwt>
<pdfrwt beam="1">  1        1 0.50585260E-02 0.92028102E+02</pdfrwt>
<pdfrwt beam="2">  1       -1 0.99067279E-02 0.92028102E+02</pdfrwt>
<totfact> 0.85652617E+04</totfact>
</mgrwt>
</event>
<event>
 7    1  0.2787125E-009  0.9026994E+02  0.7818608E-02  0.1302199E+00
         -1   -1    0    0    0  501 -0.00000000000E+00  0.00000000000E+00  0.13970790297E+02  0.13970791206E+02  0.50400000000E-02 0.  1.
          1   -1    0    0  501    0  0.00000000000E+00 -0.00000000000E+00 -0.14581604567E+03  0.14581604576E+03  0.50400000000E-02 0. -1.
         23    2    1    2    0    0  0.00000000000E+00  0.00000000000E+00 -0.13184525538E+03  0.15978683697E+03  0.90269939085E+02 0.  0.
    9000005    2    3    3    0    0  0.40780288980E+01  0.43637940607E+02 -0.53534450578E+02  0.70045640583E+02  0.10934083677E+02 0.  0.
         22    1    3    3    0    0 -0.40780288980E+01 -0.43637940607E+02 -0.78310804800E+02  0.89741196384E+02  0.00000000000E+00 0. -1.
         22    1    4    4    0    0 -0.15688844304E+01  0.33713620556E+02 -0.40343725704E+02  0.52599294796E+02  0.00000000000E+00 0.  1.
         22    1    4    4    0    0  0.56469133285E+01  0.99243200510E+01 -0.13190724874E+02  0.17446345787E+02  0.00000000000E+00 0.  1.
<mgrwt>
<rscale>  0 0.90269939E+02</rscale>
<asrwt>0</asrwt>
<pdfrwt beam="2">  1        1 0.22433237E-01 0.90269939E+02</pdfrwt>
<pdfrwt beam="1">  1       -1 0.21493525E-02 0.90269939E+02</pdfrwt>
<totfact> 0.11460038E+05</totfact>
</mgrwt>
</event>
<event>
 7    1  0.2787125E-009  0.9055165E+02  0.7818608E-02  0.1301521E+00
          1   -1    0    0  501    0  0.00000000000E+00  0.00000000000E+00  0.10050511977E+03  0.10050511989E+03  0.50400000000E-02 0. -1.
         -1   -1    0    0    0  501 -0.00000000000E+00 -0.00000000000E+00 -0.20395980376E+02  0.20395980998E+02  0.50400000000E-02 0.  1.
         23    2    1    2    0    0  0.00000000000E+00 -0.35527136788E-14  0.80109139393E+02  0.12090110089E+03  0.90551653673E+02 0.  0.
    9000005    2    3    3    0    0  0.26833354693E+02  0.26067012336E+02  0.99097847753E+01  0.41355721110E+02  0.14579910081E+02 0.  0.
         22    1    3    3    0    0 -0.26833354693E+02 -0.26067012336E+02  0.70199354617E+02  0.79545379784E+02  0.00000000000E+00 0.  1.
         22    1    4    4    0    0  0.28425830412E+01  0.43992984646E+01 -0.35615745926E+01  0.63339497082E+01  0.00000000000E+00 0. -1.
         22    1    4    4    0    0  0.23990771652E+02  0.21667713872E+02  0.13471359368E+02  0.35021771401E+02  0.00000000000E+00 0. -1.
<mgrwt>
<rscale>  0 0.90551654E+02</rscale>
<asrwt>0</asrwt>
<pdfrwt beam="1">  1        1 0.15462326E-01 0.90551654E+02</pdfrwt>
<pdfrwt beam="2">  1       -1 0.31378432E-02 0.90551654E+02</pdfrwt>
<totfact> 0.10651640E+05</totfact>
</mgrwt>
</event>
<event>
 7    1  0.2787125E-009  0.1161278E+03  0.7818608E-02  0.1249625E+00
          1   -1    0    0  501    0  0.00000000000E+00  0.00000000000E+00  0.62702765391E+03  0.62702765393E+03  0.50400000000E-02 0. -1.
         -1   -1    0    0    0  501 -0.00000000000E+00 -0.00000000000E+00 -0.53768182881E+01  0.53768206503E+01  0.50400000000E-02 0.  1.
         23    2    1    2    0    0  0.00000000000E+00 -0.71054273576E-14  0.62165083562E+03  0.63240447458E+03  0.11612776602E+03 0.  0.
    9000005    2    3    3    0    0 -0.27417339106E+02 -0.49339736413E+02  0.37282241346E+03  0.37725411940E+03  0.11747278562E+02 0.  0.
         22    1    3    3    0    0  0.27417339106E+02  0.49339736413E+02  0.24882842216E+03  0.25515035518E+03  0.00000000000E+00 0.  1.
         22    1    4    4    0    0 -0.97695414247E+01 -0.15036715605E+02  0.15594593345E+03  0.15697350386E+03  0.00000000000E+00 0. -1.
         22    1    4    4    0    0 -0.17647797681E+02 -0.34303020807E+02  0.21687648001E+03  0.22028061554E+03  0.00000000000E+00 0. -1.
<mgrwt>
<rscale>  0 0.11612777E+03</rscale>
<asrwt>0</asrwt>
<pdfrwt beam="1">  1        1 0.96465803E-01 0.11612777E+03</pdfrwt>
<pdfrwt beam="2">  1       -1 0.82720291E-03 0.11612777E+03</pdfrwt>
<totfact> 0.74257079E+04</totfact>
</mgrwt>
</event>
<event>
 7    1  0.2787125E-009  0.8985216E+02  0.7818608E-02  0.1303210E+00
         -1   -1    0    0    0  501 -0.00000000000E+00  0.00000000000E+00  0.19940819557E+03  0.19940819563E+03  0.50400000000E-02 0.  1.
          1   -1    0    0  501    0  0.00000000000E+00 -0.00000000000E+00 -0.10121713128E+02  0.10121714382E+02  0.50400000000E-02 0. -1.
         23    2    1    2    0    0  0.00000000000E+00  0.00000000000E+00  0.18928648244E+03  0.20952991002E+03  0.89852160552E+02 0.  0.
    9000005    2    3    3    0    0  0.10033192043E+02 -0.33565960883E+02  0.31176795698E+02  0.47585438931E+02  0.80649076705E+01 0.  0.
         22    1    3    3    0    0 -0.10033192043E+02  0.33565960883E+02  0.15810968675E+03  0.16194447109E+03  0.00000000000E+00 0. -1.
         22    1    4    4    0    0 -0.20434316350E+00 -0.23635455962E+01  0.10228632719E+00  0.23745665723E+01  0.00000000000E+00 0.  1.
         22    1    4    4    0    0  0.10237535206E+02 -0.31202415286E+02  0.31074509371E+02  0.45210872359E+02  0.00000000000E+00 0.  1.
<mgrwt>
<rscale>  0 0.89852161E+02</rscale>
<asrwt>0</asrwt>
<pdfrwt beam="2">  1        1 0.15571867E-02 0.89852161E+02</pdfrwt>
<pdfrwt beam="1">  1       -1 0.30678185E-01 0.89852161E+02</pdfrwt>
<totfact> 0.72180962E+04</totfact>
</mgrwt>
</event>
<event>
 7    1  0.2787125E-009  0.8425448E+02  0.7818608E-02  0.1317394E+00
          1   -1    0    0  501    0  0.00000000000E+00  0.00000000000E+00  0.31096822564E+01  0.31096863407E+01  0.50400000000E-02 0. -1.
         -1   -1    0    0    0  501 -0.00000000000E+00 -0.00000000000E+00 -0.57070234946E+03  0.57070234948E+03  0.50400000000E-02 0.  1.
         23    2    1    2    0    0  0.00000000000E+00  0.00000000000E+00 -0.56759266720E+03  0.57381203582E+03  0.84254475204E+02 0.  0.
    9000005    2    3    3    0    0  0.33106403704E+02 -0.12963651626E+02 -0.43727860816E+03  0.43873485709E+03  0.34063826495E+01 0.  0.
         22    1    3    3    0    0 -0.33106403704E+02  0.12963651626E+02 -0.13031405904E+03  0.13507717873E+03  0.00000000000E+00 0. -1.
         22    1    4    4    0    0  0.29846127044E+02 -0.10606459071E+02 -0.38329198573E+03  0.38459853692E+03  0.00000000000E+00 0.  1.
         22    1    4    4    0    0  0.32602766602E+01 -0.23571925555E+01 -0.53986622425E+02  0.54136320170E+02  0.00000000000E+00 0.  1.
<mgrwt>
<rscale>  0 0.84254475E+02</rscale>
<asrwt>0</asrwt>
<pdfrwt beam="1">  1        1 0.47841343E-03 0.84254475E+02</pdfrwt>
<pdfrwt beam="2">  1       -1 0.87800278E-01 0.84254475E+02</pdfrwt>
<totfact> 0.53025689E+04</totfact>
</mgrwt>
</event>
<event>
 7    1  0.2787125E-009  0.9243886E+02  0.7818608E-02  0.1297051E+00
         -1   -1    0    0    0  501 -0.00000000000E+00  0.00000000000E+00  0.93231321304E+01  0.93231334927E+01  0.50400000000E-02 0.  1.
          1   -1    0    0  501    0  0.00000000000E+00 -0.00000000000E+00 -0.22913280440E+03  0.22913280445E+03  0.50400000000E-02 0. -1.
         23    2    1    2    0    0  0.00000000000E+00  0.00000000000E+00 -0.21980967227E+03  0.23845593795E+03  0.92438857194E+02 0.  0.
    9000005    2    3    3    0    0 -0.24653941056E+02 -0.31134127644E+02 -0.17033121051E+03  0.17501093112E+03  0.62413157758E+01 0.  0.
         22    1    3    3    0    0  0.24653941056E+02  0.31134127644E+02 -0.49478461758E+02  0.63445006830E+02  0.00000000000E+00 0.  1.
         22    1    4    4    0    0 -0.20630097389E+02 -0.25868961747E+02 -0.15076073443E+03  0.15434896549E+03  0.00000000000E+00 0. -1.
         22    1    4    4    0    0 -0.40238436673E+01 -0.52651658966E+01 -0.19570476076E+02  0.20661965629E+02  0.00000000000E+00 0. -1.
<mgrwt>
<rscale>  0 0.92438857E+02</rscale>
<asrwt>0</asrwt>
<pdfrwt beam="2">  1        1 0.35251197E-01 0.92438857E+02</pdfrwt>
<pdfrwt beam="1">  1       -1 0.14343283E-02 0.92438857E+02</pdfrwt>
<totfact> 0.11718833E+05</totfact>
</mgrwt>
</event>
<event>
 7    1  0.2787125E-009  0.9508306E+02  0.7818608E-02  0.1290989E+00
          1   -1    0    0  501    0  0.00000000000E+00  0.00000000000E+00  0.14982393240E+02  0.14982394087E+02  0.50400000000E-02 0. -1.
         -1   -1    0    0    0  501 -0.00000000000E+00 -0.00000000000E+00 -0.15085686056E+03  0.15085686065E+03  0.50400000000E-02 0.  1.
         23    2    1    2    0    0  0.44408920985E-15  0.00000000000E+00 -0.13587446732E+03  0.16583925474E+03  0.95083056012E+02 0.  0.
    9000005    2    3    3    0    0  0.20819515638E+01  0.41487224603E+02 -0.10710810211E+03  0.11531175633E+03  0.99564693991E+01 0.  0.
         22    1    3    3    0    0 -0.20819515638E+01 -0.41487224603E+02 -0.28766365218E+02  0.50527498409E+02  0.00000000000E+00 0. -1.
         22    1    4    4    0    0 -0.36026805644E+01  0.21782964852E+02 -0.51039206743E+02  0.55610048462E+02  0.00000000000E+00 0.  1.
         22    1    4    4    0    0  0.56846321282E+01  0.19704259751E+02 -0.56068895363E+02  0.59701707865E+02  0.00000000000E+00 0.  1.
<mgrwt>
<rscale>  0 0.95083056E+02</rscale>
<asrwt>0</asrwt>
<pdfrwt beam="1">  1        1 0.23049837E-02 0.95083056E+02</pdfrwt>
<pdfrwt beam="2">  1       -1 0.23208747E-01 0.95083056E+02</pdfrwt>
<totfact> 0.66969609E+04</totfact>
</mgrwt>
</event>
<event>
 7    1  0.2787125E-009  0.8901812E+02  0.7818608E-02  0.1305247E+00
         -1   -1    0    0    0  501 -0.00000000000E+00  0.00000000000E+00  0.18552090131E+03  0.18552090138E+03  0.50400000000E-02 0.  1.
          1   -1    0    0  501    0  0.00000000000E+00 -0.00000000000E+00 -0.10678345178E+02  0.10678346367E+02  0.50400000000E-02 0. -1.
         23    2    1    2    0    0  0.00000000000E+00  0.00000000000E+00  0.17484255613E+03  0.19619924774E+03  0.89018118275E+02 0.  0.
    9000005    2    3    3    0    0  0.23492850550E+02 -0.10068974270E+02  0.16768439364E+03  0.16965612133E+03  0.34417093573E+01 0.  0.
         22    1    3    3    0    0 -0.23492850550E+02  0.10068974270E+02  0.71581624901E+01  0.26543126418E+02  0.00000000000E+00 0. -1.
         22    1    4    4    0    0  0.15541350288E+02 -0.77283494691E+01  0.12155553794E+03  0.12278847568E+03  0.00000000000E+00 0. -1.
         22    1    4    4    0    0  0.79515002615E+01 -0.23406248009E+01  0.46128855696E+02  0.46867645649E+02  0.00000000000E+00 0. -1.
<mgrwt>
<rscale>  0 0.89018118E+02</rscale>
<asrwt>0</asrwt>
<pdfrwt beam="2">  1        1 0.16428223E-02 0.89018118E+02</pdfrwt>
<pdfrwt beam="1">  1       -1 0.28541679E-01 0.89018118E+02</pdfrwt>
<totfact> 0.75448533E+04</totfact>
</mgrwt>
</event>
<event>
 7    1  0.2787125E-009  0.8995900E+02  0.7818608E-02  0.1302951E+00
         -1   -1    0    0    0  501 -0.00000000000E+00  0.00000000000E+00  0.17870380087E+02  0.17870380797E+02  0.50400000000E-02 0.  1.
          1   -1    0    0  501    0  0.00000000000E+00 -0.00000000000E+00 -0.11321277731E+03  0.11321277742E+03  0.50400000000E-02 0. -1.
         23    2    1    2    0    0  0.00000000000E+00 -0.35527136788E-14 -0.95342397224E+02  0.13108315822E+03  0.89958999887E+02 0.  0.
    9000005    2    3    3    0    0  0.32006709436E+02 -0.28403207428E+02 -0.67821112703E+02  0.80204943405E+02  0.13992773655E+01 0.  0.
         22    1    3    3    0    0 -0.32006709436E+02  0.28403207428E+02 -0.27521284521E+02  0.50878214816E+02  0.00000000000E+00 0. -1.
         22    1    4    4    0    0  0.25907949831E+02 -0.22814696107E+02 -0.53684815965E+02  0.63826261743E+02  0.00000000000E+00 0.  1.
         22    1    4    4    0    0  0.60987596049E+01 -0.55885113209E+01 -0.14136296739E+02  0.16378681662E+02  0.00000000000E+00 0.  1.
<mgrwt>
<rscale>  0 0.89959000E+02</rscale>
<asrwt>0</asrwt>
<pdfrwt beam="2">  1        1 0.17417350E-01 0.89959000E+02</pdfrwt>
<pdfrwt beam="1">  1       -1 0.27492894E-02 0.89959000E+02</pdfrwt>
<totfact> 0.11062389E+05</totfact>
</mgrwt>
</event>
<event>
 7    1  0.2787125E-009  0.9074406E+02  0.7818608E-02  0.1301060E+00
         -1   -1    0    0    0  501 -0.00000000000E+00  0.00000000000E+00  0.39184866341E+01  0.39184898754E+01  0.50400000000E-02 0.  1.
          1   -1    0    0  501    0  0.00000000000E+00 -0.00000000000E+00 -0.52536102834E+03  0.52536102836E+03  0.50400000000E-02 0. -1.
         23    2    1    2    0    0  0.00000000000E+00  0.00000000000E+00 -0.52144254170E+03  0.52927951823E+03  0.90744058357E+02 0.  0.
    9000005    2    3    3    0    0 -0.47538002642E+01  0.34726813604E+02 -0.42857245493E+03  0.43001520835E+03  0.31906249181E+01 0.  0.
         22    1    3    3    0    0  0.47538002642E+01 -0.34726813604E+02 -0.92870086768E+02  0.99264309882E+02  0.00000000000E+00 0.  1.
         22    1    4    4    0    0 -0.34235222895E+01  0.25571318069E+02 -0.33180037188E+03  0.33280189241E+03  0.00000000000E+00 0.  1.
         22    1    4    4    0    0 -0.13302779747E+01  0.91554955348E+01 -0.96772083058E+02  0.97213315947E+02  0.00000000000E+00 0.  1.
<mgrwt>
<rscale>  0 0.90744058E+02</rscale>
<asrwt>0</asrwt>
<pdfrwt beam="2">  1        1 0.80824718E-01 0.90744058E+02</pdfrwt>
<pdfrwt beam="1">  1       -1 0.60284477E-03 0.90744058E+02</pdfrwt>
<totfact> 0.14180940E+05</totfact>
</mgrwt>
</event>
<event>
 7    1  0.2787125E-009  0.9400475E+02  0.7818608E-02  0.1293434E+00
         -1   -1    0    0    0  501 -0.00000000000E+00  0.00000000000E+00  0.10237658322E+03  0.10237658335E+03  0.50400000000E-02 0.  1.
          1   -1    0    0  501    0  0.00000000000E+00 -0.00000000000E+00 -0.21579379186E+02  0.21579379775E+02  0.50400000000E-02 0. -1.
         23    2    1    2    0    0 -0.35527136788E-14  0.00000000000E+00  0.80797204038E+02  0.12395596312E+03  0.94004747824E+02 0.  0.
    9000005    2    3    3    0    0  0.26270672071E+02 -0.37758315330E+02  0.27957053043E+02  0.53899413502E+02  0.27769359763E+01 0.  0.
         22    1    3    3    0    0 -0.26270672071E+02  0.37758315330E+02  0.52840150995E+02  0.70056549621E+02  0.00000000000E+00 0.  1.
         22    1    4    4    0    0  0.13249148060E+02 -0.16890978282E+02  0.12281839190E+02  0.24732340073E+02  0.00000000000E+00 0.  1.
         22    1    4    4    0    0  0.13021524011E+02 -0.20867337048E+02  0.15675213853E+02  0.29167073429E+02  0.00000000000E+00 0.  1.
<mgrwt>
<rscale>  0 0.94004748E+02</rscale>
<asrwt>0</asrwt>
<pdfrwt beam="2">  1        1 0.33199046E-02 0.94004748E+02</pdfrwt>
<pdfrwt beam="1">  1       -1 0.15750243E-01 0.94004748E+02</pdfrwt>
<totfact> 0.74874153E+04</totfact>
</mgrwt>
</event>
<event>
 7    1  0.2787125E-009  0.8775607E+02  0.7818608E-02  0.1308378E+00
         -1   -1    0    0    0  501 -0.00000000000E+00  0.00000000000E+00  0.89477950839E+02  0.89477950981E+02  0.50400000000E-02 0.  1.
          1   -1    0    0  501    0  0.00000000000E+00 -0.00000000000E+00 -0.21516832980E+02  0.21516833571E+02  0.50400000000E-02 0. -1.
         23    2    1    2    0    0  0.35527136788E-14 -0.35527136788E-14  0.67961117859E+02  0.11099478455E+03  0.87756074759E+02 0.  0.
    9000005    2    3    3    0    0  0.18455406504E+02 -0.31718106221E+02  0.63482108469E+02  0.74025854130E+02  0.10159167901E+02 0.  0.
         22    1    3    3    0    0 -0.18455406504E+02  0.31718106221E+02  0.44790093898E+01  0.36968930422E+02  0.00000000000E+00 0. -1.
         22    1    4    4    0    0  0.49926812066E+01 -0.52425485421E+01  0.20818890239E+02  0.22041718890E+02  0.00000000000E+00 0. -1.
         22    1    4    4    0    0  0.13462725297E+02 -0.26475557679E+02  0.42663218230E+02  0.51984135240E+02  0.00000000000E+00 0. -1.
<mgrwt>
<rscale>  0 0.87756075E+02</rscale>
<asrwt>0</asrwt>
<pdfrwt beam="2">  1        1 0.33102820E-02 0.87756075E+02</pdfrwt>
<pdfrwt beam="1">  1       -1 0.13765839E-01 0.87756075E+02</pdfrwt>
<totfact> 0.91581581E+04</totfact>
</mgrwt>
</event>
<event>
 7    1  0.2787125E-009  0.8999548E+02  0.7818608E-02  0.1302863E+00
         -1   -1    0    0    0  501 -0.00000000000E+00  0.00000000000E+00  0.81548808755E+01  0.81548824329E+01  0.50400000000E-02 0.  1.
          1   -1    0    0  501    0  0.00000000000E+00 -0.00000000000E+00 -0.24829259677E+03  0.24829259682E+03  0.50400000000E-02 0. -1.
         23    2    1    2    0    0  0.33306690739E-15 -0.35527136788E-14 -0.24013771589E+03  0.25644747925E+03  0.89995483335E+02 0.  0.
    9000005    2    3    3    0    0  0.55713635006E+00 -0.24651552144E+02 -0.22720170656E+03  0.22860237625E+03  0.55155722196E+01 0.  0.
         22    1    3    3    0    0 -0.55713635006E+00  0.24651552144E+02 -0.12936009331E+02  0.27845103006E+02  0.00000000000E+00 0.  1.
         22    1    4    4    0    0  0.24172413932E+01 -0.19548976212E+02 -0.16753673745E+03  0.16869073455E+03  0.00000000000E+00 0.  1.
         22    1    4    4    0    0 -0.18601050432E+01 -0.51025759318E+01 -0.59664969112E+02  0.59911641699E+02  0.00000000000E+00 0.  1.
<mgrwt>
<rscale>  0 0.89995483E+02</rscale>
<asrwt>0</asrwt>
<pdfrwt beam="2">  1        1 0.38198855E-01 0.89995483E+02</pdfrwt>
<pdfrwt beam="1">  1       -1 0.12545974E-02 0.89995483E+02</pdfrwt>
<totfact> 0.12787879E+05</totfact>
</mgrwt>
</event>
<event>
 7    1  0.2787125E-009  0.8949877E+02  0.7818608E-02  0.1304070E+00
          1   -1    0    0  501    0  0.00000000000E+00  0.00000000000E+00  0.18774510941E+03  0.18774510948E+03  0.50400000000E-02 0. -1.
         -1   -1    0    0    0  501 -0.00000000000E+00 -0.00000000000E+00 -0.10666096031E+02  0.10666097222E+02  0.50400000000E-02 0.  1.
         23    2    1    2    0    0  0.00000000000E+00  0.35527136788E-14  0.17707901338E+03  0.19841120670E+03  0.89498770745E+02 0.  0.
    9000005    2    3    3    0    0  0.27521800250E+02 -0.31239970091E+02  0.12271532318E+03  0.12993642278E+03  0.95413941591E+01 0.  0.
         22    1    3    3    0    0 -0.27521800250E+02  0.31239970091E+02  0.54363690201E+02  0.68474783918E+02  0.00000000000E+00 0. -1.
         22    1    4    4    0    0  0.12950270074E+02 -0.16483083124E+02  0.75733186929E+02  0.78580640915E+02  0.00000000000E+00 0. -1.
         22    1    4    4    0    0  0.14571530176E+02 -0.14756886968E+02  0.46982136247E+02  0.51355781865E+02  0.00000000000E+00 0. -1.
<mgrwt>
<rscale>  0 0.89498771E+02</rscale>
<asrwt>0</asrwt>
<pdfrwt beam="1">  1        1 0.28883861E-01 0.89498771E+02</pdfrwt>
<pdfrwt beam="2">  1       -1 0.16409381E-02 0.89498771E+02</pdfrwt>
<totfact> 0.12293949E+05</totfact>
</mgrwt>
</event>
<event>
 7    1  0.2787125E-009  0.9033988E+02  0.7818608E-02  0.1302031E+00
          1   -1    0    0  501    0  0.00000000000E+00  0.00000000000E+00  0.46213583787E+03  0.46213583789E+03  0.50400000000E-02 0. -1.
         -1   -1    0    0    0  501 -0.00000000000E+00 -0.00000000000E+00 -0.44149849962E+01  0.44149878730E+01  0.50400000000E-02 0.  1.
         23    2    1    2    0    0  0.00000000000E+00  0.00000000000E+00  0.45772085287E+03  0.46655082577E+03  0.90339879741E+02 0.  0.
    9000005    2    3    3    0    0 -0.13466501859E+02  0.42018160350E+02  0.27717945407E+03  0.28069585771E+03  0.38525711219E+01 0.  0.
         22    1    3    3    0    0  0.13466501859E+02 -0.42018160350E+02  0.18054139880E+03  0.18585496806E+03  0.00000000000E+00 0. -1.
         22    1    4    4    0    0 -0.62047264680E+01  0.25555286915E+02  0.16497335639E+03  0.16705621700E+03  0.00000000000E+00 0. -1.
         22    1    4    4    0    0 -0.72617753908E+01  0.16462873435E+02  0.11220609768E+03  0.11363964071E+03  0.00000000000E+00 0. -1.
<mgrwt>
<rscale>  0 0.90339880E+02</rscale>
<asrwt>0</asrwt>
<pdfrwt beam="1">  1        1 0.71097787E-01 0.90339880E+02</pdfrwt>
<pdfrwt beam="2">  1       -1 0.67922901E-03 0.90339880E+02</pdfrwt>
<totfact> 0.14128047E+05</totfact>
</mgrwt>
</event>
<event>
 7    1  0.2787125E-009  0.9277326E+02  0.7818608E-02  0.1296271E+00
          1   -1    0    0  501    0  0.00000000000E+00  0.00000000000E+00  0.80476019024E+03  0.80476019026E+03  0.50400000000E-02 0. -1.
         -1   -1    0    0    0  501 -0.00000000000E+00 -0.00000000000E+00 -0.26737375750E+01  0.26737423252E+01  0.50400000000E-02 0.  1.
         23    2    1    2    0    0 -0.35527136788E-14 -0.35527136788E-14  0.80208645267E+03  0.80743393258E+03  0.92773260881E+02 0.  0.
    9000005    2    3    3    0    0  0.22763169752E+02  0.19225786281E+02  0.70853040783E+03  0.70924775086E+03  0.11368400447E+02 0.  0.
         22    1    3    3    0    0 -0.22763169752E+02 -0.19225786281E+02  0.93556044838E+02  0.98186181721E+02  0.00000000000E+00 0.  1.
         22    1    4    4    0    0  0.82157263443E+01  0.31964464312E+01  0.31421022819E+03  0.31433387175E+03  0.00000000000E+00 0. -1.
         22    1    4    4    0    0  0.14547443408E+02  0.16029339850E+02  0.39432017964E+03  0.39491387911E+03  0.00000000000E+00 0. -1.
<mgrwt>
<rscale>  0 0.92773261E+02</rscale>
<asrwt>0</asrwt>
<pdfrwt beam="1">  1        1 0.12380928E+00 0.92773261E+02</pdfrwt>
<pdfrwt beam="2">  1       -1 0.41134455E-03 0.92773261E+02</pdfrwt>
<totfact> 0.13488409E+05</totfact>
</mgrwt>
</event>
<event>
 7    1  0.2787125E-009  0.9101113E+02  0.7818608E-02  0.1300421E+00
         -1   -1    0    0    0  501 -0.00000000000E+00  0.00000000000E+00  0.69072358057E+01  0.69072376444E+01  0.50400000000E-02 0.  1.
          1   -1    0    0  501    0  0.00000000000E+00 -0.00000000000E+00 -0.29979523530E+03  0.29979523534E+03  0.50400000000E-02 0. -1.
         23    2    1    2    0    0  0.00000000000E+00  0.35527136788E-14 -0.29288799949E+03  0.30670247299E+03  0.91011134970E+02 0.  0.
    9000005    2    3    3    0    0 -0.25904454322E+02  0.26760619875E+02 -0.23055910351E+03  0.23409350106E+03  0.15971709258E+02 0.  0.
         22    1    3    3    0    0  0.25904454322E+02 -0.26760619875E+02 -0.62328895983E+02  0.72608971928E+02  0.00000000000E+00 0.  1.
         22    1    4    4    0    0 -0.18073130447E+01  0.96541150764E+01 -0.84946195169E+02  0.85512130087E+02  0.00000000000E+00 0. -1.
         22    1    4    4    0    0 -0.24097141278E+02  0.17106504799E+02 -0.14561290834E+03  0.14858137097E+03  0.00000000000E+00 0. -1.
<mgrwt>
<rscale>  0 0.91011135E+02</rscale>
<asrwt>0</asrwt>
<pdfrwt beam="2">  1        1 0.46122334E-01 0.91011135E+02</pdfrwt>
<pdfrwt beam="1">  1       -1 0.10626520E-02 0.91011135E+02</pdfrwt>
<totfact> 0.12872790E+05</totfact>
</mgrwt>
</event>
<event>
 7    1  0.2787125E-009  0.9793791E+02  0.7818608E-02  0.1284693E+00
          1   -1    0    0  501    0  0.00000000000E+00  0.00000000000E+00  0.14558875529E+03  0.14558875538E+03  0.50400000000E-02 0. -1.
         -1   -1    0    0    0  501 -0.00000000000E+00 -0.00000000000E+00 -0.16470766335E+02  0.16470767106E+02  0.50400000000E-02 0.  1.
         23    2    1    2    0    0  0.00000000000E+00  0.00000000000E+00  0.12911798896E+03  0.16205952249E+03  0.97937907655E+02 0.  0.
    9000005    2    3    3    0    0  0.32968006988E+02  0.42381402067E+01  0.59352697210E+01  0.34470989946E+02  0.69404901850E+01 0.  0.
         22    1    3    3    0    0 -0.32968006988E+02 -0.42381402067E+01  0.12318271924E+03  0.12758853254E+03  0.00000000000E+00 0. -1.
         22    1    4    4    0    0  0.31780539620E+02  0.47790387255E+01  0.68724476328E+01  0.32864455665E+02  0.00000000000E+00 0.  1.
         22    1    4    4    0    0  0.11874673681E+01 -0.54089851874E+00 -0.93717791181E+00  0.16065342811E+01  0.00000000000E+00 0.  1.
<mgrwt>
<rscale>  0 0.97937908E+02</rscale>
<asrwt>0</asrwt>
<pdfrwt beam="1">  1        1 0.22398270E-01 0.97937908E+02</pdfrwt>
<pdfrwt beam="2">  1       -1 0.25339641E-02 0.97937908E+02</pdfrwt>
<totfact> 0.91849651E+04</totfact>
</mgrwt>
</event>
<event>
 7    1  0.2787125E-009  0.9131382E+02  0.7818608E-02  0.1299701E+00
         -1   -1    0    0    0  501 -0.00000000000E+00  0.00000000000E+00  0.65082879142E+02  0.65082879338E+02  0.50400000000E-02 0.  1.
          1   -1    0    0  501    0  0.00000000000E+00 -0.00000000000E+00 -0.32029214211E+02  0.32029214607E+02  0.50400000000E-02 0. -1.
         23    2    1    2    0    0  0.00000000000E+00 -0.55511151231E-15  0.33053664932E+02  0.97112093945E+02  0.91313821653E+02 0.  0.
    9000005    2    3    3    0    0  0.30115489524E+02  0.71464885797E+00  0.52335405012E+02  0.61345644124E+02  0.10809255432E+02 0.  0.
         22    1    3    3    0    0 -0.30115489524E+02 -0.71464885797E+00 -0.19281740080E+02  0.35766449821E+02  0.00000000000E+00 0. -1.
         22    1    4    4    0    0  0.12094566410E+02 -0.44256078810E+01  0.26103003211E+02  0.29107238247E+02  0.00000000000E+00 0. -1.
         22    1    4    4    0    0  0.18020923114E+02  0.51402567389E+01  0.26232401801E+02  0.32238405877E+02  0.00000000000E+00 0. -1.
<mgrwt>
<rscale>  0 0.91313822E+02</rscale>
<asrwt>0</asrwt>
<pdfrwt beam="2">  1        1 0.49275715E-02 0.91313822E+02</pdfrwt>
<pdfrwt beam="1">  1       -1 0.10012751E-01 0.91313822E+02</pdfrwt>
<totfact> 0.87220619E+04</totfact>
</mgrwt>
</event>
<event>
 7    1  0.2787125E-009  0.9242633E+02  0.7818608E-02  0.1297080E+00
         -1   -1    0    0    0  501 -0.00000000000E+00  0.00000000000E+00  0.15152077890E+02  0.15152078728E+02  0.50400000000E-02 0.  1.
          1   -1    0    0  501    0  0.00000000000E+00 -0.00000000000E+00 -0.14094808433E+03  0.14094808442E+03  0.50400000000E-02 0. -1.
         23    2    1    2    0    0  0.00000000000E+00  0.00000000000E+00 -0.12579600644E+03  0.15610016315E+03  0.92426325790E+02 0.  0.
    9000005    2    3    3    0    0 -0.92873571831E+01 -0.28402524850E+02 -0.59370422082E+01  0.32572313139E+02  0.11521661848E+02 0.  0.
         22    1    3    3    0    0  0.92873571831E+01  0.28402524850E+02 -0.11985896424E+03  0.12352785001E+03  0.00000000000E+00 0. -1.
         22    1    4    4    0    0  0.17504708354E+01 -0.72868044205E+01 -0.44132310894E+01  0.86970268171E+01  0.00000000000E+00 0.  1.
         22    1    4    4    0    0 -0.11037828019E+02 -0.21115720430E+02 -0.15238111188E+01  0.23875286322E+02  0.00000000000E+00 0.  1.
<mgrwt>
<rscale>  0 0.92426326E+02</rscale>
<asrwt>0</asrwt>
<pdfrwt beam="2">  1        1 0.21684320E-01 0.92426326E+02</pdfrwt>
<pdfrwt beam="1">  1       -1 0.23310891E-02 0.92426326E+02</pdfrwt>
<totfact> 0.10685635E+05</totfact>
</mgrwt>
</event>
<event>
 7    1  0.2787125E-009  0.8589428E+02  0.7818608E-02  0.1313110E+00
          1   -1    0    0  501    0  0.00000000000E+00  0.00000000000E+00  0.29144461484E+02  0.29144461919E+02  0.50400000000E-02 0. -1.
         -1   -1    0    0    0  501 -0.00000000000E+00 -0.00000000000E+00 -0.63286702042E+02  0.63286702242E+02  0.50400000000E-02 0.  1.
         23    2    1    2    0    0  0.88817841970E-15 -0.35527136788E-14 -0.34142240558E+02  0.92431164162E+02  0.85894281055E+02 0.  0.
    9000005    2    3    3    0    0  0.34889459521E+01 -0.30261128227E+02 -0.48532969213E+02  0.58741377925E+02  0.12930265059E+02 0.  0.
         22    1    3    3    0    0 -0.34889459521E+01  0.30261128227E+02  0.14390728656E+02  0.33689786236E+02  0.00000000000E+00 0. -1.
         22    1    4    4    0    0 -0.15285410167E+01 -0.50965704118E+00 -0.82839952798E+01  0.84392396420E+01  0.00000000000E+00 0. -1.
         22    1    4    4    0    0  0.50174869688E+01 -0.29751471185E+02 -0.40248973934E+02  0.50302138283E+02  0.00000000000E+00 0. -1.
<mgrwt>
<rscale>  0 0.85894281E+02</rscale>
<asrwt>0</asrwt>
<pdfrwt beam="1">  1        1 0.44837634E-02 0.85894281E+02</pdfrwt>
<pdfrwt beam="2">  1       -1 0.97364157E-02 0.85894281E+02</pdfrwt>
<totfact> 0.10232244E+05</totfact>
</mgrwt>
</event>
<event>
 7    1  0.2787125E-009  0.8984772E+02  0.7818608E-02  0.1303221E+00
          1   -1    0    0  501    0  0.00000000000E+00  0.00000000000E+00  0.15471292685E+03  0.15471292693E+03  0.50400000000E-02 0. -1.
         -1   -1    0    0    0  501 -0.00000000000E+00 -0.00000000000E+00 -0.13044502338E+02  0.13044503312E+02  0.50400000000E-02 0.  1.
         23    2    1    2    0    0  0.00000000000E+00 -0.35527136788E-14  0.14166842451E+03  0.16775743024E+03  0.89847720606E+02 0.  0.
    9000005    2    3    3    0    0 -0.23116415572E+02 -0.27677274666E+02  0.11928816632E+03  0.12531598636E+03  0.13192028348E+02 0.  0.
         22    1    3    3    0    0  0.23116415572E+02  0.27677274666E+02  0.22380258186E+02  0.42441443876E+02  0.00000000000E+00 0.  1.
         22    1    4    4    0    0 -0.66607251543E+01 -0.50083094344E+01  0.48068058125E+02  0.48785106692E+02  0.00000000000E+00 0. -1.
         22    1    4    4    0    0 -0.16455690417E+02 -0.22668965232E+02  0.71220108198E+02  0.76530879673E+02  0.00000000000E+00 0. -1.
<mgrwt>
<rscale>  0 0.89847721E+02</rscale>
<asrwt>0</asrwt>
<pdfrwt beam="1">  1        1 0.23801988E-01 0.89847721E+02</pdfrwt>
<pdfrwt beam="2">  1       -1 0.20068467E-02 0.89847721E+02</pdfrwt>
<totfact> 0.11732146E+05</totfact>
</mgrwt>
</event>
<event>
 7    1  0.2787125E-009  0.7784120E+02  0.7818608E-02  0.1335292E+00
          1   -1    0    0  501    0  0.00000000000E+00  0.00000000000E+00  0.12185019983E+03  0.12185019993E+03  0.50400000000E-02 0. -1.
         -1   -1    0    0    0  501 -0.00000000000E+00 -0.00000000000E+00 -0.12431765123E+02  0.12431766145E+02  0.50400000000E-02 0.  1.
         23    2    1    2    0    0  0.00000000000E+00  0.00000000000E+00  0.10941843471E+03  0.13428196608E+03  0.77841200917E+02 0.  0.
    9000005    2    3    3    0    0  0.47616589120E+01 -0.34708572775E+02  0.82580668357E+02  0.90150071463E+02  0.89504289793E+01 0.  0.
         22    1    3    3    0    0 -0.47616589120E+01  0.34708572775E+02  0.26837766349E+02  0.44131894615E+02  0.00000000000E+00 0.  1.
         22    1    4    4    0    0  0.30008900303E+01 -0.28263181251E+01  0.11830570722E+02  0.12528200937E+02  0.00000000000E+00 0.  1.
         22    1    4    4    0    0  0.17607688817E+01 -0.31882254650E+02  0.70750097635E+02  0.77621870526E+02  0.00000000000E+00 0.  1.
<mgrwt>
<rscale>  0 0.77841201E+02</rscale>
<asrwt>0</asrwt>
<pdfrwt beam="1">  1        1 0.18746186E-01 0.77841201E+02</pdfrwt>
<pdfrwt beam="2">  1       -1 0.19125792E-02 0.77841201E+02</pdfrwt>
<totfact> 0.16513889E+05</totfact>
</mgrwt>
</event>
<event>
 7    1  0.2787125E-009  0.9003611E+02  0.7818608E-02  0.1302764E+00
         -1   -1    0    0    0  501 -0.00000000000E+00  0.00000000000E+00  0.79456540196E+01  0.79456556181E+01  0.50400000000E-02 0.  1.
          1   -1    0    0  501    0  0.00000000000E+00 -0.00000000000E+00 -0.25506083203E+03  0.25506083208E+03  0.50400000000E-02 0. -1.
         23    2    1    2    0    0 -0.88817841970E-15  0.00000000000E+00 -0.24711517801E+03  0.26300648769E+03  0.90036111466E+02 0.  0.
    9000005    2    3    3    0    0 -0.61654555042E+01 -0.27362298002E+02 -0.22510090162E+03  0.22735068090E+03  0.15205525307E+02 0.  0.
         22    1    3    3    0    0  0.61654555042E+01  0.27362298002E+02 -0.22014276381E+02  0.35655806793E+02  0.00000000000E+00 0.  1.
         22    1    4    4    0    0 -0.10158707002E+02 -0.25452026369E+02 -0.19877876413E+03  0.20065891967E+03  0.00000000000E+00 0.  1.
         22    1    4    4    0    0  0.39932514981E+01 -0.19102716327E+01 -0.26322137494E+02  0.26691761228E+02  0.00000000000E+00 0.  1.
<mgrwt>
<rscale>  0 0.90036111E+02</rscale>
<asrwt>0</asrwt>
<pdfrwt beam="2">  1        1 0.39240122E-01 0.90036111E+02</pdfrwt>
<pdfrwt beam="1">  1       -1 0.12224086E-02 0.90036111E+02</pdfrwt>
<totfact> 0.12839359E+05</totfact>
</mgrwt>
</event>
<event>
 7    1  0.2787125E-009  0.9058440E+02  0.7818608E-02  0.1301443E+00
          1   -1    0    0  501    0  0.00000000000E+00  0.00000000000E+00  0.27562669385E+03  0.27562669390E+03  0.50400000000E-02 0. -1.
         -1   -1    0    0    0  501 -0.00000000000E+00 -0.00000000000E+00 -0.74426140139E+01  0.74426157204E+01  0.50400000000E-02 0.  1.
         23    2    1    2    0    0  0.17763568394E-14  0.00000000000E+00  0.26818407984E+03  0.28306930962E+03  0.90584399150E+02 0.  0.
    9000005    2    3    3    0    0 -0.10836833853E+02  0.38359711443E+02  0.19841876361E+03  0.20271942612E+03  0.11672855000E+02 0.  0.
         22    1    3    3    0    0  0.10836833853E+02 -0.38359711443E+02  0.69765316231E+02  0.80349883502E+02  0.00000000000E+00 0.  1.
         22    1    4    4    0    0 -0.11069373957E+02  0.39090538584E+02  0.19643874676E+03  0.20059606794E+03  0.00000000000E+00 0. -1.
         22    1    4    4    0    0  0.23254010410E+00 -0.73082714087E+00  0.19800168515E+01  0.21233581756E+01  0.00000000000E+00 0. -1.
<mgrwt>
<rscale>  0 0.90584399E+02</rscale>
<asrwt>0</asrwt>
<pdfrwt beam="1">  1        1 0.42404096E-01 0.90584399E+02</pdfrwt>
<pdfrwt beam="2">  1       -1 0.11450180E-02 0.90584399E+02</pdfrwt>
<totfact> 0.12825700E+05</totfact>
</mgrwt>
</event>
<event>
 7    1  0.2787125E-009  0.9210721E+02  0.7818608E-02  0.1297828E+00
         -1   -1    0    0    0  501 -0.00000000000E+00  0.00000000000E+00  0.20524609206E+03  0.20524609213E+03  0.50400000000E-02 0.  1.
          1   -1    0    0  501    0  0.00000000000E+00 -0.00000000000E+00 -0.10333616988E+02  0.10333618217E+02  0.50400000000E-02 0. -1.
         23    2    1    2    0    0  0.00000000000E+00  0.00000000000E+00  0.19491247508E+03  0.21557971034E+03  0.92107212373E+02 0.  0.
    9000005    2    3    3    0    0  0.27582107554E+01 -0.43921173893E+02  0.76622090861E+02  0.89368410371E+02  0.13382478158E+02 0.  0.
         22    1    3    3    0    0 -0.27582107554E+01  0.43921173893E+02  0.11829038422E+03  0.12621129997E+03  0.00000000000E+00 0. -1.
         22    1    4    4    0    0  0.41357837902E+01 -0.73470181319E+01  0.81395040157E+01  0.11718997765E+02  0.00000000000E+00 0.  1.
         22    1    4    4    0    0 -0.13775730348E+01 -0.36574155761E+02  0.68482586846E+02  0.77649412607E+02  0.00000000000E+00 0.  1.
<mgrwt>
<rscale>  0 0.92107212E+02</rscale>
<asrwt>0</asrwt>
<pdfrwt beam="2">  1        1 0.15897873E-02 0.92107212E+02</pdfrwt>
<pdfrwt beam="1">  1       -1 0.31576322E-01 0.92107212E+02</pdfrwt>
<totfact> 0.67106075E+04</totfact>
</mgrwt>
</event>
<event>
 7    1  0.2787125E-009  0.9105270E+02  0.7818608E-02  0.1300322E+00
         -1   -1    0    0    0  501 -0.00000000000E+00  0.00000000000E+00  0.15802942285E+02  0.15802943089E+02  0.50400000000E-02 0.  1.
          1   -1    0    0  501    0  0.00000000000E+00 -0.00000000000E+00 -0.13115585916E+03  0.13115585926E+03  0.50400000000E-02 0. -1.
         23    2    1    2    0    0  0.71054273576E-14  0.00000000000E+00 -0.11535291687E+03  0.14695880234E+03  0.91052699879E+02 0.  0.
    9000005    2    3    3    0    0 -0.29320348740E+02  0.72018312707E+01 -0.11148458691E+03  0.11652012299E+03  0.15381050670E+02 0.  0.
         22    1    3    3    0    0  0.29320348740E+02 -0.72018312707E+01 -0.38683299617E+01  0.30438679351E+02  0.00000000000E+00 0.  1.
         22    1    4    4    0    0 -0.24612850343E+02  0.10087409499E+02 -0.10313507452E+03  0.10651005506E+03  0.00000000000E+00 0.  1.
         22    1    4    4    0    0 -0.47074983970E+01 -0.28855782285E+01 -0.83495123885E+01  0.10010067932E+02  0.00000000000E+00 0.  1.
<mgrwt>
<rscale>  0 0.91052700E+02</rscale>
<asrwt>0</asrwt>
<pdfrwt beam="2">  1        1 0.20177824E-01 0.91052700E+02</pdfrwt>
<pdfrwt beam="1">  1       -1 0.24312221E-02 0.91052700E+02</pdfrwt>
<totfact> 0.10984409E+05</totfact>
</mgrwt>
</event>
<event>
 7    1  0.2787125E-009  0.9056688E+02  0.7818608E-02  0.1301485E+00
          1   -1    0    0  501    0  0.00000000000E+00  0.00000000000E+00  0.15597213368E+03  0.15597213376E+03  0.50400000000E-02 0. -1.
         -1   -1    0    0    0  501 -0.00000000000E+00 -0.00000000000E+00 -0.13147154008E+02  0.13147154974E+02  0.50400000000E-02 0.  1.
         23    2    1    2    0    0  0.35527136788E-14  0.00000000000E+00  0.14282497967E+03  0.16911928873E+03  0.90566875865E+02 0.  0.
    9000005    2    3    3    0    0 -0.25801581567E+02 -0.87331909703E+01  0.13894828147E+03  0.14160531002E+03  0.18570582926E+01 0.  0.
         22    1    3    3    0    0  0.25801581567E+02  0.87331909703E+01  0.38766981998E+01  0.27513978716E+02  0.00000000000E+00 0.  1.
         22    1    4    4    0    0 -0.79947285196E+01 -0.18595357537E+01  0.43281653054E+02  0.44053093517E+02  0.00000000000E+00 0.  1.
         22    1    4    4    0    0 -0.17806853047E+02 -0.68736552166E+01  0.95666628416E+02  0.97552216499E+02  0.00000000000E+00 0.  1.
<mgrwt>
<rscale>  0 0.90566876E+02</rscale>
<asrwt>0</asrwt>
<pdfrwt beam="1">  1        1 0.23995714E-01 0.90566876E+02</pdfrwt>
<pdfrwt beam="2">  1       -1 0.20226391E-02 0.90566876E+02</pdfrwt>
<totfact> 0.11500414E+05</totfact>
</mgrwt>
</event>
<event>
 7    1  0.2787125E-009  0.9195626E+02  0.7818608E-02  0.1298182E+00
         -1   -1    0    0    0  501 -0.00000000000E+00  0.00000000000E+00  0.33075932823E+01  0.33075971222E+01  0.50400000000E-02 0.  1.
          1   -1    0    0  501    0  0.00000000000E+00 -0.00000000000E+00 -0.63913158458E+03  0.63913158460E+03  0.50400000000E-02 0. -1.
         23    2    1    2    0    0  0.00000000000E+00  0.00000000000E+00 -0.63582399129E+03  0.64243918172E+03  0.91956262984E+02 0.  0.
    9000005    2    3    3    0    0 -0.31036345783E+02 -0.22303204861E+02 -0.49346876590E+03  0.49504278453E+03  0.97595026283E+01 0.  0.
         22    1    3    3    0    0  0.31036345783E+02  0.22303204861E+02 -0.14235522539E+03  0.14739639719E+03  0.00000000000E+00 0.  1.
         22    1    4    4    0    0 -0.21350928711E+01 -0.41581900469E+00 -0.10948972820E+02  0.11162953589E+02  0.00000000000E+00 0.  1.
         22    1    4    4    0    0 -0.28901252911E+02 -0.21887385857E+02 -0.48251979308E+03  0.48387983094E+03  0.00000000000E+00 0.  1.
<mgrwt>
<rscale>  0 0.91956263E+02</rscale>
<asrwt>0</asrwt>
<pdfrwt beam="2">  1        1 0.98327838E-01 0.91956263E+02</pdfrwt>
<pdfrwt beam="1">  1       -1 0.50886131E-03 0.91956263E+02</pdfrwt>
<totfact> 0.13884499E+05</totfact>
</mgrwt>
</event>
<event>
 7    1  0.2787125E-009  0.9150752E+02  0.7818608E-02  0.1299242E+00
         -1   -1    0    0    0  501 -0.00000000000E+00  0.00000000000E+00  0.10728036595E+02  0.10728037779E+02  0.50400000000E-02 0.  1.
          1   -1    0    0  501    0  0.00000000000E+00 -0.00000000000E+00 -0.19513415137E+03  0.19513415143E+03  0.50400000000E-02 0. -1.
         23    2    1    2    0    0 -0.35527136788E-14  0.00000000000E+00 -0.18440611477E+03  0.20586218921E+03  0.91507517623E+02 0.  0.
    9000005    2    3    3    0    0 -0.25472563361E+02  0.20636316566E+02 -0.16320181662E+03  0.16681950352E+03  0.10918093381E+02 0.  0.
         22    1    3    3    0    0  0.25472563361E+02 -0.20636316566E+02 -0.21204298158E+02  0.39042685691E+02  0.00000000000E+00 0.  1.
         22    1    4    4    0    0 -0.26140635968E+02  0.20091917778E+02 -0.14958102338E+03  0.15317147438E+03  0.00000000000E+00 0. -1.
         22    1    4    4    0    0  0.66807260682E+00  0.54439878812E+00 -0.13620793239E+02  0.13648029144E+02  0.00000000000E+00 0. -1.
<mgrwt>
<rscale>  0 0.91507518E+02</rscale>
<asrwt>0</asrwt>
<pdfrwt beam="2">  1        1 0.30020636E-01 0.91507518E+02</pdfrwt>
<pdfrwt beam="1">  1       -1 0.16504674E-02 0.91507518E+02</pdfrwt>
<totfact> 0.11670227E+05</totfact>
</mgrwt>
</event>
<event>
 7    1  0.2787125E-009  0.9500852E+02  0.7818608E-02  0.1291157E+00
         -1   -1    0    0    0  501 -0.00000000000E+00  0.00000000000E+00  0.93027301710E+02  0.93027301846E+02  0.50400000000E-02 0.  1.
          1   -1    0    0  501    0  0.00000000000E+00 -0.00000000000E+00 -0.24257980316E+02  0.24257980840E+02  0.50400000000E-02 0. -1.
         23    2    1    2    0    0  0.00000000000E+00  0.00000000000E+00  0.68769321394E+02  0.11728528269E+03  0.95008515249E+02 0.  0.
    9000005    2    3    3    0    0 -0.22935615478E+02 -0.21999548114E+02  0.77314394784E+02  0.84375696638E+02  0.11476931985E+02 0.  0.
         22    1    3    3    0    0  0.22935615478E+02  0.21999548114E+02 -0.85450733900E+01  0.32909586048E+02  0.00000000000E+00 0. -1.
         22    1    4    4    0    0 -0.58118618140E+01 -0.13396287653E+02  0.35002421032E+02  0.37926346235E+02  0.00000000000E+00 0. -1.
         22    1    4    4    0    0 -0.17123753664E+02 -0.86032604612E+01  0.42311973752E+02  0.46449350404E+02  0.00000000000E+00 0. -1.
<mgrwt>
<rscale>  0 0.95008515E+02</rscale>
<asrwt>0</asrwt>
<pdfrwt beam="2">  1        1 0.37319970E-02 0.95008515E+02</pdfrwt>
<pdfrwt beam="1">  1       -1 0.14311893E-01 0.95008515E+02</pdfrwt>
<totfact> 0.74162685E+04</totfact>
</mgrwt>
</event>
<event>
 7    1  0.2787125E-009  0.9068841E+02  0.7818608E-02  0.1301193E+00
         -1   -1    0    0    0  501 -0.00000000000E+00  0.00000000000E+00  0.58969873031E+01  0.58969894569E+01  0.50400000000E-02 0.  1.
          1   -1    0    0  501    0  0.00000000000E+00 -0.00000000000E+00 -0.34866895019E+03  0.34866895022E+03  0.50400000000E-02 0. -1.
         23    2    1    2    0    0  0.88817841970E-15  0.00000000000E+00 -0.34277196288E+03  0.35456593968E+03  0.90688406327E+02 0.  0.
    9000005    2    3    3    0    0  0.47105312746E+01 -0.19063805751E+02 -0.33072767243E+03  0.33152938770E+03  0.12055032312E+02 0.  0.
         22    1    3    3    0    0 -0.47105312746E+01  0.19063805751E+02 -0.12044290456E+02  0.23036551982E+02  0.00000000000E+00 0.  1.
         22    1    4    4    0    0 -0.33295123461E+01 -0.69516348690E+01 -0.76776408468E+02  0.77162346887E+02  0.00000000000E+00 0. -1.
         22    1    4    4    0    0  0.80400436207E+01 -0.12112170882E+02 -0.25395126396E+03  0.25436704081E+03  0.00000000000E+00 0. -1.
<mgrwt>
<rscale>  0 0.90688406E+02</rscale>
<asrwt>0</asrwt>
<pdfrwt beam="2">  1        1 0.53641361E-01 0.90688406E+02</pdfrwt>
<pdfrwt beam="1">  1       -1 0.90722926E-03 0.90688406E+02</pdfrwt>
<totfact> 0.13363707E+05</totfact>
</mgrwt>
</event>
<event>
 7    1  0.2787125E-009  0.9099509E+02  0.7818608E-02  0.1300460E+00
          1   -1    0    0  501    0  0.00000000000E+00  0.00000000000E+00  0.20399607135E+03  0.20399607141E+03  0.50400000000E-02 0. -1.
         -1   -1    0    0    0  501 -0.00000000000E+00 -0.00000000000E+00 -0.10147384855E+02  0.10147386106E+02  0.50400000000E-02 0.  1.
         23    2    1    2    0    0  0.00000000000E+00  0.00000000000E+00  0.19384868650E+03  0.21414345752E+03  0.90995094055E+02 0.  0.
    9000005    2    3    3    0    0 -0.52900257084E+01  0.31717133038E+02  0.17226187156E+03  0.17541425046E+03  0.78769265562E+01 0.  0.
         22    1    3    3    0    0  0.52900257084E+01 -0.31717133038E+02  0.21586814937E+02  0.38729207057E+02  0.00000000000E+00 0.  1.
         22    1    4    4    0    0 -0.24015307613E+01  0.85100460826E+01  0.31276163632E+02  0.32502102176E+02  0.00000000000E+00 0. -1.
         22    1    4    4    0    0 -0.28884949471E+01  0.23207086955E+02  0.14098570793E+03  0.14291214829E+03  0.00000000000E+00 0. -1.
<mgrwt>
<rscale>  0 0.90995094E+02</rscale>
<asrwt>0</asrwt>
<pdfrwt beam="1">  1        1 0.31384011E-01 0.90995094E+02</pdfrwt>
<pdfrwt beam="2">  1       -1 0.15611362E-02 0.90995094E+02</pdfrwt>
<totfact> 0.11949938E+05</totfact>
</mgrwt>
</event>
<event>
 7    1  0.2787125E-009  0.9289717E+02  0.7818608E-02  0.1295984E+00
          1   -1    0    0  501    0  0.00000000000E+00  0.00000000000E+00  0.33667755616E+03  0.33667755619E+03  0.50400000000E-02 0. -1.
         -1   -1    0    0    0  501 -0.00000000000E+00 -0.00000000000E+00 -0.64081217708E+01  0.64081237528E+01  0.50400000000E-02 0.  1.
         23    2    1    2    0    0  0.00000000000E+00  0.00000000000E+00  0.33026943439E+03  0.34308567995E+03  0.92897171621E+02 0.  0.
    9000005    2    3    3    0    0  0.36251559253E+02  0.72719757086E+01  0.26622619106E+03  0.26913573610E+03  0.13805885038E+02 0.  0.
         22    1    3    3    0    0 -0.36251559253E+02 -0.72719757086E+01  0.64043243323E+02  0.73949943843E+02  0.00000000000E+00 0.  1.
         22    1    4    4    0    0  0.35415392599E+02  0.51992663909E+01  0.22324438745E+03  0.22609586226E+03  0.00000000000E+00 0.  1.
         22    1    4    4    0    0  0.83616665436E+00  0.20727093176E+01  0.42981803615E+02  0.43039873845E+02  0.00000000000E+00 0.  1.
<mgrwt>
<rscale>  0 0.92897172E+02</rscale>
<asrwt>0</asrwt>
<pdfrwt beam="1">  1        1 0.51796557E-01 0.92897172E+02</pdfrwt>
<pdfrwt beam="2">  1       -1 0.98586486E-03 0.92897172E+02</pdfrwt>
<totfact> 0.12455183E+05</totfact>
</mgrwt>
</event>
<event>
 7    1  0.2787125E-009  0.9060611E+02  0.7818608E-02  0.1301391E+00
          1   -1    0    0  501    0  0.00000000000E+00  0.00000000000E+00  0.19416255347E+02  0.19416256001E+02  0.50400000000E-02 0. -1.
         -1   -1    0    0    0  501 -0.00000000000E+00 -0.00000000000E+00 -0.10570352425E+03  0.10570352437E+03  0.50400000000E-02 0.  1.
         23    2    1    2    0    0  0.35527136788E-14  0.00000000000E+00 -0.86287268905E+02  0.12511978037E+03  0.90606107219E+02 0.  0.
    9000005    2    3    3    0    0 -0.20146148019E+02 -0.15128842133E+02  0.78151500124E+01  0.27703075489E+02  0.84637271648E+01 0.  0.
         22    1    3    3    0    0  0.20146148019E+02  0.15128842133E+02 -0.94102418917E+02  0.97416704883E+02  0.00000000000E+00 0.  1.
         22    1    4    4    0    0 -0.41537214912E+01 -0.78813756201E+01  0.14458925320E+01  0.90255243120E+01  0.00000000000E+00 0. -1.
         22    1    4    4    0    0 -0.15992426528E+02 -0.72474665129E+01  0.63692574804E+01  0.18677551177E+02  0.00000000000E+00 0. -1.
<mgrwt>
<rscale>  0 0.90606107E+02</rscale>
<asrwt>0</asrwt>
<pdfrwt beam="1">  1        1 0.29871163E-02 0.90606107E+02</pdfrwt>
<pdfrwt beam="2">  1       -1 0.16262080E-01 0.90606107E+02</pdfrwt>
<totfact> 0.81837837E+04</totfact>
</mgrwt>
</event>
<event>
 7    1  0.2787125E-009  0.9075011E+02  0.7818608E-02  0.1301045E+00
          1   -1    0    0  501    0  0.00000000000E+00  0.00000000000E+00  0.84067307819E+02  0.84067307970E+02  0.50400000000E-02 0. -1.
         -1   -1    0    0    0  501 -0.00000000000E+00 -0.00000000000E+00 -0.24491036262E+02  0.24491036780E+02  0.50400000000E-02 0.  1.
         23    2    1    2    0    0 -0.17763568394E-14 -0.17763568394E-14  0.59576271557E+02  0.10855834475E+03  0.90750107891E+02 0.  0.
    9000005    2    3    3    0    0  0.14109696234E+02  0.12723022020E+02 -0.18059469044E+02  0.28631709416E+02  0.11518313451E+02 0.  0.
         22    1    3    3    0    0 -0.14109696234E+02 -0.12723022020E+02  0.77635740601E+02  0.79926635334E+02  0.00000000000E+00 0. -1.
         22    1    4    4    0    0  0.57965474730E+00 -0.20526210374E+01 -0.11999736144E+01  0.24472820484E+01  0.00000000000E+00 0. -1.
         22    1    4    4    0    0  0.13530041487E+02  0.14775643057E+02 -0.16859495430E+02  0.26184427367E+02  0.00000000000E+00 0. -1.
<mgrwt>
<rscale>  0 0.90750108E+02</rscale>
<asrwt>0</asrwt>
<pdfrwt beam="1">  1        1 0.12933432E-01 0.90750108E+02</pdfrwt>
<pdfrwt beam="2">  1       -1 0.37678518E-02 0.90750108E+02</pdfrwt>
<totfact> 0.10285291E+05</totfact>
</mgrwt>
</event>
<event>
 7    1  0.2787125E-009  0.9055818E+02  0.7818608E-02  0.1301506E+00
         -1   -1    0    0    0  501 -0.00000000000E+00  0.00000000000E+00  0.49982321410E+02  0.49982321664E+02  0.50400000000E-02 0.  1.
          1   -1    0    0  501    0  0.00000000000E+00 -0.00000000000E+00 -0.41018423823E+02  0.41018424133E+02  0.50400000000E-02 0. -1.
         23    2    1    2    0    0  0.55511151231E-16  0.71054273576E-14  0.89638975868E+01  0.91000745797E+02  0.90558181716E+02 0.  0.
    9000005    2    3    3    0    0  0.22834703329E+00  0.34017915501E+02 -0.24654433874E+02  0.43173317185E+02  0.99410004373E+01 0.  0.
         22    1    3    3    0    0 -0.22834703329E+00 -0.34017915501E+02  0.33618331461E+02  0.47827428612E+02  0.00000000000E+00 0.  1.
         22    1    4    4    0    0 -0.14058142502E+01  0.45438646303E+01 -0.69209058326E-01  0.47568697038E+01  0.00000000000E+00 0. -1.
         22    1    4    4    0    0  0.16341612835E+01  0.29474050871E+02 -0.24585224816E+02  0.38416447481E+02  0.00000000000E+00 0. -1.
<mgrwt>
<rscale>  0 0.90558182E+02</rscale>
<asrwt>0</asrwt>
<pdfrwt beam="2">  1        1 0.63105268E-02 0.90558182E+02</pdfrwt>
<pdfrwt beam="1">  1       -1 0.76895879E-02 0.90558182E+02</pdfrwt>
<totfact> 0.92773281E+04</totfact>
</mgrwt>
</event>
<event>
 6    1  0.2885615E-009  0.4053165E+03  0.7818608E-02  0.1041954E+00
          1   -1    0    0  501    0  0.00000000000E+00  0.00000000000E+00  0.16859594384E+03  0.16859594392E+03  0.50400000000E-02 0. -1.
         -1   -1    0    0    0  501 -0.00000000000E+00 -0.00000000000E+00 -0.24360232265E+03  0.24360232270E+03  0.50400000000E-02 0.  1.
    9000005    2    1    2    0    0 -0.15107019828E+03 -0.90405957216E+02 -0.13899145752E+03  0.22487626523E+03  0.15977092796E+02 0.  0.
         22    1    1    2    0    0  0.15107019828E+03  0.90405957216E+02  0.63985078707E+02  0.18732200139E+03  0.00000000000E+00 0. -1.
         22    1    3    3    0    0 -0.36086759790E+01 -0.56116837634E+01 -0.49591676935E+01  0.83130548653E+01  0.00000000000E+00 0. -1.
         22    1    3    3    0    0 -0.14746152230E+03 -0.84794273453E+02 -0.13403228982E+03  0.21656321037E+03  0.00000000000E+00 0. -1.
<mgrwt>
<rscale>  0 0.40531649E+03</rscale>
<asrwt>0</asrwt>
<pdfrwt beam="1">  1        1 0.25937838E-01 0.40531649E+03</pdfrwt>
<pdfrwt beam="2">  1       -1 0.37477280E-01 0.40531649E+03</pdfrwt>
<totfact> 0.12713036E+03</totfact>
</mgrwt>
</event>
<event>
 7    1  0.2787125E-009  0.8914556E+02  0.7818608E-02  0.1304934E+00
          1   -1    0    0  501    0  0.00000000000E+00  0.00000000000E+00  0.42266739029E+01  0.42266769078E+01  0.50400000000E-02 0. -1.
         -1   -1    0    0    0  501 -0.00000000000E+00 -0.00000000000E+00 -0.47004623479E+03  0.47004623482E+03  0.50400000000E-02 0.  1.
         23    2    1    2    0    0  0.00000000000E+00  0.00000000000E+00 -0.46581956089E+03  0.47427291173E+03  0.89145563496E+02 0.  0.
    9000005    2    3    3    0    0  0.39869730194E+02 -0.18383478383E+02 -0.26671864862E+03  0.27038882473E+03  0.66129687213E+01 0.  0.
         22    1    3    3    0    0 -0.39869730194E+02  0.18383478383E+02 -0.19910091228E+03  0.20388408700E+03  0.00000000000E+00 0.  1.
         22    1    4    4    0    0  0.13743514059E+02 -0.77648557815E+01 -0.11405441732E+03  0.11514159662E+03  0.00000000000E+00 0.  1.
         22    1    4    4    0    0  0.26126216135E+02 -0.10618622601E+02 -0.15266423130E+03  0.15524722810E+03  0.00000000000E+00 0.  1.
<mgrwt>
<rscale>  0 0.89145563E+02</rscale>
<asrwt>0</asrwt>
<pdfrwt beam="1">  1        1 0.65025813E-03 0.89145563E+02</pdfrwt>
<pdfrwt beam="2">  1       -1 0.72314764E-01 0.89145563E+02</pdfrwt>
<totfact> 0.51785911E+04</totfact>
</mgrwt>
</event>
<event>
 7    1  0.2787125E-009  0.9030699E+02  0.7818608E-02  0.1302110E+00
         -1   -1    0    0    0  501 -0.00000000000E+00  0.00000000000E+00  0.43720448669E+01  0.43720477719E+01  0.50400000000E-02 0.  1.
          1   -1    0    0  501    0  0.00000000000E+00 -0.00000000000E+00 -0.46633497330E+03  0.46633497333E+03  0.50400000000E-02 0. -1.
         23    2    1    2    0    0  0.00000000000E+00  0.00000000000E+00 -0.46196292843E+03  0.47070702110E+03  0.90306990126E+02 0.  0.
    9000005    2    3    3    0    0 -0.30342338258E+02 -0.28262534639E+02 -0.31673728658E+03  0.31967750277E+03  0.12319444452E+02 0.  0.
         22    1    3    3    0    0  0.30342338258E+02  0.28262534639E+02 -0.14522564185E+03  0.15102951833E+03  0.00000000000E+00 0.  1.
         22    1    4    4    0    0 -0.66561654748E+01 -0.20929444987E+01 -0.31434965787E+02  0.32200031514E+02  0.00000000000E+00 0. -1.
         22    1    4    4    0    0 -0.23686172784E+02 -0.26169590141E+02 -0.28530232080E+03  0.28747747126E+03  0.00000000000E+00 0. -1.
<mgrwt>
<rscale>  0 0.90306990E+02</rscale>
<asrwt>0</asrwt>
<pdfrwt beam="2">  1        1 0.71743803E-01 0.90306990E+02</pdfrwt>
<pdfrwt beam="1">  1       -1 0.67262288E-03 0.90306990E+02</pdfrwt>
<totfact> 0.14159070E+05</totfact>
</mgrwt>
</event>
<event>
 7    1  0.2787125E-009  0.9211530E+02  0.7818608E-02  0.1297809E+00
          1   -1    0    0  501    0  0.00000000000E+00  0.00000000000E+00  0.55153151831E+03  0.55153151833E+03  0.50400000000E-02 0. -1.
         -1   -1    0    0    0  501 -0.00000000000E+00 -0.00000000000E+00 -0.38462103319E+01  0.38462136340E+01  0.50400000000E-02 0.  1.
         23    2    1    2    0    0  0.22204460493E-15  0.35527136788E-14  0.54768530797E+03  0.55537773196E+03  0.92115300519E+02 0.  0.
    9000005    2    3    3    0    0 -0.18491917047E+01  0.18101670867E+02  0.52870941295E+03  0.52908753245E+03  0.82996181046E+01 0.  0.
         22    1    3    3    0    0  0.18491917047E+01 -0.18101670867E+02  0.18975895025E+02  0.26290199508E+02  0.00000000000E+00 0.  1.
         22    1    4    4    0    0 -0.25140055164E+01  0.18171130552E+02  0.52486295949E+03  0.52518343124E+03  0.00000000000E+00 0. -1.
         22    1    4    4    0    0  0.66481381166E+00 -0.69459684461E-01  0.38464534627E+01  0.39041012144E+01  0.00000000000E+00 0. -1.
<mgrwt>
<rscale>  0 0.92115301E+02</rscale>
<asrwt>0</asrwt>
<pdfrwt beam="1">  1        1 0.84850939E-01 0.92115301E+02</pdfrwt>
<pdfrwt beam="2">  1       -1 0.59172537E-03 0.92115301E+02</pdfrwt>
<totfact> 0.13692874E+05</totfact>
</mgrwt>
</event>
<event>
 7    1  0.2787125E-009  0.9200825E+02  0.7818608E-02  0.1298060E+00
          1   -1    0    0  501    0  0.00000000000E+00  0.00000000000E+00  0.49223013799E+03  0.49223013802E+03  0.50400000000E-02 0. -1.
         -1   -1    0    0    0  501 -0.00000000000E+00 -0.00000000000E+00 -0.42995712566E+01  0.42995742106E+01  0.50400000000E-02 0.  1.
         23    2    1    2    0    0  0.00000000000E+00  0.00000000000E+00  0.48793056674E+03  0.49652971223E+03  0.92008245125E+02 0.  0.
    9000005    2    3    3    0    0  0.32321763120E+02  0.29447798993E+02  0.31396274174E+03  0.31715113666E+03  0.10018535412E+02 0.  0.
         22    1    3    3    0    0 -0.32321763120E+02 -0.29447798993E+02  0.17396782500E+03  0.17937857557E+03  0.00000000000E+00 0. -1.
         22    1    4    4    0    0  0.65963631704E+01  0.11765287999E+02  0.83122814029E+02  0.84210071968E+02  0.00000000000E+00 0. -1.
         22    1    4    4    0    0  0.25725399950E+02  0.17682510994E+02  0.23083992771E+03  0.23294106470E+03  0.00000000000E+00 0. -1.
<mgrwt>
<rscale>  0 0.92008245E+02</rscale>
<asrwt>0</asrwt>
<pdfrwt beam="1">  1        1 0.75727714E-01 0.92008245E+02</pdfrwt>
<pdfrwt beam="2">  1       -1 0.66147273E-03 0.92008245E+02</pdfrwt>
<totfact> 0.13569662E+05</totfact>
</mgrwt>
</event>
<event>
 7    1  0.2787125E-009  0.9083061E+02  0.7818608E-02  0.1300853E+00
          1   -1    0    0  501    0  0.00000000000E+00  0.00000000000E+00  0.53237242904E+03  0.53237242906E+03  0.50400000000E-02 0. -1.
         -1   -1    0    0    0  501 -0.00000000000E+00 -0.00000000000E+00 -0.38742599957E+01  0.38742632740E+01  0.50400000000E-02 0.  1.
         23    2    1    2    0    0 -0.88817841970E-15  0.00000000000E+00  0.52849816904E+03  0.53624669234E+03  0.90830613562E+02 0.  0.
    9000005    2    3    3    0    0 -0.49675717068E+01  0.24383453740E+02  0.48699862986E+03  0.48785825015E+03  0.14791117865E+02 0.  0.
         22    1    3    3    0    0  0.49675717068E+01 -0.24383453740E+02  0.41499539181E+02  0.48388442186E+02  0.00000000000E+00 0.  1.
         22    1    4    4    0    0 -0.49263433774E+01  0.74326444973E+01  0.77917430862E+02  0.78426010325E+02  0.00000000000E+00 0. -1.
         22    1    4    4    0    0 -0.41228329371E-01  0.16950809242E+02  0.40908119900E+03  0.40943223983E+03  0.00000000000E+00 0. -1.
<mgrwt>
<rscale>  0 0.90830614E+02</rscale>
<asrwt>0</asrwt>
<pdfrwt beam="1">  1        1 0.81903457E-01 0.90830614E+02</pdfrwt>
<pdfrwt beam="2">  1       -1 0.59604021E-03 0.90830614E+02</pdfrwt>
<totfact> 0.14164394E+05</totfact>
</mgrwt>
</event>
<event>
 7    1  0.2787125E-009  0.9351301E+02  0.7818608E-02  0.1294561E+00
          1   -1    0    0  501    0  0.00000000000E+00  0.00000000000E+00  0.28310568667E+03  0.28310568671E+03  0.50400000000E-02 0. -1.
         -1   -1    0    0    0  501 -0.00000000000E+00 -0.00000000000E+00 -0.77221007738E+01  0.77221024185E+01  0.50400000000E-02 0.  1.
         23    2    1    2    0    0  0.00000000000E+00  0.00000000000E+00  0.27538358589E+03  0.29082778913E+03  0.93513012736E+02 0.  0.
    9000005    2    3    3    0    0  0.20813209826E+02  0.20512034727E+02  0.25013541237E+03  0.25220909498E+03  0.13702911905E+02 0.  0.
         22    1    3    3    0    0 -0.20813209826E+02 -0.20512034727E+02  0.25248173520E+02  0.38618694153E+02  0.00000000000E+00 0.  1.
         22    1    4    4    0    0  0.12797741970E+02  0.20526900532E+02  0.18040404212E+03  0.18201855471E+03  0.00000000000E+00 0. -1.
         22    1    4    4    0    0  0.80154678568E+01 -0.14865804490E-01  0.69731370247E+02  0.70190540263E+02  0.00000000000E+00 0. -1.
<mgrwt>
<rscale>  0 0.93513013E+02</rscale>
<asrwt>0</asrwt>
<pdfrwt beam="1">  1        1 0.43554709E-01 0.93513013E+02</pdfrwt>
<pdfrwt beam="2">  1       -1 0.11880160E-02 0.93513013E+02</pdfrwt>
<totfact> 0.11842185E+05</totfact>
</mgrwt>
</event>
<event>
 7    1  0.2787125E-009  0.9313311E+02  0.7818608E-02  0.1295437E+00
          1   -1    0    0  501    0  0.00000000000E+00  0.00000000000E+00  0.60004652130E+03  0.60004652132E+03  0.50400000000E-02 0. -1.
         -1   -1    0    0    0  501 -0.00000000000E+00 -0.00000000000E+00 -0.36137910741E+01  0.36137945887E+01  0.50400000000E-02 0.  1.
         23    2    1    2    0    0  0.35527136788E-14  0.00000000000E+00  0.59643273023E+03  0.60366031591E+03  0.93133105390E+02 0.  0.
    9000005    2    3    3    0    0 -0.18613972910E+02 -0.40372546650E+02  0.38787694653E+03  0.39041881567E+03  0.13796634116E+01 0.  0.
         22    1    3    3    0    0  0.18613972910E+02  0.40372546650E+02  0.20855578370E+03  0.21324150024E+03  0.00000000000E+00 0.  1.
         22    1    4    4    0    0 -0.28218408462E+00 -0.77014371216E+00  0.57820472136E+01  0.58399331482E+01  0.00000000000E+00 0.  1.
         22    1    4    4    0    0 -0.18331788825E+02 -0.39602402938E+02  0.38209489931E+03  0.38457888252E+03  0.00000000000E+00 0.  1.
<mgrwt>
<rscale>  0 0.93133105E+02</rscale>
<asrwt>0</asrwt>
<pdfrwt beam="1">  1        1 0.92314865E-01 0.93133105E+02</pdfrwt>
<pdfrwt beam="2">  1       -1 0.55596804E-03 0.93133105E+02</pdfrwt>
<totfact> 0.13384214E+05</totfact>
</mgrwt>
</event>
<event>
 7    1  0.2787125E-009  0.9135132E+02  0.7818608E-02  0.1299612E+00
          1   -1    0    0  501    0  0.00000000000E+00  0.00000000000E+00  0.60777088012E+03  0.60777088014E+03  0.50400000000E-02 0. -1.
         -1   -1    0    0    0  501 -0.00000000000E+00 -0.00000000000E+00 -0.34326498821E+01  0.34326535821E+01  0.50400000000E-02 0.  1.
         23    2    1    2    0    0  0.00000000000E+00 -0.35527136788E-14  0.60433823024E+03  0.61120353373E+03  0.91351316950E+02 0.  0.
    9000005    2    3    3    0    0 -0.94695309332E+01 -0.28157493229E+02  0.53424397498E+03  0.53507390046E+03  0.22220952149E+01 0.  0.
         22    1    3    3    0    0  0.94695309332E+01  0.28157493229E+02  0.70094255262E+02  0.76129633270E+02  0.00000000000E+00 0.  1.
         22    1    4    4    0    0 -0.23291118882E+01 -0.53835866692E+01  0.11923408272E+03  0.11937828215E+03  0.00000000000E+00 0.  1.
         22    1    4    4    0    0 -0.71404190450E+01 -0.22773906560E+02  0.41500989226E+03  0.41569561830E+03  0.00000000000E+00 0.  1.
<mgrwt>
<rscale>  0 0.91351317E+02</rscale>
<asrwt>0</asrwt>
<pdfrwt beam="1">  1        1 0.93503137E-01 0.91351317E+02</pdfrwt>
<pdfrwt beam="2">  1       -1 0.52810070E-03 0.91351317E+02</pdfrwt>
<totfact> 0.14097628E+05</totfact>
</mgrwt>
</event>
<event>
 7    1  0.2787125E-009  0.8987136E+02  0.7818608E-02  0.1303164E+00
         -1   -1    0    0    0  501 -0.00000000000E+00  0.00000000000E+00  0.41376072172E+02  0.41376072479E+02  0.50400000000E-02 0.  1.
          1   -1    0    0  501    0  0.00000000000E+00 -0.00000000000E+00 -0.48801518681E+02  0.48801518941E+02  0.50400000000E-02 0. -1.
         23    2    1    2    0    0  0.00000000000E+00  0.00000000000E+00 -0.74254465092E+01  0.90177591420E+02  0.89871356607E+02 0.  0.
    9000005    2    3    3    0    0 -0.12533402804E+01 -0.10312476507E+02 -0.46962303499E+02  0.49298732652E+02  0.10816148002E+02 0.  0.
         22    1    3    3    0    0  0.12533402804E+01  0.10312476507E+02  0.39536856990E+02  0.40878858768E+02  0.00000000000E+00 0.  1.
         22    1    4    4    0    0  0.47144550484E-01  0.21989756704E+01 -0.44401841065E+01  0.49550934913E+01  0.00000000000E+00 0. -1.
         22    1    4    4    0    0 -0.13004848309E+01 -0.12511452178E+02 -0.42522119392E+02  0.44343639160E+02  0.00000000000E+00 0. -1.
<mgrwt>
<rscale>  0 0.89871357E+02</rscale>
<asrwt>0</asrwt>
<pdfrwt beam="2">  1        1 0.75079260E-02 0.89871357E+02</pdfrwt>
<pdfrwt beam="1">  1       -1 0.63655496E-02 0.89871357E+02</pdfrwt>
<totfact> 0.97262671E+04</totfact>
</mgrwt>
</event>
<event>
 7    1  0.2787125E-009  0.9150612E+02  0.7818608E-02  0.1299245E+00
          1   -1    0    0  501    0  0.00000000000E+00  0.00000000000E+00  0.49964596703E+02  0.49964596958E+02  0.50400000000E-02 0.  1.
         -1   -1    0    0    0  501 -0.00000000000E+00 -0.00000000000E+00 -0.41896512273E+02  0.41896512576E+02  0.50400000000E-02 0. -1.
         23    2    1    2    0    0  0.00000000000E+00  0.35527136788E-14  0.80680844304E+01  0.91861109534E+02  0.91506117055E+02 0.  0.
    9000005    2    3    3    0    0  0.31088117764E+02 -0.29602264749E+02  0.16571819954E+02  0.48099497792E+02  0.14006117478E+02 0.  0.
         22    1    3    3    0    0 -0.31088117764E+02  0.29602264749E+02 -0.85037355239E+01  0.43761611742E+02  0.00000000000E+00 0. -1.
         22    1    4    4    0    0  0.19048741547E+02 -0.24198088377E+02  0.16424026124E+02  0.34902015268E+02  0.00000000000E+00 0. -1.
         22    1    4    4    0    0  0.12039376217E+02 -0.54041763728E+01  0.14779383060E+00  0.13197482524E+02  0.00000000000E+00 0. -1.
<mgrwt>
<rscale>  0 0.91506117E+02</rscale>
<asrwt>0</asrwt>
<pdfrwt beam="1">  1        1 0.76868610E-02 0.91506117E+02</pdfrwt>
<pdfrwt beam="2">  1       -1 0.64456173E-02 0.91506117E+02</pdfrwt>
<totfact> 0.92812717E+04</totfact>
</mgrwt>
</event>
<event>
 7    1  0.2787125E-009  0.9170763E+02  0.7818608E-02  0.1298768E+00
         -1   -1    0    0    0  501 -0.00000000000E+00  0.00000000000E+00  0.37016476635E+02  0.37016476978E+02  0.50400000000E-02 0. -1.
          1   -1    0    0  501    0  0.00000000000E+00 -0.00000000000E+00 -0.56800990437E+02  0.56800990661E+02  0.50400000000E-02 0.  1.
         23    2    1    2    0    0  0.00000000000E+00  0.00000000000E+00 -0.19784513802E+02  0.93817467639E+02  0.91707634621E+02 0.  0.
    9000005    2    3    3    0    0 -0.95008846292E+01  0.43775561616E+02 -0.13112451448E+02  0.48528583576E+02  0.13286099403E+02 0.  0.
         22    1    3    3    0    0  0.95008846292E+01 -0.43775561616E+02 -0.66720623540E+01  0.45288884063E+02  0.00000000000E+00 0.  1.
         22    1    4    4    0    0 -0.45624925242E+01  0.30773591376E+01 -0.31411449811E+01  0.63366607206E+01  0.00000000000E+00 0.  1.
         22    1    4    4    0    0 -0.49383921050E+01  0.40698202479E+02 -0.99713064670E+01  0.42191922856E+02  0.00000000000E+00 0.  1.
<mgrwt>
<rscale>  0 0.91707635E+02</rscale>
<asrwt>0</asrwt>
<pdfrwt beam="2">  1        1 0.87386140E-02 0.91707635E+02</pdfrwt>
<pdfrwt beam="1">  1       -1 0.56948426E-02 0.91707635E+02</pdfrwt>
<totfact> 0.94045328E+04</totfact>
</mgrwt>
</event>
<event>
 7    1  0.2787125E-009  0.9293375E+02  0.7818608E-02  0.1295899E+00
          1   -1    0    0  501    0  0.00000000000E+00  0.00000000000E+00  0.99220250962E+03  0.99220250963E+03  0.50400000000E-02 0. -1.
         -1   -1    0    0    0  501 -0.00000000000E+00 -0.00000000000E+00 -0.21761359712E+01  0.21761418076E+01  0.50400000000E-02 0.  1.
         23    2    1    2    0    0  0.00000000000E+00  0.00000000000E+00  0.99002637364E+03  0.99437865144E+03  0.92933750168E+02 0.  0.
    9000005    2    3    3    0    0 -0.28488702065E+02 -0.30363376647E+01  0.88251535492E+03  0.88311569876E+03  0.15464806144E+02 0.  0.
         22    1    3    3    0    0  0.28488702065E+02  0.30363376647E+01  0.10751101872E+03  0.11126295268E+03  0.00000000000E+00 0.  1.
         22    1    4    4    0    0 -0.29776611918E+02 -0.10591969280E+01  0.77124590102E+03  0.77182122824E+03  0.00000000000E+00 0.  1.
         22    1    4    4    0    0  0.12879098530E+01 -0.19771407367E+01  0.11126945390E+03  0.11129447052E+03  0.00000000000E+00 0.  1.
<mgrwt>
<rscale>  0 0.92933750E+02</rscale>
<asrwt>0</asrwt>
<pdfrwt beam="1">  1        1 0.15264666E+00 0.92933750E+02</pdfrwt>
<pdfrwt beam="2">  1       -1 0.33479033E-03 0.92933750E+02</pdfrwt>
<totfact> 0.12958300E+05</totfact>
</mgrwt>
</event>
<event>
 7    1  0.2787125E-009  0.9249735E+02  0.7818608E-02  0.1296914E+00
         -1   -1    0    0    0  501 -0.00000000000E+00  0.00000000000E+00  0.41799843357E+01  0.41799873742E+01  0.50400000000E-02 0.  1.
          1   -1    0    0  501    0  0.00000000000E+00 -0.00000000000E+00 -0.51170986769E+03  0.51170986772E+03  0.50400000000E-02 0. -1.
         23    2    1    2    0    0  0.00000000000E+00 -0.71054273576E-14 -0.50752988336E+03  0.51588985509E+03  0.92497351780E+02 0.  0.
    9000005    2    3    3    0    0 -0.96732774492E+01 -0.42230368022E+02 -0.32939461546E+03  0.33256187046E+03  0.14819200753E+02 0.  0.
         22    1    3    3    0    0  0.96732774492E+01  0.42230368022E+02 -0.17813526790E+03  0.18332798463E+03  0.00000000000E+00 0.  1.
         22    1    4    4    0    0 -0.94057670587E+01 -0.15128818980E+02 -0.16353569219E+03  0.16450310707E+03  0.00000000000E+00 0.  1.
         22    1    4    4    0    0 -0.26751039054E+00 -0.27101549042E+02 -0.16585892327E+03  0.16805876338E+03  0.00000000000E+00 0.  1.
<mgrwt>
<rscale>  0 0.92497352E+02</rscale>
<asrwt>0</asrwt>
<pdfrwt beam="2">  1        1 0.78724546E-01 0.92497352E+02</pdfrwt>
<pdfrwt beam="1">  1       -1 0.64307515E-03 0.92497352E+02</pdfrwt>
<totfact> 0.13441106E+05</totfact>
</mgrwt>
</event>
<event>
 7    1  0.2787125E-009  0.9248760E+02  0.7818608E-02  0.1296937E+00
          1   -1    0    0  501    0  0.00000000000E+00  0.00000000000E+00  0.11404089063E+03  0.11404089074E+03  0.50400000000E-02 0. -1.
         -1   -1    0    0    0  501 -0.00000000000E+00 -0.00000000000E+00 -0.18751947573E+02  0.18751948250E+02  0.50400000000E-02 0.  1.
         23    2    1    2    0    0 -0.35527136788E-14  0.71054273576E-14  0.95288943054E+02  0.13279283899E+03  0.92487596024E+02 0.  0.
    9000005    2    3    3    0    0 -0.25062562928E+02  0.38545881239E+02  0.50573674395E+02  0.68657261715E+02  0.64966163002E+01 0.  0.
         22    1    3    3    0    0  0.25062562928E+02 -0.38545881239E+02  0.44715268659E+02  0.64135577274E+02  0.00000000000E+00 0.  1.
         22    1    4    4    0    0 -0.23798556530E+02  0.33384359485E+02  0.43081578669E+02  0.59471919187E+02  0.00000000000E+00 0.  1.
         22    1    4    4    0    0 -0.12640063981E+01  0.51615217532E+01  0.74920957260E+01  0.91853425277E+01  0.00000000000E+00 0.  1.
<mgrwt>
<rscale>  0 0.92487596E+02</rscale>
<asrwt>0</asrwt>
<pdfrwt beam="1">  1        1 0.17544752E-01 0.92487596E+02</pdfrwt>
<pdfrwt beam="2">  1       -1 0.28849151E-02 0.92487596E+02</pdfrwt>
<totfact> 0.10272794E+05</totfact>
</mgrwt>
</event>
<event>
 7    1  0.2787125E-009  0.8969908E+02  0.7818608E-02  0.1303582E+00
          1   -1    0    0  501    0  0.00000000000E+00  0.00000000000E+00  0.51923238221E+03  0.51923238224E+03  0.50400000000E-02 0. -1.
         -1   -1    0    0    0  501 -0.00000000000E+00 -0.00000000000E+00 -0.38739503574E+01  0.38739536359E+01  0.50400000000E-02 0.  1.
         23    2    1    2    0    0  0.35527136788E-14  0.71054273576E-14  0.51535843186E+03  0.52310633588E+03  0.89699082193E+02 0.  0.
    9000005    2    3    3    0    0 -0.20509785815E+02 -0.37856739342E+02  0.30950627005E+03  0.31279966325E+03  0.13989785713E+02 0.  0.
         22    1    3    3    0    0  0.20509785815E+02  0.37856739342E+02  0.20585216181E+03  0.21030667262E+03  0.00000000000E+00 0.  1.
         22    1    4    4    0    0  0.19044704619E+01 -0.56329048941E+01  0.35088074389E+02  0.35588335021E+02  0.00000000000E+00 0. -1.
         22    1    4    4    0    0 -0.22414256277E+02 -0.32223834448E+02  0.27441819566E+03  0.27721132823E+03  0.00000000000E+00 0. -1.
<mgrwt>
<rscale>  0 0.89699082E+02</rscale>
<asrwt>0</asrwt>
<pdfrwt beam="1">  1        1 0.79881897E-01 0.89699082E+02</pdfrwt>
<pdfrwt beam="2">  1       -1 0.59599268E-03 0.89699082E+02</pdfrwt>
<totfact> 0.14604023E+05</totfact>
</mgrwt>
</event>
<event>
 7    1  0.2787125E-009  0.9097097E+02  0.7818608E-02  0.1300517E+00
         -1   -1    0    0    0  501 -0.00000000000E+00  0.00000000000E+00  0.14106972080E+01  0.14107062112E+01  0.50400000000E-02 0.  1.
          1   -1    0    0  501    0  0.00000000000E+00 -0.00000000000E+00 -0.14665960007E+04  0.14665960007E+04  0.50400000000E-02 0. -1.
         23    2    1    2    0    0  0.35527136788E-14  0.00000000000E+00 -0.14651853035E+04  0.14680067069E+04  0.90970973353E+02 0.  0.
    9000005    2    3    3    0    0 -0.22047090741E+02 -0.12208379391E+02 -0.13399349780E+04  0.13402461387E+04  0.14101364814E+02 0.  0.
         22    1    3    3    0    0  0.22047090741E+02  0.12208379391E+02 -0.12525032550E+03  0.12776056816E+03  0.00000000000E+00 0.  1.
         22    1    4    4    0    0 -0.21133592661E+01  0.23673344869E+01 -0.30536294042E+03  0.30537942947E+03  0.00000000000E+00 0.  1.
         22    1    4    4    0    0 -0.19933731475E+02 -0.14575713878E+02 -0.10345720375E+04  0.10348667093E+04  0.00000000000E+00 0.  1.
<mgrwt>
<rscale>  0 0.90970973E+02</rscale>
<asrwt>0</asrwt>
<pdfrwt beam="2">  1        1 0.22562893E+00 0.90970973E+02</pdfrwt>
<pdfrwt beam="1">  1       -1 0.21703221E-03 0.90970973E+02</pdfrwt>
<totfact> 0.11318926E+05</totfact>
</mgrwt>
</event>
<event>
 7    1  0.2787125E-009  0.9074269E+02  0.7818608E-02  0.1301063E+00
         -1   -1    0    0    0  501 -0.00000000000E+00  0.00000000000E+00  0.62633696231E+01  0.62633716509E+01  0.50400000000E-02 0.  1.
          1   -1    0    0  501    0  0.00000000000E+00 -0.00000000000E+00 -0.32866629503E+03  0.32866629507E+03  0.50400000000E-02 0. -1.
         23    2    1    2    0    0  0.35527136788E-14  0.00000000000E+00 -0.32240292540E+03  0.33492966672E+03  0.90742687517E+02 0.  0.
    9000005    2    3    3    0    0  0.28381414511E+02  0.51381408146E+01 -0.28944695827E+03  0.29113467898E+03  0.12163653855E+02 0.  0.
         22    1    3    3    0    0 -0.28381414511E+02 -0.51381408146E+01 -0.32955967134E+02  0.43794987732E+02  0.00000000000E+00 0.  1.
         22    1    4    4    0    0  0.14434840124E+02  0.39426187863E+01 -0.20406812172E+03  0.20461599927E+03  0.00000000000E+00 0.  1.
         22    1    4    4    0    0  0.13946574387E+02  0.11955220283E+01 -0.85378836545E+02  0.86518679717E+02  0.00000000000E+00 0.  1.
<mgrwt>
<rscale>  0 0.90742688E+02</rscale>
<asrwt>0</asrwt>
<pdfrwt beam="2">  1        1 0.50564032E-01 0.90742688E+02</pdfrwt>
<pdfrwt beam="1">  1       -1 0.96359574E-03 0.90742688E+02</pdfrwt>
<totfact> 0.13200115E+05</totfact>
</mgrwt>
</event>
<event>
 7    1  0.2787125E-009  0.9095947E+02  0.7818608E-02  0.1300545E+00
          1   -1    0    0  501    0  0.00000000000E+00  0.00000000000E+00  0.29610521927E+03  0.29610521932E+03  0.50400000000E-02 0. -1.
         -1   -1    0    0    0  501 -0.00000000000E+00 -0.00000000000E+00 -0.69853753205E+01  0.69853771387E+01  0.50400000000E-02 0.  1.
         23    2    1    2    0    0  0.00000000000E+00  0.00000000000E+00  0.28911984395E+03  0.30309059646E+03  0.90959471701E+02 0.  0.
    9000005    2    3    3    0    0  0.11862792601E+02 -0.32068966833E+02  0.24395569309E+03  0.24644304572E+03  0.71168888044E+01 0.  0.
         22    1    3    3    0    0 -0.11862792601E+02  0.32068966833E+02  0.45164150859E+02  0.56647550740E+02  0.00000000000E+00 0.  1.
         22    1    4    4    0    0  0.22324459625E+01 -0.90126432386E+01  0.46968860162E+02  0.47877817181E+02  0.00000000000E+00 0. -1.
         22    1    4    4    0    0  0.96303466387E+01 -0.23056323595E+02  0.19698683293E+03  0.19856522853E+03  0.00000000000E+00 0. -1.
<mgrwt>
<rscale>  0 0.90959472E+02</rscale>
<asrwt>0</asrwt>
<pdfrwt beam="1">  1        1 0.45554655E-01 0.90959472E+02</pdfrwt>
<pdfrwt beam="2">  1       -1 0.10746731E-02 0.90959472E+02</pdfrwt>
<totfact> 0.12861817E+05</totfact>
</mgrwt>
</event>
<event>
 7    1  0.2787125E-009  0.9210894E+02  0.7818608E-02  0.1297823E+00
         -1   -1    0    0    0  501 -0.00000000000E+00  0.00000000000E+00  0.81305906739E+02  0.81305906895E+02  0.50400000000E-02 0.  1.
          1   -1    0    0  501    0  0.00000000000E+00 -0.00000000000E+00 -0.26086842670E+02  0.26086843157E+02  0.50400000000E-02 0. -1.
         23    2    1    2    0    0  0.00000000000E+00  0.17763568394E-14  0.55219064069E+02  0.10739275005E+03  0.92108944882E+02 0.  0.
    9000005    2    3    3    0    0 -0.23502420604E+02 -0.13215413193E+02  0.70356840227E+02  0.76470861574E+02  0.13065097896E+02 0.  0.
         22    1    3    3    0    0  0.23502420604E+02  0.13215413193E+02 -0.15137776158E+02  0.30921888479E+02  0.00000000000E+00 0. -1.
         22    1    4    4    0    0 -0.11528063389E+02  0.18818118249E+00  0.21218861156E+02  0.24148948764E+02  0.00000000000E+00 0.  1.
         22    1    4    4    0    0 -0.11974357215E+02 -0.13403594375E+02  0.49137979071E+02  0.52321912809E+02  0.00000000000E+00 0.  1.
<mgrwt>
<rscale>  0 0.92108945E+02</rscale>
<asrwt>0</asrwt>
<pdfrwt beam="2">  1        1 0.40133605E-02 0.92108945E+02</pdfrwt>
<pdfrwt beam="1">  1       -1 0.12508601E-01 0.92108945E+02</pdfrwt>
<totfact> 0.82245416E+04</totfact>
</mgrwt>
</event>
<event>
 7    1  0.2787125E-009  0.9108604E+02  0.7818608E-02  0.1300243E+00
          1   -1    0    0  501    0  0.00000000000E+00  0.00000000000E+00  0.27099835752E+03  0.27099835756E+03  0.50400000000E-02 0. -1.
         -1   -1    0    0    0  501 -0.00000000000E+00 -0.00000000000E+00 -0.76537964461E+01  0.76537981056E+01  0.50400000000E-02 0.  1.
         23    2    1    2    0    0  0.00000000000E+00  0.00000000000E+00  0.26334456107E+03  0.27865215567E+03  0.91086036326E+02 0.  0.
    9000005    2    3    3    0    0 -0.32271904385E+01 -0.37598491617E+02  0.61414698095E+02  0.73226424829E+02  0.12895069641E+02 0.  0.
         22    1    3    3    0    0  0.32271904385E+01  0.37598491617E+02  0.20192986297E+03  0.20542573084E+03  0.00000000000E+00 0. -1.
         22    1    4    4    0    0 -0.34647164666E+01 -0.21952785529E+02  0.24204771566E+02  0.32860310699E+02  0.00000000000E+00 0. -1.
         22    1    4    4    0    0  0.23752602813E+00 -0.15645706088E+02  0.37209926529E+02  0.40366114129E+02  0.00000000000E+00 0. -1.
<mgrwt>
<rscale>  0 0.91086036E+02</rscale>
<asrwt>0</asrwt>
<pdfrwt beam="1">  1        1 0.41692064E-01 0.91086036E+02</pdfrwt>
<pdfrwt beam="2">  1       -1 0.11775070E-02 0.91086036E+02</pdfrwt>
<totfact> 0.12596735E+05</totfact>
</mgrwt>
</event>
<event>
 7    1  0.2787125E-009  0.1025908E+03  0.7818608E-02  0.1274940E+00
          1   -1    0    0  501    0  0.00000000000E+00  0.00000000000E+00  0.40889199179E+01  0.40889230240E+01  0.50400000000E-02 0. -1.
         -1   -1    0    0    0  501 -0.00000000000E+00 -0.00000000000E+00 -0.64349914388E+03  0.64349914390E+03  0.50400000000E-02 0.  1.
         23    2    1    2    0    0  0.00000000000E+00 -0.35527136788E-14 -0.63941022396E+03  0.64758806692E+03  0.10259078864E+03 0.  0.
    9000005    2    3    3    0    0  0.40705193757E+02  0.26795905946E+02 -0.40466537457E+03  0.40783803525E+03  0.14243041866E+02 0.  0.
         22    1    3    3    0    0 -0.40705193757E+02 -0.26795905946E+02 -0.23474484939E+03  0.23975003167E+03  0.00000000000E+00 0. -1.
         22    1    4    4    0    0  0.25146569151E+02  0.18765390838E+02 -0.20256646522E+03  0.20498210328E+03  0.00000000000E+00 0. -1.
         22    1    4    4    0    0  0.15558624606E+02  0.80305151076E+01 -0.20209890935E+03  0.20285593196E+03  0.00000000000E+00 0. -1.
<mgrwt>
<rscale>  0 0.10259079E+03</rscale>
<asrwt>0</asrwt>
<pdfrwt beam="1">  1        1 0.62906535E-03 0.10259079E+03</pdfrwt>
<pdfrwt beam="2">  1       -1 0.98999788E-01 0.10259079E+03</pdfrwt>
<totfact> 0.28914807E+04</totfact>
</mgrwt>
</event>
<event>
 7    1  0.2787125E-009  0.8937823E+02  0.7818608E-02  0.1304364E+00
          1   -1    0    0  501    0  0.00000000000E+00  0.00000000000E+00  0.21053549827E+03  0.21053549833E+03  0.50400000000E-02 0. -1.
         -1   -1    0    0    0  501 -0.00000000000E+00 -0.00000000000E+00 -0.94858915572E+01  0.94858928961E+01  0.50400000000E-02 0.  1.
         23    2    1    2    0    0  0.00000000000E+00 -0.88817841970E-15  0.20104960671E+03  0.22002139123E+03  0.89378231342E+02 0.  0.
    9000005    2    3    3    0    0  0.43338845578E+02 -0.74972189739E+01  0.10127892678E+03  0.11098629412E+03  0.11228207461E+02 0.  0.
         22    1    3    3    0    0 -0.43338845578E+02  0.74972189739E+01  0.99770679929E+02  0.10903509711E+03  0.00000000000E+00 0.  1.
         22    1    4    4    0    0  0.25209213018E+02  0.80925754084E+00  0.62029446922E+02  0.66961269434E+02  0.00000000000E+00 0. -1.
         22    1    4    4    0    0  0.18129632560E+02 -0.83064765147E+01  0.39249479861E+02  0.44025024681E+02  0.00000000000E+00 0. -1.
<mgrwt>
<rscale>  0 0.89378231E+02</rscale>
<asrwt>0</asrwt>
<pdfrwt beam="1">  1        1 0.32390075E-01 0.89378231E+02</pdfrwt>
<pdfrwt beam="2">  1       -1 0.14593681E-02 0.89378231E+02</pdfrwt>
<totfact> 0.12613972E+05</totfact>
</mgrwt>
</event>
<event>
 7    1  0.2787125E-009  0.9286971E+02  0.7818608E-02  0.1296047E+00
         -1   -1    0    0    0  501 -0.00000000000E+00  0.00000000000E+00  0.34204113361E+02  0.34204113732E+02  0.50400000000E-02 0.  1.
          1   -1    0    0  501    0  0.00000000000E+00 -0.00000000000E+00 -0.63039071078E+02  0.63039071280E+02  0.50400000000E-02 0. -1.
         23    2    1    2    0    0  0.00000000000E+00 -0.71054273576E-14 -0.28834957717E+02  0.97243185012E+02  0.92869705742E+02 0.  0.
    9000005    2    3    3    0    0 -0.22319782069E+02 -0.34281348223E+02 -0.36179669633E+02  0.55682045702E+02  0.10869140313E+02 0.  0.
         22    1    3    3    0    0  0.22319782069E+02  0.34281348223E+02  0.73447119159E+01  0.41561139310E+02  0.00000000000E+00 0.  1.
         22    1    4    4    0    0  0.70110174965E+00 -0.52632649761E-01 -0.19717665565E+01  0.20933650452E+01  0.00000000000E+00 0. -1.
         22    1    4    4    0    0 -0.23020883819E+02 -0.34228715574E+02 -0.34207903077E+02  0.53588680657E+02  0.00000000000E+00 0. -1.
<mgrwt>
<rscale>  0 0.92869706E+02</rscale>
<asrwt>0</asrwt>
<pdfrwt beam="2">  1        1 0.96983187E-02 0.92869706E+02</pdfrwt>
<pdfrwt beam="1">  1       -1 0.52621713E-02 0.92869706E+02</pdfrwt>
<totfact> 0.92264168E+04</totfact>
</mgrwt>
</event>
<event>
 7    1  0.2787125E-009  0.9052275E+02  0.7818608E-02  0.1301591E+00
         -1   -1    0    0    0  501 -0.00000000000E+00  0.00000000000E+00  0.12114457438E+03  0.12114457448E+03  0.50400000000E-02 0.  1.
          1   -1    0    0  501    0  0.00000000000E+00 -0.00000000000E+00 -0.16910306143E+02  0.16910306894E+02  0.50400000000E-02 0. -1.
         23    2    1    2    0    0 -0.71054273576E-14  0.00000000000E+00  0.10423426824E+03  0.13805488138E+03  0.90522746298E+02 0.  0.
    9000005    2    3    3    0    0  0.37775541463E+02  0.12144554278E+02  0.21918253082E+02  0.46674314065E+02  0.11117555659E+02 0.  0.
         22    1    3    3    0    0 -0.37775541463E+02 -0.12144554278E+02  0.82316015155E+02  0.91380567313E+02  0.00000000000E+00 0.  1.
         22    1    4    4    0    0  0.26603955884E+02  0.13562200642E+02  0.14557127859E+02  0.33220682209E+02  0.00000000000E+00 0.  1.
         22    1    4    4    0    0  0.11171585579E+02 -0.14176463644E+01  0.73611252231E+01  0.13453631856E+02  0.00000000000E+00 0.  1.
<mgrwt>
<rscale>  0 0.90522746E+02</rscale>
<asrwt>0</asrwt>
<pdfrwt beam="2">  1        1 0.26015856E-02 0.90522746E+02</pdfrwt>
<pdfrwt beam="1">  1       -1 0.18637627E-01 0.90522746E+02</pdfrwt>
<totfact> 0.79849683E+04</totfact>
</mgrwt>
</event>
<event>
 7    1  0.2787125E-009  0.8498302E+02  0.7818608E-02  0.1315477E+00
          1   -1    0    0  501    0  0.00000000000E+00  0.00000000000E+00  0.42461379068E+02  0.42461379367E+02  0.50400000000E-02 0. -1.
         -1   -1    0    0    0  501 -0.00000000000E+00 -0.00000000000E+00 -0.42521659172E+02  0.42521659471E+02  0.50400000000E-02 0.  1.
         23    2    1    2    0    0  0.00000000000E+00  0.88817841970E-15 -0.60280104083E-01  0.84983038839E+02  0.84983017460E+02 0.  0.
    9000005    2    3    3    0    0  0.17533930318E+02 -0.70272526093E+01  0.37242954905E+02  0.43169735528E+02  0.10943828573E+02 0.  0.
         22    1    3    3    0    0 -0.17533930318E+02  0.70272526093E+01 -0.37303235009E+02  0.41813303311E+02  0.00000000000E+00 0.  1.
         22    1    4    4    0    0  0.76428198004E+01 -0.72991106833E+01  0.26676362223E+02  0.28693518653E+02  0.00000000000E+00 0.  1.
         22    1    4    4    0    0  0.98911105171E+01  0.27185807401E+00  0.10566592683E+02  0.14476216874E+02  0.00000000000E+00 0.  1.
<mgrwt>
<rscale>  0 0.84983017E+02</rscale>
<asrwt>0</asrwt>
<pdfrwt beam="1">  1        1 0.65325199E-02 0.84983017E+02</pdfrwt>
<pdfrwt beam="2">  1       -1 0.65417938E-02 0.84983017E+02</pdfrwt>
<totfact> 0.11138878E+05</totfact>
</mgrwt>
</event>
<event>
 7    1  0.2787125E-009  0.8821637E+02  0.7818608E-02  0.1307229E+00
         -1   -1    0    0    0  501 -0.00000000000E+00  0.00000000000E+00  0.18026989034E+03  0.18026989041E+03  0.50400000000E-02 0.  1.
          1   -1    0    0  501    0  0.00000000000E+00 -0.00000000000E+00 -0.10792328812E+02  0.10792329989E+02  0.50400000000E-02 0. -1.
         23    2    1    2    0    0  0.00000000000E+00  0.17763568394E-14  0.16947756152E+03  0.19106222040E+03  0.88216371511E+02 0.  0.
    9000005    2    3    3    0    0 -0.35845871006E+02  0.15889130712E+02  0.12395290446E+03  0.13097989901E+03  0.15938019831E+02 0.  0.
         22    1    3    3    0    0  0.35845871006E+02 -0.15889130712E+02  0.45524657063E+02  0.60082321391E+02  0.00000000000E+00 0. -1.
         22    1    4    4    0    0 -0.35741454010E+02  0.14060231385E+02  0.10267750734E+03  0.10962578235E+03  0.00000000000E+00 0.  1.
         22    1    4    4    0    0 -0.10441699625E+00  0.18288993265E+01  0.21275397120E+02  0.21354116659E+02  0.00000000000E+00 0.  1.
<mgrwt>
<rscale>  0 0.88216372E+02</rscale>
<asrwt>0</asrwt>
<pdfrwt beam="2">  1        1 0.16603586E-02 0.88216372E+02</pdfrwt>
<pdfrwt beam="1">  1       -1 0.27733826E-01 0.88216372E+02</pdfrwt>
<totfact> 0.77837128E+04</totfact>
</mgrwt>
</event>
<event>
 7    1  0.2787125E-009  0.9624453E+02  0.7818608E-02  0.1288397E+00
         -1   -1    0    0    0  501 -0.00000000000E+00  0.00000000000E+00  0.40176089101E+02  0.40176089417E+02  0.50400000000E-02 0.  1.
          1   -1    0    0  501    0  0.00000000000E+00 -0.00000000000E+00 -0.57640069090E+02  0.57640069311E+02  0.50400000000E-02 0. -1.
         23    2    1    2    0    0 -0.35527136788E-14 -0.71054273576E-14 -0.17463979989E+02  0.97816158728E+02  0.96244533929E+02 0.  0.
    9000005    2    3    3    0    0 -0.17948240841E+02 -0.40815650445E+02 -0.25183563007E+02  0.52565206997E+02  0.11867285723E+02 0.  0.
         22    1    3    3    0    0  0.17948240841E+02  0.40815650445E+02  0.77195830175E+01  0.45250951730E+02  0.00000000000E+00 0. -1.
         22    1    4    4    0    0 -0.17229530302E+01 -0.36474751426E+00  0.67698617096E+00  0.18867745411E+01  0.00000000000E+00 0.  1.
         22    1    4    4    0    0 -0.16225287811E+02 -0.40450902931E+02 -0.25860549178E+02  0.50678432456E+02  0.00000000000E+00 0.  1.
<mgrwt>
<rscale>  0 0.96244534E+02</rscale>
<asrwt>0</asrwt>
<pdfrwt beam="2">  1        1 0.88677030E-02 0.96244534E+02</pdfrwt>
<pdfrwt beam="1">  1       -1 0.61809368E-02 0.96244534E+02</pdfrwt>
<totfact> 0.82361707E+04</totfact>
</mgrwt>
</event>
<event>
 7    1  0.2787125E-009  0.9111063E+02  0.7818608E-02  0.1300184E+00
          1   -1    0    0  501    0  0.00000000000E+00  0.00000000000E+00  0.43649545437E+02  0.43649545728E+02  0.50400000000E-02 0. -1.
         -1   -1    0    0    0  501 -0.00000000000E+00 -0.00000000000E+00 -0.47544290405E+02  0.47544290673E+02  0.50400000000E-02 0.  1.
         23    2    1    2    0    0 -0.35527136788E-14  0.00000000000E+00 -0.38947449685E+01  0.91193836400E+02  0.91110629232E+02 0.  0.
    9000005    2    3    3    0    0 -0.27614054216E+02 -0.29615229879E+02  0.18250221417E+02  0.45041941886E+02  0.74905350967E+01 0.  0.
         22    1    3    3    0    0  0.27614054216E+02  0.29615229879E+02 -0.22144966386E+02  0.46151894514E+02  0.00000000000E+00 0.  1.
         22    1    4    4    0    0 -0.10543078405E+02 -0.16788224351E+02  0.85815311532E+01  0.21601936395E+02  0.00000000000E+00 0. -1.
         22    1    4    4    0    0 -0.17070975811E+02 -0.12827005529E+02  0.96686902640E+01  0.23440005491E+02  0.00000000000E+00 0. -1.
<mgrwt>
<rscale>  0 0.91110629E+02</rscale>
<asrwt>0</asrwt>
<pdfrwt beam="1">  1        1 0.67153147E-02 0.91110629E+02</pdfrwt>
<pdfrwt beam="2">  1       -1 0.73145063E-02 0.91110629E+02</pdfrwt>
<totfact> 0.92057373E+04</totfact>
</mgrwt>
</event>
<event>
 7    1  0.2787125E-009  0.9035010E+02  0.7818608E-02  0.1302006E+00
          1   -1    0    0  501    0  0.00000000000E+00  0.00000000000E+00  0.32079084608E+03  0.32079084612E+03  0.50400000000E-02 0. -1.
         -1   -1    0    0    0  501 -0.00000000000E+00 -0.00000000000E+00 -0.63617298727E+01  0.63617318692E+01  0.50400000000E-02 0.  1.
         23    2    1    2    0    0  0.00000000000E+00  0.00000000000E+00  0.31442911621E+03  0.32715257799E+03  0.90350097763E+02 0.  0.
    9000005    2    3    3    0    0  0.18664696519E+02 -0.17124655920E+02  0.29187462591E+03  0.29323606624E+03  0.12448636822E+02 0.  0.
         22    1    3    3    0    0 -0.18664696519E+02  0.17124655920E+02  0.22554490298E+02  0.33916511748E+02  0.00000000000E+00 0.  1.
         22    1    4    4    0    0  0.18725676330E+01 -0.76411705276E+01  0.52543356247E+02  0.53129071912E+02  0.00000000000E+00 0.  1.
         22    1    4    4    0    0  0.16792128886E+02 -0.94834853921E+01  0.23933126966E+03  0.24010699433E+03  0.00000000000E+00 0.  1.
<mgrwt>
<rscale>  0 0.90350098E+02</rscale>
<asrwt>0</asrwt>
<pdfrwt beam="1">  1        1 0.49352441E-01 0.90350098E+02</pdfrwt>
<pdfrwt beam="2">  1       -1 0.97872778E-03 0.90350098E+02</pdfrwt>
<totfact> 0.13293313E+05</totfact>
</mgrwt>
</event>
<event>
 7    1  0.2787125E-009  0.9145982E+02  0.7818608E-02  0.1299355E+00
          1   -1    0    0  501    0  0.00000000000E+00  0.00000000000E+00  0.51970190227E+02  0.51970190471E+02  0.50400000000E-02 0. -1.
         -1   -1    0    0    0  501 -0.00000000000E+00 -0.00000000000E+00 -0.40238923929E+02  0.40238924244E+02  0.50400000000E-02 0.  1.
         23    2    1    2    0    0  0.00000000000E+00  0.00000000000E+00  0.11731266298E+02  0.92209114716E+02  0.91459817558E+02 0.  0.
    9000005    2    3    3    0    0 -0.19947511655E+02  0.27815949156E+02  0.36038305502E+02  0.50227423426E+02  0.72390850182E+01 0.  0.
         22    1    3    3    0    0  0.19947511655E+02 -0.27815949156E+02 -0.24307039203E+02  0.41981691290E+02  0.00000000000E+00 0.  1.
         22    1    4    4    0    0 -0.12259139399E+02  0.14832586978E+02  0.15318918402E+02  0.24595963008E+02  0.00000000000E+00 0.  1.
         22    1    4    4    0    0 -0.76883722562E+01  0.12983362178E+02  0.20719387100E+02  0.25631460418E+02  0.00000000000E+00 0.  1.
<mgrwt>
<rscale>  0 0.91459818E+02</rscale>
<asrwt>0</asrwt>
<pdfrwt beam="1">  1        1 0.79954139E-02 0.91459818E+02</pdfrwt>
<pdfrwt beam="2">  1       -1 0.61906037E-02 0.91459818E+02</pdfrwt>
<totfact> 0.93496441E+04</totfact>
</mgrwt>
</event>
<event>
 7    1  0.2787125E-009  0.8958209E+02  0.7818608E-02  0.1303867E+00
         -1   -1    0    0    0  501 -0.00000000000E+00  0.00000000000E+00  0.13060779082E+02  0.13060780055E+02  0.50400000000E-02 0.  1.
          1   -1    0    0  501    0  0.00000000000E+00 -0.00000000000E+00 -0.15360779587E+03  0.15360779595E+03  0.50400000000E-02 0. -1.
         23    2    1    2    0    0  0.35527136788E-14  0.00000000000E+00 -0.14054701679E+03  0.16666857601E+03  0.89582086940E+02 0.  0.
    9000005    2    3    3    0    0 -0.27636024968E+02 -0.21071477488E+02 -0.19636783951E+02  0.40863006003E+02  0.87421356747E+01 0.  0.
         22    1    3    3    0    0  0.27636024968E+02  0.21071477488E+02 -0.12091023284E+03  0.12580557001E+03  0.00000000000E+00 0. -1.
         22    1    4    4    0    0 -0.77564236282E+01 -0.10938315416E+02 -0.58161910185E+01  0.14616324080E+02  0.00000000000E+00 0. -1.
         22    1    4    4    0    0 -0.19879601339E+02 -0.10133162072E+02 -0.13820592933E+02  0.26246681924E+02  0.00000000000E+00 0. -1.
<mgrwt>
<rscale>  0 0.89582087E+02</rscale>
<asrwt>0</asrwt>
<pdfrwt beam="2">  1        1 0.23631967E-01 0.89582087E+02</pdfrwt>
<pdfrwt beam="1">  1       -1 0.20093508E-02 0.89582087E+02</pdfrwt>
<totfact> 0.11810339E+05</totfact>
</mgrwt>
</event>
<event>
 7    1  0.2787125E-009  0.8980242E+02  0.7818608E-02  0.1303331E+00
          1   -1    0    0  501    0  0.00000000000E+00  0.00000000000E+00  0.16791575950E+03  0.16791575957E+03  0.50400000000E-02 0. -1.
         -1   -1    0    0    0  501 -0.00000000000E+00 -0.00000000000E+00 -0.12006725860E+02  0.12006726918E+02  0.50400000000E-02 0.  1.
         23    2    1    2    0    0  0.00000000000E+00  0.35527136788E-14  0.15590903364E+03  0.17992248649E+03  0.89802418540E+02 0.  0.
    9000005    2    3    3    0    0 -0.11802864208E+02  0.29632946922E+02  0.20418491546E+02  0.40727996145E+02  0.14981179064E+02 0.  0.
         22    1    3    3    0    0  0.11802864208E+02 -0.29632946922E+02  0.13549054209E+03  0.13919449035E+03  0.00000000000E+00 0. -1.
         22    1    4    4    0    0 -0.65805375529E+01  0.27888812475E+02  0.20481284053E+02  0.35221759357E+02  0.00000000000E+00 0. -1.
         22    1    4    4    0    0 -0.52223266547E+01  0.17441344469E+01 -0.62792507249E-01  0.55062367872E+01  0.00000000000E+00 0. -1.
<mgrwt>
<rscale>  0 0.89802419E+02</rscale>
<asrwt>0</asrwt>
<pdfrwt beam="1">  1        1 0.25833194E-01 0.89802419E+02</pdfrwt>
<pdfrwt beam="2">  1       -1 0.18471887E-02 0.89802419E+02</pdfrwt>
<totfact> 0.11927931E+05</totfact>
</mgrwt>
</event>
<event>
 7    1  0.2787125E-009  0.8834617E+02  0.7818608E-02  0.1306907E+00
         -1   -1    0    0    0  501 -0.00000000000E+00  0.00000000000E+00  0.70525164235E+01  0.70525182244E+01  0.50400000000E-02 0.  1.
          1   -1    0    0  501    0  0.00000000000E+00 -0.00000000000E+00 -0.27667590217E+03  0.27667590222E+03  0.50400000000E-02 0. -1.
         23    2    1    2    0    0  0.00000000000E+00  0.00000000000E+00 -0.26962338575E+03  0.28372842044E+03  0.88346173794E+02 0.  0.
    9000005    2    3    3    0    0 -0.20039508656E+02 -0.10216783473E+02 -0.25634940152E+03  0.25761016573E+03  0.11917099374E+02 0.  0.
         22    1    3    3    0    0  0.20039508656E+02  0.10216783473E+02 -0.13273984227E+02  0.26118254708E+02  0.00000000000E+00 0.  1.
         22    1    4    4    0    0 -0.19625632034E+02 -0.96066733060E+01 -0.25568725472E+03  0.25661922342E+03  0.00000000000E+00 0.  1.
         22    1    4    4    0    0 -0.41387662285E+00 -0.61011016661E+00 -0.66214680101E+00  0.99094230934E+00  0.00000000000E+00 0.  1.
<mgrwt>
<rscale>  0 0.88346174E+02</rscale>
<asrwt>0</asrwt>
<pdfrwt beam="2">  1        1 0.42565515E-01 0.88346174E+02</pdfrwt>
<pdfrwt beam="1">  1       -1 0.10850029E-02 0.88346174E+02</pdfrwt>
<totfact> 0.13718614E+05</totfact>
</mgrwt>
</event>
<event>
 7    1  0.2787125E-009  0.9070942E+02  0.7818608E-02  0.1301143E+00
         -1   -1    0    0    0  501 -0.00000000000E+00  0.00000000000E+00  0.46217070124E+02  0.46217070399E+02  0.50400000000E-02 0.  1.
          1   -1    0    0  501    0  0.00000000000E+00 -0.00000000000E+00 -0.44508443408E+02  0.44508443693E+02  0.50400000000E-02 0. -1.
         23    2    1    2    0    0  0.00000000000E+00  0.00000000000E+00  0.17086267168E+01  0.90725514092E+02  0.90709423447E+02 0.  0.
    9000005    2    3    3    0    0 -0.36778174786E+02 -0.19255361916E+02  0.18410867443E+02  0.45977687906E+02  0.71822449195E+01 0.  0.
         22    1    3    3    0    0  0.36778174786E+02  0.19255361916E+02 -0.16702240727E+02  0.44747826186E+02  0.00000000000E+00 0. -1.
         22    1    4    4    0    0 -0.27717231953E+02 -0.11165093675E+02  0.14520826251E+02  0.33222863497E+02  0.00000000000E+00 0. -1.
         22    1    4    4    0    0 -0.90609428325E+01 -0.80902682417E+01  0.38900411922E+01  0.12754824409E+02  0.00000000000E+00 0. -1.
<mgrwt>
<rscale>  0 0.90709423E+02</rscale>
<asrwt>0</asrwt>
<pdfrwt beam="2">  1        1 0.68474529E-02 0.90709423E+02</pdfrwt>
<pdfrwt beam="1">  1       -1 0.71103185E-02 0.90709423E+02</pdfrwt>
<totfact> 0.93478648E+04</totfact>
</mgrwt>
</event>
<event>
 7    1  0.2787125E-009  0.8063176E+02  0.7818608E-02  0.1327268E+00
          1   -1    0    0  501    0  0.00000000000E+00  0.00000000000E+00  0.22814234598E+03  0.22814234603E+03  0.50400000000E-02 0. -1.
         -1   -1    0    0    0  501 -0.00000000000E+00 -0.00000000000E+00 -0.71243674241E+01  0.71243692069E+01  0.50400000000E-02 0.  1.
         23    2    1    2    0    0  0.00000000000E+00  0.00000000000E+00  0.22101797855E+03  0.23526671524E+03  0.80631758359E+02 0.  0.
    9000005    2    3    3    0    0  0.33032211036E+02 -0.98451922441E+01  0.61526027038E+02  0.72092767030E+02  0.14961961059E+02 0.  0.
         22    1    3    3    0    0 -0.33032211036E+02  0.98451922441E+01  0.15949195152E+03  0.16317394821E+03  0.00000000000E+00 0. -1.
         22    1    4    4    0    0  0.44168266347E+01  0.19371944548E+01  0.24672787319E+01  0.54174296689E+01  0.00000000000E+00 0. -1.
         22    1    4    4    0    0  0.28615384401E+02 -0.11782386699E+02  0.59058748306E+02  0.66675337361E+02  0.00000000000E+00 0. -1.
<mgrwt>
<rscale>  0 0.80631758E+02</rscale>
<asrwt>0</asrwt>
<pdfrwt beam="1">  1        1 0.35098825E-01 0.80631758E+02</pdfrwt>
<pdfrwt beam="2">  1       -1 0.10960566E-02 0.80631758E+02</pdfrwt>
<totfact> 0.16839370E+05</totfact>
</mgrwt>
</event>
<event>
 7    1  0.2787125E-009  0.9286789E+02  0.7818608E-02  0.1296052E+00
         -1   -1    0    0    0  501 -0.00000000000E+00  0.00000000000E+00  0.31445545939E+01  0.31445586329E+01  0.50400000000E-02 0.  1.
          1   -1    0    0  501    0  0.00000000000E+00 -0.00000000000E+00 -0.68566460768E+03  0.68566460770E+03  0.50400000000E-02 0. -1.
         23    2    1    2    0    0  0.00000000000E+00  0.35527136788E-14 -0.68252005309E+03  0.68880916633E+03  0.92867888733E+02 0.  0.
    9000005    2    3    3    0    0 -0.19273011417E+02  0.22554621899E+02 -0.60604625511E+03  0.60678233099E+03  0.35459751162E+01 0.  0.
         22    1    3    3    0    0  0.19273011417E+02 -0.22554621899E+02 -0.76473797982E+02  0.82026835340E+02  0.00000000000E+00 0.  1.
         22    1    4    4    0    0 -0.11999735683E+02  0.16575298949E+02 -0.41576691572E+03  0.41627017957E+03  0.00000000000E+00 0. -1.
         22    1    4    4    0    0 -0.72732757345E+01  0.59793229506E+01 -0.19027933939E+03  0.19051215142E+03  0.00000000000E+00 0. -1.
<mgrwt>
<rscale>  0 0.92867889E+02</rscale>
<asrwt>0</asrwt>
<pdfrwt beam="2">  1        1 0.10548674E+00 0.92867889E+02</pdfrwt>
<pdfrwt beam="1">  1       -1 0.48377849E-03 0.92867889E+02</pdfrwt>
<totfact> 0.13543348E+05</totfact>
</mgrwt>
</event>
<event>
 7    1  0.2787125E-009  0.9167669E+02  0.7818608E-02  0.1298841E+00
          1   -1    0    0  501    0  0.00000000000E+00  0.00000000000E+00  0.22779600774E+01  0.22779656529E+01  0.50400000000E-02 0. -1.
         -1   -1    0    0    0  501 -0.00000000000E+00 -0.00000000000E+00 -0.92238280821E+03  0.92238280822E+03  0.50400000000E-02 0.  1.
         23    2    1    2    0    0 -0.17763568394E-14  0.00000000000E+00 -0.92010484813E+03  0.92466077387E+03  0.91676688363E+02 0.  0.
    9000005    2    3    3    0    0  0.11982671125E+02  0.69313411670E+01 -0.90064655911E+03  0.90078080508E+03  0.70856532209E+01 0.  0.
         22    1    3    3    0    0 -0.11982671125E+02 -0.69313411670E+01 -0.19458289024E+02  0.23879968790E+02  0.00000000000E+00 0. -1.
         22    1    4    4    0    0 -0.74964026444E+00 -0.64365494847E-01 -0.97224387624E+02  0.97227298905E+02  0.00000000000E+00 0. -1.
         22    1    4    4    0    0  0.12732311389E+02  0.69957066619E+01 -0.80342217148E+03  0.80355350618E+03  0.00000000000E+00 0. -1.
<mgrwt>
<rscale>  0 0.91676688E+02</rscale>
<asrwt>0</asrwt>
<pdfrwt beam="1">  1        1 0.35045656E-03 0.91676688E+02</pdfrwt>
<pdfrwt beam="2">  1       -1 0.14190475E+00 0.91676688E+02</pdfrwt>
<totfact> 0.27766196E+04</totfact>
</mgrwt>
</event>
<event>
 7    1  0.2787125E-009  0.9081938E+02  0.7818608E-02  0.1300879E+00
         -1   -1    0    0    0  501 -0.00000000000E+00  0.00000000000E+00  0.32058060440E+02  0.32058060836E+02  0.50400000000E-02 0.  1.
          1   -1    0    0  501    0  0.00000000000E+00 -0.00000000000E+00 -0.64322041563E+02  0.64322041761E+02  0.50400000000E-02 0. -1.
         23    2    1    2    0    0  0.00000000000E+00  0.00000000000E+00 -0.32263981123E+02  0.96380102597E+02  0.90819379532E+02 0.  0.
    9000005    2    3    3    0    0  0.22062015491E+02 -0.35597912937E+02 -0.21434679614E+01  0.44793386806E+02  0.15745129841E+02 0.  0.
         22    1    3    3    0    0 -0.22062015491E+02  0.35597912937E+02 -0.30120513162E+02  0.51586715791E+02  0.00000000000E+00 0. -1.
         22    1    4    4    0    0  0.17348970128E+02 -0.13900885597E+02  0.15508833393E+01  0.22285121135E+02  0.00000000000E+00 0. -1.
         22    1    4    4    0    0  0.47130453625E+01 -0.21697027340E+02 -0.36943513007E+01  0.22508265671E+02  0.00000000000E+00 0. -1.
<mgrwt>
<rscale>  0 0.90819380E+02</rscale>
<asrwt>0</asrwt>
<pdfrwt beam="2">  1        1 0.98956987E-02 0.90819380E+02</pdfrwt>
<pdfrwt beam="1">  1       -1 0.49320094E-02 0.90819380E+02</pdfrwt>
<totfact> 0.98458587E+04</totfact>
</mgrwt>
</event>
<event>
 7    1  0.2787125E-009  0.8687209E+02  0.7818608E-02  0.1310608E+00
          1   -1    0    0  501    0  0.00000000000E+00  0.00000000000E+00  0.14896168625E+04  0.14896168625E+04  0.50400000000E-02 0. -1.
         -1   -1    0    0    0  501 -0.00000000000E+00 -0.00000000000E+00 -0.12665556080E+01  0.12665656358E+01  0.50400000000E-02 0.  1.
         23    2    1    2    0    0  0.17763568394E-14  0.17763568394E-14  0.14883503069E+04  0.14908834282E+04  0.86872091549E+02 0.  0.
    9000005    2    3    3    0    0  0.11717155281E+02  0.12215296184E+02  0.14296425902E+04  0.14297843186E+04  0.10897559244E+02 0.  0.
         22    1    3    3    0    0 -0.11717155281E+02 -0.12215296184E+02  0.58707716734E+02  0.61099109592E+02  0.00000000000E+00 0.  1.
         22    1    4    4    0    0  0.22363670661E+01 -0.87164974804E+00  0.46641770788E+03  0.46642388375E+03  0.00000000000E+00 0.  1.
         22    1    4    4    0    0  0.94807882147E+01  0.13086945932E+02  0.96322488231E+03  0.96336043483E+03  0.00000000000E+00 0.  1.
<mgrwt>
<rscale>  0 0.86872092E+02</rscale>
<asrwt>0</asrwt>
<pdfrwt beam="1">  1        1 0.22917355E+00 0.86872092E+02</pdfrwt>
<pdfrwt beam="2">  1       -1 0.19485401E-03 0.86872092E+02</pdfrwt>
<totfact> 0.12628760E+05</totfact>
</mgrwt>
</event>
<event>
 7    1  0.2787125E-009  0.9149283E+02  0.7818608E-02  0.1299276E+00
          1   -1    0    0  501    0  0.00000000000E+00  0.00000000000E+00  0.15710725383E+03  0.15710725391E+03  0.50400000000E-02 0. -1.
         -1   -1    0    0    0  501 -0.00000000000E+00 -0.00000000000E+00 -0.13320418838E+02  0.13320419791E+02  0.50400000000E-02 0.  1.
         23    2    1    2    0    0 -0.71054273576E-14  0.00000000000E+00  0.14378683499E+03  0.17042767370E+03  0.91492830573E+02 0.  0.
    9000005    2    3    3    0    0  0.33997145809E+02  0.21995561538E+01  0.12772920895E+03  0.13276480970E+03  0.12292270141E+02 0.  0.
         22    1    3    3    0    0 -0.33997145809E+02 -0.21995561538E+01  0.16057626036E+02  0.37662863996E+02  0.00000000000E+00 0.  1.
         22    1    4    4    0    0  0.71818032578E+01 -0.28720169497E+01  0.44735848383E+02  0.45399591518E+02  0.00000000000E+00 0. -1.
         22    1    4    4    0    0  0.26815342551E+02  0.50715731035E+01  0.82993360571E+02  0.87365218187E+02  0.00000000000E+00 0. -1.
<mgrwt>
<rscale>  0 0.91492831E+02</rscale>
<asrwt>0</asrwt>
<pdfrwt beam="1">  1        1 0.24170348E-01 0.91492831E+02</pdfrwt>
<pdfrwt beam="2">  1       -1 0.20492952E-02 0.91492831E+02</pdfrwt>
<totfact> 0.11204512E+05</totfact>
</mgrwt>
</event>
<event>
 7    1  0.2787125E-009  0.8893503E+02  0.7818608E-02  0.1305451E+00
          1   -1    0    0  501    0  0.00000000000E+00  0.00000000000E+00  0.31732614494E+03  0.31732614498E+03  0.50400000000E-02 0. -1.
         -1   -1    0    0    0  501 -0.00000000000E+00 -0.00000000000E+00 -0.62313155420E+01  0.62313175802E+01  0.50400000000E-02 0.  1.
         23    2    1    2    0    0  0.00000000000E+00  0.00000000000E+00  0.31109482939E+03  0.32355746256E+03  0.88935025159E+02 0.  0.
    9000005    2    3    3    0    0  0.13118816398E+02 -0.27443423848E+02  0.27314421868E+03  0.27492112111E+03  0.69723579318E+01 0.  0.
         22    1    3    3    0    0 -0.13118816398E+02  0.27443423848E+02  0.37950610713E+02  0.48636341451E+02  0.00000000000E+00 0.  1.
         22    1    4    4    0    0  0.21241357419E+01 -0.12343058142E+02  0.10769961294E+03  0.10842541060E+03  0.00000000000E+00 0. -1.
         22    1    4    4    0    0  0.10994680656E+02 -0.15100365706E+02  0.16544460574E+03  0.16649571050E+03  0.00000000000E+00 0. -1.
<mgrwt>
<rscale>  0 0.88935025E+02</rscale>
<asrwt>0</asrwt>
<pdfrwt beam="1">  1        1 0.48819419E-01 0.88935025E+02</pdfrwt>
<pdfrwt beam="2">  1       -1 0.95866385E-03 0.88935025E+02</pdfrwt>
<totfact> 0.13834583E+05</totfact>
</mgrwt>
</event>
<event>
 7    1  0.2787125E-009  0.9123501E+02  0.7818608E-02  0.1299888E+00
          1   -1    0    0  501    0  0.00000000000E+00  0.00000000000E+00  0.17361990528E+02  0.17361991260E+02  0.50400000000E-02 0. -1.
         -1   -1    0    0    0  501 -0.00000000000E+00 -0.00000000000E+00 -0.11985703950E+03  0.11985703961E+03  0.50400000000E-02 0.  1.
         23    2    1    2    0    0 -0.35527136788E-14  0.00000000000E+00 -0.10249504897E+03  0.13721903087E+03  0.91235011744E+02 0.  0.
    9000005    2    3    3    0    0 -0.17250082462E+02  0.24471358153E+02 -0.10210666096E+03  0.10727635964E+03  0.13639443164E+02 0.  0.
         22    1    3    3    0    0  0.17250082462E+02 -0.24471358153E+02 -0.38838800777E+00  0.29942671224E+02  0.00000000000E+00 0. -1.
         22    1    4    4    0    0 -0.17111875170E+02  0.23197931747E+02 -0.78340578759E+02  0.83475784449E+02  0.00000000000E+00 0. -1.
         22    1    4    4    0    0 -0.13820729127E+00  0.12734264066E+01 -0.23766082206E+02  0.23800575193E+02  0.00000000000E+00 0. -1.
<mgrwt>
<rscale>  0 0.91235012E+02</rscale>
<asrwt>0</asrwt>
<pdfrwt beam="1">  1        1 0.26710756E-02 0.91235012E+02</pdfrwt>
<pdfrwt beam="2">  1       -1 0.18439544E-01 0.91235012E+02</pdfrwt>
<totfact> 0.78420299E+04</totfact>
</mgrwt>
</event>
<event>
 7    1  0.2787125E-009  0.9176667E+02  0.7818608E-02  0.1298629E+00
          1   -1    0    0  501    0  0.00000000000E+00  0.00000000000E+00  0.71343591560E+03  0.71343591562E+03  0.50400000000E-02 0. -1.
         -1   -1    0    0    0  501 -0.00000000000E+00 -0.00000000000E+00 -0.29509013615E+01  0.29509056655E+01  0.50400000000E-02 0.  1.
         23    2    1    2    0    0  0.00000000000E+00  0.00000000000E+00  0.71048501424E+03  0.71638682128E+03  0.91766672877E+02 0.  0.
    9000005    2    3    3    0    0 -0.10037723729E+02 -0.29467571323E+02  0.61439637553E+03  0.61538127616E+03  0.15560048939E+02 0.  0.
         22    1    3    3    0    0  0.10037723729E+02  0.29467571323E+02  0.96088638705E+02  0.10100554512E+03  0.00000000000E+00 0.  1.
         22    1    4    4    0    0  0.83439175160E+00 -0.12654270793E+02  0.34917043916E+03  0.34940066165E+03  0.00000000000E+00 0.  1.
         22    1    4    4    0    0 -0.10872115481E+02 -0.16813300530E+02  0.26522593638E+03  0.26598061451E+03  0.00000000000E+00 0.  1.
<mgrwt>
<rscale>  0 0.91766673E+02</rscale>
<asrwt>0</asrwt>
<pdfrwt beam="1">  1        1 0.10975956E+00 0.91766673E+02</pdfrwt>
<pdfrwt beam="2">  1       -1 0.45398436E-03 0.91766673E+02</pdfrwt>
<totfact> 0.13973288E+05</totfact>
</mgrwt>
</event>
<event>
 7    1  0.2787125E-009  0.9362645E+02  0.7818608E-02  0.1294300E+00
         -1   -1    0    0    0  501 -0.00000000000E+00  0.00000000000E+00  0.40486358945E+02  0.40486359259E+02  0.50400000000E-02 0.  1.
          1   -1    0    0  501    0  0.00000000000E+00 -0.00000000000E+00 -0.54128804886E+02  0.54128805121E+02  0.50400000000E-02 0. -1.
         23    2    1    2    0    0  0.00000000000E+00  0.00000000000E+00 -0.13642445941E+02  0.94615164380E+02  0.93626454592E+02 0.  0.
    9000005    2    3    3    0    0  0.27441228492E+02 -0.32425564260E+02 -0.23373571556E+02  0.51036120741E+02  0.15934978327E+02 0.  0.
         22    1    3    3    0    0 -0.27441228492E+02  0.32425564260E+02  0.97311256152E+01  0.43579043639E+02  0.00000000000E+00 0.  1.
         22    1    4    4    0    0  0.51964852610E+01  0.86282217809E+00 -0.36187312699E+01  0.63908635710E+01  0.00000000000E+00 0.  1.
         22    1    4    4    0    0  0.22244743231E+02 -0.33288386438E+02 -0.19754840286E+02  0.44645257170E+02  0.00000000000E+00 0.  1.
<mgrwt>
<rscale>  0 0.93626455E+02</rscale>
<asrwt>0</asrwt>
<pdfrwt beam="2">  1        1 0.83275085E-02 0.93626455E+02</pdfrwt>
<pdfrwt beam="1">  1       -1 0.62286706E-02 0.93626455E+02</pdfrwt>
<totfact> 0.88113019E+04</totfact>
</mgrwt>
</event>
<event>
 7    1  0.2787125E-009  0.9177196E+02  0.7818608E-02  0.1298617E+00
          1   -1    0    0  501    0  0.00000000000E+00  0.00000000000E+00  0.37765878319E+03  0.37765878322E+03  0.50400000000E-02 0. -1.
         -1   -1    0    0    0  501 -0.00000000000E+00 -0.00000000000E+00 -0.55751985121E+01  0.55752007902E+01  0.50400000000E-02 0.  1.
         23    2    1    2    0    0  0.00000000000E+00  0.35527136788E-14  0.37208358468E+03  0.38323398401E+03  0.91771959314E+02 0.  0.
    9000005    2    3    3    0    0  0.38344935597E+02 -0.21157954256E+02  0.22872599202E+03  0.23333604378E+03  0.14564916283E+02 0.  0.
         22    1    3    3    0    0 -0.38344935597E+02  0.21157954256E+02  0.14335759266E+03  0.14989794024E+03  0.00000000000E+00 0.  1.
         22    1    4    4    0    0  0.31418470957E+02 -0.15248590726E+02  0.20440018537E+03  0.20736218463E+03  0.00000000000E+00 0.  1.
         22    1    4    4    0    0  0.69264646398E+01 -0.59093635301E+01  0.24325806652E+02  0.25973859147E+02  0.00000000000E+00 0.  1.
<mgrwt>
<rscale>  0 0.91771959E+02</rscale>
<asrwt>0</asrwt>
<pdfrwt beam="1">  1        1 0.58101349E-01 0.91771959E+02</pdfrwt>
<pdfrwt beam="2">  1       -1 0.85772306E-03 0.91771959E+02</pdfrwt>
<totfact> 0.13130522E+05</totfact>
</mgrwt>
</event>
<event>
 7    1  0.2787125E-009  0.9168543E+02  0.7818608E-02  0.1298821E+00
         -1   -1    0    0    0  501 -0.00000000000E+00  0.00000000000E+00  0.11114922155E+02  0.11114923298E+02  0.50400000000E-02 0.  1.
          1   -1    0    0  501    0  0.00000000000E+00 -0.00000000000E+00 -0.18907506247E+03  0.18907506254E+03  0.50400000000E-02 0. -1.
         23    2    1    2    0    0  0.00000000000E+00  0.35527136788E-14 -0.17796014032E+03  0.20018998584E+03  0.91685434438E+02 0.  0.
    9000005    2    3    3    0    0  0.20144998076E+02 -0.30530501377E+02 -0.31190249322E+02  0.48930826232E+02  0.91357343009E+01 0.  0.
         22    1    3    3    0    0 -0.20144998076E+02  0.30530501377E+02 -0.14676989100E+03  0.15125915961E+03  0.00000000000E+00 0. -1.
         22    1    4    4    0    0  0.20685339248E+02 -0.30236604348E+02 -0.29202217411E+02  0.46849813276E+02  0.00000000000E+00 0. -1.
         22    1    4    4    0    0 -0.54034117158E+00 -0.29389702870E+00 -0.19880319108E+01  0.20810129561E+01  0.00000000000E+00 0. -1.
<mgrwt>
<rscale>  0 0.91685434E+02</rscale>
<asrwt>0</asrwt>
<pdfrwt beam="2">  1        1 0.29088469E-01 0.91685434E+02</pdfrwt>
<pdfrwt beam="1">  1       -1 0.17099883E-02 0.91685434E+02</pdfrwt>
<totfact> 0.11538900E+05</totfact>
</mgrwt>
</event>
<event>
 7    1  0.2787125E-009  0.9200124E+02  0.7818608E-02  0.1298077E+00
          1   -1    0    0  501    0  0.00000000000E+00  0.00000000000E+00  0.14379644321E+04  0.14379644321E+04  0.50400000000E-02 0. -1.
         -1   -1    0    0    0  501 -0.00000000000E+00 -0.00000000000E+00 -0.14715599575E+01  0.14715685883E+01  0.50400000000E-02 0.  1.
         23    2    1    2    0    0  0.00000000000E+00 -0.35527136788E-14  0.14364928721E+04  0.14394360007E+04  0.92001241225E+02 0.  0.
    9000005    2    3    3    0    0 -0.20108850693E+02 -0.21192390755E+02  0.12735425410E+04  0.12738875374E+04  0.50369372142E+01 0.  0.
         22    1    3    3    0    0  0.20108850693E+02  0.21192390755E+02  0.16295033108E+03  0.16554846331E+03  0.00000000000E+00 0.  1.
         22    1    4    4    0    0 -0.15451311494E+02 -0.14739915443E+02  0.10062494761E+04  0.10064760386E+04  0.00000000000E+00 0. -1.
         22    1    4    4    0    0 -0.46575391993E+01 -0.64524753117E+01  0.26729306491E+03  0.26741149874E+03  0.00000000000E+00 0. -1.
<mgrwt>
<rscale>  0 0.92001241E+02</rscale>
<asrwt>0</asrwt>
<pdfrwt beam="1">  1        1 0.22122508E+00 0.92001241E+02</pdfrwt>
<pdfrwt beam="2">  1       -1 0.22639472E-03 0.92001241E+02</pdfrwt>
<totfact> 0.11152281E+05</totfact>
</mgrwt>
</event>
<event>
 7    1  0.2787125E-009  0.9116102E+02  0.7818608E-02  0.1300064E+00
         -1   -1    0    0    0  501 -0.00000000000E+00  0.00000000000E+00  0.11910910431E+03  0.11910910442E+03  0.50400000000E-02 0.  1.
          1   -1    0    0  501    0  0.00000000000E+00 -0.00000000000E+00 -0.17442686462E+02  0.17442687190E+02  0.50400000000E-02 0. -1.
         23    2    1    2    0    0  0.00000000000E+00  0.00000000000E+00  0.10166641785E+03  0.13655179161E+03  0.91161018384E+02 0.  0.
    9000005    2    3    3    0    0 -0.10424902428E+02  0.41210871704E+02  0.32728812460E+02  0.55561619524E+02  0.14453506905E+02 0.  0.
         22    1    3    3    0    0  0.10424902428E+02 -0.41210871704E+02  0.68937605389E+02  0.80990172083E+02  0.00000000000E+00 0.  1.
         22    1    4    4    0    0 -0.95340480308E+01  0.19249005266E+02  0.92134445362E+01  0.23373271825E+02  0.00000000000E+00 0.  1.
         22    1    4    4    0    0 -0.89085439712E+00  0.21961866438E+02  0.23515367924E+02  0.32188347699E+02  0.00000000000E+00 0.  1.
<mgrwt>
<rscale>  0 0.91161018E+02</rscale>
<asrwt>0</asrwt>
<pdfrwt beam="2">  1        1 0.26834904E-02 0.91161018E+02</pdfrwt>
<pdfrwt beam="1">  1       -1 0.18324477E-01 0.91161018E+02</pdfrwt>
<totfact> 0.78685534E+04</totfact>
</mgrwt>
</event>
<event>
 7    1  0.2787125E-009  0.8956410E+02  0.7818608E-02  0.1303911E+00
          1   -1    0    0  501    0  0.00000000000E+00  0.00000000000E+00  0.14475984476E+03  0.14475984484E+03  0.50400000000E-02 0. -1.
         -1   -1    0    0    0  501 -0.00000000000E+00 -0.00000000000E+00 -0.13853508922E+02  0.13853509838E+02  0.50400000000E-02 0.  1.
         23    2    1    2    0    0  0.00000000000E+00  0.00000000000E+00  0.13090633583E+03  0.15861335468E+03  0.89564097282E+02 0.  0.
    9000005    2    3    3    0    0  0.33375372894E+02 -0.27211759429E+02  0.80976042136E+02  0.92678313954E+02  0.13332483274E+02 0.  0.
         22    1    3    3    0    0 -0.33375372894E+02  0.27211759429E+02  0.49930293698E+02  0.65935040728E+02  0.00000000000E+00 0. -1.
         22    1    4    4    0    0  0.39398842488E+01 -0.10187345865E+02  0.23100151920E+02  0.25552333013E+02  0.00000000000E+00 0. -1.
         22    1    4    4    0    0  0.29435488645E+02 -0.17024413564E+02  0.57875890216E+02  0.67125980941E+02  0.00000000000E+00 0. -1.
<mgrwt>
<rscale>  0 0.89564097E+02</rscale>
<asrwt>0</asrwt>
<pdfrwt beam="1">  1        1 0.22270745E-01 0.89564097E+02</pdfrwt>
<pdfrwt beam="2">  1       -1 0.21313092E-02 0.89564097E+02</pdfrwt>
<totfact> 0.11689430E+05</totfact>
</mgrwt>
</event>
<event>
 7    1  0.2787125E-009  0.9294023E+02  0.7818608E-02  0.1295884E+00
          1   -1    0    0  501    0  0.00000000000E+00  0.00000000000E+00  0.40834003193E+03  0.40834003196E+03  0.50400000000E-02 0. -1.
         -1   -1    0    0    0  501 -0.00000000000E+00 -0.00000000000E+00 -0.52884136689E+01  0.52884160705E+01  0.50400000000E-02 0.  1.
         23    2    1    2    0    0  0.17763568394E-14  0.00000000000E+00  0.40305161826E+03  0.41362844803E+03  0.92940228308E+02 0.  0.
    9000005    2    3    3    0    0  0.11557804886E+02  0.18339711452E+02  0.38350287594E+03  0.38443801815E+03  0.15754557419E+02 0.  0.
         22    1    3    3    0    0 -0.11557804886E+02 -0.18339711452E+02  0.19548742319E+02  0.29190429873E+02  0.00000000000E+00 0.  1.
         22    1    4    4    0    0  0.10352802856E+02  0.14891986862E+02  0.18188140766E+03  0.18278347369E+03  0.00000000000E+00 0.  1.
         22    1    4    4    0    0  0.12050020304E+01  0.34477245906E+01  0.20162146828E+03  0.20165454447E+03  0.00000000000E+00 0.  1.
<mgrwt>
<rscale>  0 0.92940228E+02</rscale>
<asrwt>0</asrwt>
<pdfrwt beam="1">  1        1 0.62821562E-01 0.92940228E+02</pdfrwt>
<pdfrwt beam="2">  1       -1 0.81360205E-03 0.92940228E+02</pdfrwt>
<totfact> 0.12862367E+05</totfact>
</mgrwt>
</event>
<event>
 7    1  0.2787125E-009  0.9027009E+02  0.7818608E-02  0.1302199E+00
          1   -1    0    0  501    0  0.00000000000E+00  0.00000000000E+00  0.95673321130E+02  0.95673321263E+02  0.50400000000E-02 0. -1.
         -1   -1    0    0    0  501 -0.00000000000E+00 -0.00000000000E+00 -0.21293004317E+02  0.21293004914E+02  0.50400000000E-02 0.  1.
         23    2    1    2    0    0 -0.17763568394E-14  0.00000000000E+00  0.74380316813E+02  0.11696632618E+03  0.90270094329E+02 0.  0.
    9000005    2    3    3    0    0  0.13850787069E+02 -0.36595081397E+02  0.63653527283E+02  0.76394065968E+02  0.15913437550E+02 0.  0.
         22    1    3    3    0    0 -0.13850787069E+02  0.36595081397E+02  0.10726789530E+02  0.40572260209E+02  0.00000000000E+00 0.  1.
         22    1    4    4    0    0  0.49059148528E+01 -0.31565493721E+02  0.49472291284E+02  0.58889353871E+02  0.00000000000E+00 0. -1.
         22    1    4    4    0    0  0.89448722159E+01 -0.50295876756E+01  0.14181235999E+02  0.17504712097E+02  0.00000000000E+00 0. -1.
<mgrwt>
<rscale>  0 0.90270094E+02</rscale>
<asrwt>0</asrwt>
<pdfrwt beam="1">  1        1 0.14718973E-01 0.90270094E+02</pdfrwt>
<pdfrwt beam="2">  1       -1 0.32758468E-02 0.90270094E+02</pdfrwt>
<totfact> 0.10655440E+05</totfact>
</mgrwt>
</event>
<event>
 7    1  0.2787125E-009  0.9020335E+02  0.7818608E-02  0.1302360E+00
         -1   -1    0    0    0  501 -0.00000000000E+00  0.00000000000E+00  0.61043399989E+02  0.61043400197E+02  0.50400000000E-02 0.  1.
          1   -1    0    0  501    0  0.00000000000E+00 -0.00000000000E+00 -0.33323197604E+02  0.33323197985E+02  0.50400000000E-02 0. -1.
         23    2    1    2    0    0 -0.35527136788E-14  0.35527136788E-14  0.27720202385E+02  0.94366598182E+02  0.90203354883E+02 0.  0.
    9000005    2    3    3    0    0  0.19380249482E+02 -0.17857498161E+02  0.51432241066E+02  0.58915997497E+02  0.11460149624E+02 0.  0.
         22    1    3    3    0    0 -0.19380249482E+02  0.17857498161E+02 -0.23712038680E+02  0.35450600685E+02  0.00000000000E+00 0. -1.
         22    1    4    4    0    0  0.32837264532E+00  0.38703514777E-01 -0.60115621588E+00  0.68608698584E+00  0.00000000000E+00 0.  1.
         22    1    4    4    0    0  0.19051876837E+02 -0.17896201676E+02  0.52033397282E+02  0.58229910511E+02  0.00000000000E+00 0.  1.
<mgrwt>
<rscale>  0 0.90203355E+02</rscale>
<asrwt>0</asrwt>
<pdfrwt beam="2">  1        1 0.51266459E-02 0.90203355E+02</pdfrwt>
<pdfrwt beam="1">  1       -1 0.93912923E-02 0.90203355E+02</pdfrwt>
<totfact> 0.90881937E+04</totfact>
</mgrwt>
</event>
<event>
 7    1  0.4015320E-009  0.9679765E+02  0.7818608E-02  0.1287178E+00
          1   -1    0    0  501    0  0.00000000000E+00  0.00000000000E+00  0.73715167599E+02  0.73715167771E+02  0.50400000000E-02 0. -1.
         -1   -1    0    0    0  501 -0.00000000000E+00 -0.00000000000E+00 -0.31776993803E+02  0.31776994203E+02  0.50400000000E-02 0.  1.
         23    2    1    2    0    0  0.00000000000E+00  0.00000000000E+00  0.41938173796E+02  0.10549216197E+03  0.96797653983E+02 0.  0.
    9000005    2    3    3    0    0  0.18741142265E+02 -0.34252910049E+02  0.50928230564E+02  0.65425799762E+02  0.12741991442E+02 0.  0.
         22    1    3    3    0    0 -0.18741142265E+02  0.34252910049E+02 -0.89900567681E+01  0.40066362212E+02  0.00000000000E+00 0.  1.
         22    1    4    4    0    0  0.14332879338E+02 -0.29658187437E+02  0.33999912110E+02  0.47339555718E+02  0.00000000000E+00 0.  1.
         22    1    4    4    0    0  0.44082629265E+01 -0.45947226122E+01  0.16928318454E+02  0.18086244043E+02  0.00000000000E+00 0.  1.
<mgrwt>
<rscale>  0 0.96797654E+02</rscale>
<asrwt>0</asrwt>
<pdfrwt beam="1">  1        1 0.11340795E-01 0.96797654E+02</pdfrwt>
<pdfrwt beam="2">  1       -1 0.48887683E-02 0.96797654E+02</pdfrwt>
<totfact> 0.84288913E+04</totfact>
</mgrwt>
</event>
<event>
 7    1  0.2787125E-009  0.9175287E+02  0.7818608E-02  0.1298662E+00
         -1   -1    0    0    0  501 -0.00000000000E+00  0.00000000000E+00  0.72826026193E+02  0.72826026368E+02  0.50400000000E-02 0.  1.
          1   -1    0    0  501    0  0.00000000000E+00 -0.00000000000E+00 -0.28899661071E+02  0.28899661511E+02  0.50400000000E-02 0. -1.
         23    2    1    2    0    0  0.00000000000E+00  0.00000000000E+00  0.43926365122E+02  0.10172568788E+03  0.91752874732E+02 0.  0.
    9000005    2    3    3    0    0  0.31833524867E+02  0.13675571047E+02 -0.85229367214E+01  0.38866131622E+02  0.15412371262E+02 0.  0.
         22    1    3    3    0    0 -0.31833524867E+02 -0.13675571047E+02  0.52449301843E+02  0.62859556257E+02  0.00000000000E+00 0.  1.
         22    1    4    4    0    0  0.40336495173E+00 -0.61778960986E+00 -0.39719524340E+01  0.40398976998E+01  0.00000000000E+00 0.  1.
         22    1    4    4    0    0  0.31430159916E+02  0.14293360657E+02 -0.45509842874E+01  0.34826233922E+02  0.00000000000E+00 0.  1.
<mgrwt>
<rscale>  0 0.91752875E+02</rscale>
<asrwt>0</asrwt>
<pdfrwt beam="2">  1        1 0.44461018E-02 0.91752875E+02</pdfrwt>
<pdfrwt beam="1">  1       -1 0.11204004E-01 0.91752875E+02</pdfrwt>
<totfact> 0.84610998E+04</totfact>
</mgrwt>
</event>
<event>
 7    1  0.2787125E-009  0.9186455E+02  0.7818608E-02  0.1298398E+00
          1   -1    0    0  501    0  0.00000000000E+00  0.00000000000E+00  0.11266662570E+04  0.11266662570E+04  0.50400000000E-02 0. -1.
         -1   -1    0    0    0  501 -0.00000000000E+00 -0.00000000000E+00 -0.18725778216E+01  0.18725846041E+01  0.50400000000E-02 0.  1.
         23    2    1    2    0    0  0.17763568394E-14  0.00000000000E+00  0.11247936791E+04  0.11285388416E+04  0.91864554179E+02 0.  0.
    9000005    2    3    3    0    0  0.94489924211E+01 -0.28253378486E+02  0.98972993302E+03  0.99022849355E+03  0.99795932420E+01 0.  0.
         22    1    3    3    0    0 -0.94489924211E+01  0.28253378486E+02  0.13506374613E+03  0.13831034803E+03  0.00000000000E+00 0.  1.
         22    1    4    4    0    0  0.10091936126E+01 -0.85601951616E+01  0.43420469342E+03  0.43429023843E+03  0.00000000000E+00 0.  1.
         22    1    4    4    0    0  0.84397988085E+01 -0.19693183325E+02  0.55552523960E+03  0.55593825512E+03  0.00000000000E+00 0.  1.
<mgrwt>
<rscale>  0 0.91864554E+02</rscale>
<asrwt>0</asrwt>
<pdfrwt beam="1">  1        1 0.17333368E+00 0.91864554E+02</pdfrwt>
<pdfrwt beam="2">  1       -1 0.28808873E-03 0.91864554E+02</pdfrwt>
<totfact> 0.12823441E+05</totfact>
</mgrwt>
</event>
<event>
 7    1  0.2787125E-009  0.9288852E+02  0.7818608E-02  0.1296004E+00
          1   -1    0    0  501    0  0.00000000000E+00  0.00000000000E+00  0.12216384514E+03  0.12216384525E+03  0.50400000000E-02 0. -1.
         -1   -1    0    0    0  501 -0.00000000000E+00 -0.00000000000E+00 -0.17657181081E+02  0.17657181800E+02  0.50400000000E-02 0.  1.
         23    2    1    2    0    0  0.00000000000E+00 -0.35527136788E-14  0.10450666406E+03  0.13982102705E+03  0.92888517973E+02 0.  0.
    9000005    2    3    3    0    0  0.39604076705E+02  0.23072631562E+02  0.63314218319E+02  0.78195976904E+02  0.22564006158E+01 0.  0.
         22    1    3    3    0    0 -0.39604076705E+02 -0.23072631562E+02  0.41192445744E+02  0.61625050144E+02  0.00000000000E+00 0. -1.
         22    1    4    4    0    0  0.85420510833E+01  0.58956700511E+01  0.13468205856E+02  0.17003474087E+02  0.00000000000E+00 0. -1.
         22    1    4    4    0    0  0.31062025622E+02  0.17176961511E+02  0.49846012464E+02  0.61192502817E+02  0.00000000000E+00 0. -1.
<mgrwt>
<rscale>  0 0.92888518E+02</rscale>
<asrwt>0</asrwt>
<pdfrwt beam="1">  1        1 0.18794438E-01 0.92888518E+02</pdfrwt>
<pdfrwt beam="2">  1       -1 0.27164895E-02 0.92888518E+02</pdfrwt>
<totfact> 0.10275025E+05</totfact>
</mgrwt>
</event>
<event>
 7    1  0.2787125E-009  0.9088176E+02  0.7818608E-02  0.1300730E+00
         -1   -1    0    0    0  501 -0.00000000000E+00  0.00000000000E+00  0.34338220118E+02  0.34338220488E+02  0.50400000000E-02 0.  1.
          1   -1    0    0  501    0  0.00000000000E+00 -0.00000000000E+00 -0.60133387271E+02  0.60133387482E+02  0.50400000000E-02 0. -1.
         23    2    1    2    0    0  0.00000000000E+00  0.00000000000E+00 -0.25795167153E+02  0.94471607970E+02  0.90881758698E+02 0.  0.
    9000005    2    3    3    0    0  0.84292655557E+01 -0.17352366597E+02 -0.54489826554E+02  0.59895017299E+02  0.15688044974E+02 0.  0.
         22    1    3    3    0    0 -0.84292655557E+01  0.17352366597E+02  0.28694659401E+02  0.34576590671E+02  0.00000000000E+00 0.  1.
         22    1    4    4    0    0  0.12499343737E+02 -0.11598483866E+02 -0.31117844387E+02  0.35483498435E+02  0.00000000000E+00 0. -1.
         22    1    4    4    0    0 -0.40700781815E+01 -0.57538827306E+01 -0.23371982166E+02  0.24411518864E+02  0.00000000000E+00 0. -1.
<mgrwt>
<rscale>  0 0.90881759E+02</rscale>
<asrwt>0</asrwt>
<pdfrwt beam="2">  1        1 0.92512904E-02 0.90881759E+02</pdfrwt>
<pdfrwt beam="1">  1       -1 0.52828031E-02 0.90881759E+02</pdfrwt>
<totfact> 0.97274086E+04</totfact>
</mgrwt>
</event>
<event>
 7    1  0.2787125E-009  0.9780233E+02  0.7818608E-02  0.1284986E+00
         -1   -1    0    0    0  501 -0.00000000000E+00  0.00000000000E+00  0.19120461513E+02  0.19120462177E+02  0.50400000000E-02 0.  1.
          1   -1    0    0  501    0  0.00000000000E+00 -0.00000000000E+00 -0.12506621003E+03  0.12506621013E+03  0.50400000000E-02 0. -1.
         23    2    1    2    0    0  0.00000000000E+00  0.00000000000E+00 -0.10594574852E+03  0.14418667231E+03  0.97802325343E+02 0.  0.
    9000005    2    3    3    0    0  0.12360393372E+02 -0.96246502370E+01 -0.12106657527E+03  0.12241392287E+03  0.90906352208E+01 0.  0.
         22    1    3    3    0    0 -0.12360393372E+02  0.96246502370E+01  0.15120826751E+02  0.21772749439E+02  0.00000000000E+00 0.  1.
         22    1    4    4    0    0 -0.10891395346E+01 -0.27922234745E+01 -0.17592937649E+02  0.17846405575E+02  0.00000000000E+00 0.  1.
         22    1    4    4    0    0  0.13449532907E+02 -0.68324267625E+01 -0.10347363762E+03  0.10456751729E+03  0.00000000000E+00 0.  1.
<mgrwt>
<rscale>  0 0.97802325E+02</rscale>
<asrwt>0</asrwt>
<pdfrwt beam="2">  1        1 0.19240955E-01 0.97802325E+02</pdfrwt>
<pdfrwt beam="1">  1       -1 0.29416096E-02 0.97802325E+02</pdfrwt>
<totfact> 0.89652252E+04</totfact>
</mgrwt>
</event>
<event>
 7    1  0.2787125E-009  0.1000350E+03  0.7818608E-02  0.1280222E+00
          1   -1    0    0  501    0  0.00000000000E+00  0.00000000000E+00  0.98817733180E+02  0.98817733308E+02  0.50400000000E-02 0. -1.
         -1   -1    0    0    0  501 -0.00000000000E+00 -0.00000000000E+00 -0.25316799038E+02  0.25316799540E+02  0.50400000000E-02 0.  1.
         23    2    1    2    0    0  0.00000000000E+00 -0.71054273576E-14  0.73500934142E+02  0.12413453285E+03  0.10003496851E+03 0.  0.
    9000005    2    3    3    0    0 -0.53950169728E+01 -0.47259951842E+02  0.54766257472E+02  0.73011178438E+02  0.82873375137E+01 0.  0.
         22    1    3    3    0    0  0.53950169728E+01  0.47259951842E+02  0.18734676670E+02  0.51123354411E+02  0.00000000000E+00 0.  1.
         22    1    4    4    0    0 -0.59101907635E+01 -0.38340378334E+02  0.48462302423E+02  0.62076643931E+02  0.00000000000E+00 0.  1.
         22    1    4    4    0    0  0.51517379070E+00 -0.89195735084E+01  0.63039550494E+01  0.10934534506E+02  0.00000000000E+00 0.  1.
<mgrwt>
<rscale>  0 0.10003497E+03</rscale>
<asrwt>0</asrwt>
<pdfrwt beam="1">  1        1 0.15202728E-01 0.10003497E+03</pdfrwt>
<pdfrwt beam="2">  1       -1 0.38948923E-02 0.10003497E+03</pdfrwt>
<totfact> 0.80817685E+04</totfact>
</mgrwt>
</event>
<event>
 7    1  0.3030163E-009  0.9189754E+02  0.7818608E-02  0.1298321E+00
          1   -1    0    0  501    0  0.00000000000E+00  0.00000000000E+00  0.33732623618E+03  0.33732623622E+03  0.50400000000E-02 0. -1.
         -1   -1    0    0    0  501 -0.00000000000E+00 -0.00000000000E+00 -0.62588931877E+01  0.62588952170E+01  0.50400000000E-02 0.  1.
         23    2    1    2    0    0  0.00000000000E+00  0.00000000000E+00  0.33106734300E+03  0.34358513144E+03  0.91897535043E+02 0.  0.
    9000005    2    3    3    0    0 -0.38521289888E+02 -0.85280582847E+01  0.25059000151E+03  0.25395689903E+03  0.11922254537E+02 0.  0.
         22    1    3    3    0    0  0.38521289888E+02  0.85280582847E+01  0.80477341484E+02  0.89628232411E+02  0.00000000000E+00 0.  1.
         22    1    4    4    0    0 -0.70102729485E+01 -0.43777061847E+01  0.31178138803E+02  0.32254993063E+02  0.00000000000E+00 0. -1.
         22    1    4    4    0    0 -0.31511016939E+02 -0.41503521000E+01  0.21941186271E+03  0.22170190596E+03  0.00000000000E+00 0. -1.
<mgrwt>
<rscale>  0 0.91897535E+02</rscale>
<asrwt>0</asrwt>
<pdfrwt beam="1">  1        1 0.51896358E-01 0.91897535E+02</pdfrwt>
<pdfrwt beam="2">  1       -1 0.96290655E-03 0.91897535E+02</pdfrwt>
<totfact> 0.12824123E+05</totfact>
</mgrwt>
</event>
<event>
 7    1  0.2787125E-009  0.9557897E+02  0.7818608E-02  0.1289877E+00
         -1   -1    0    0    0  501 -0.00000000000E+00  0.00000000000E+00  0.13038869045E+02  0.13038870019E+02  0.50400000000E-02 0.  1.
          1   -1    0    0  501    0  0.00000000000E+00 -0.00000000000E+00 -0.17515589430E+03  0.17515589437E+03  0.50400000000E-02 0. -1.
         23    2    1    2    0    0  0.00000000000E+00 -0.88817841970E-15 -0.16211702525E+03  0.18819476439E+03  0.95578969792E+02 0.  0.
    9000005    2    3    3    0    0 -0.28981663998E+02  0.57597754353E+01 -0.90423978316E+01  0.32294304411E+02  0.93832445167E+01 0.  0.
         22    1    3    3    0    0  0.28981663998E+02 -0.57597754353E+01 -0.15307462742E+03  0.15590045998E+03  0.00000000000E+00 0. -1.
         22    1    4    4    0    0 -0.14682406556E+01 -0.19355808389E+01 -0.84468134549E+00  0.25720984394E+01  0.00000000000E+00 0.  1.
         22    1    4    4    0    0 -0.27513423343E+02  0.76953562742E+01 -0.81977164861E+01  0.29722205971E+02  0.00000000000E+00 0.  1.
<mgrwt>
<rscale>  0 0.95578970E+02</rscale>
<asrwt>0</asrwt>
<pdfrwt beam="2">  1        1 0.26947059E-01 0.95578970E+02</pdfrwt>
<pdfrwt beam="1">  1       -1 0.20059801E-02 0.95578970E+02</pdfrwt>
<totfact> 0.10163792E+05</totfact>
</mgrwt>
</event>
<event>
 7    1  0.2787125E-009  0.8774840E+02  0.7818608E-02  0.1308398E+00
          1   -1    0    0  501    0  0.00000000000E+00  0.00000000000E+00  0.95294654861E+02  0.95294654994E+02  0.50400000000E-02 0. -1.
         -1   -1    0    0    0  501 -0.00000000000E+00 -0.00000000000E+00 -0.20199931689E+02  0.20199932318E+02  0.50400000000E-02 0.  1.
         23    2    1    2    0    0  0.00000000000E+00  0.00000000000E+00  0.75094723172E+02  0.11549458731E+03  0.87748403121E+02 0.  0.
    9000005    2    3    3    0    0  0.39605652709E+02  0.47413620700E+01  0.14989825443E+02  0.43358001783E+02  0.80083213627E+01 0.  0.
         22    1    3    3    0    0 -0.39605652709E+02 -0.47413620700E+01  0.60104897729E+02  0.72136585529E+02  0.00000000000E+00 0. -1.
         22    1    4    4    0    0  0.44506971734E+01  0.13552787666E+01 -0.71302616549E+00  0.47067921324E+01  0.00000000000E+00 0.  1.
         22    1    4    4    0    0  0.35154955536E+02  0.33860833033E+01  0.15702851608E+02  0.38651209651E+02  0.00000000000E+00 0.  1.
<mgrwt>
<rscale>  0 0.87748403E+02</rscale>
<asrwt>0</asrwt>
<pdfrwt beam="1">  1        1 0.14660716E-01 0.87748403E+02</pdfrwt>
<pdfrwt beam="2">  1       -1 0.31076818E-02 0.87748403E+02</pdfrwt>
<totfact> 0.11501257E+05</totfact>
</mgrwt>
</event>
<event>
 7    1  0.2787125E-009  0.9531636E+02  0.7818608E-02  0.1290465E+00
         -1   -1    0    0    0  501 -0.00000000000E+00  0.00000000000E+00  0.17386783947E+01  0.17386856995E+01  0.50400000000E-02 0.  1.
          1   -1    0    0  501    0  0.00000000000E+00 -0.00000000000E+00 -0.13063356275E+04  0.13063356275E+04  0.50400000000E-02 0. -1.
         23    2    1    2    0    0  0.88817841970E-15  0.35527136788E-14 -0.13045969491E+04  0.13080743132E+04  0.95316364088E+02 0.  0.
    9000005    2    3    3    0    0  0.52122650115E+01  0.18935237224E+02 -0.12481614099E+04  0.12483191377E+04  0.28378605681E+01 0.  0.
         22    1    3    3    0    0 -0.52122650115E+01 -0.18935237224E+02 -0.56435539167E+02  0.59755175478E+02  0.00000000000E+00 0.  1.
         22    1    4    4    0    0  0.50016093107E+00  0.11721800946E+01 -0.47503118129E+02  0.47520210428E+02  0.00000000000E+00 0.  1.
         22    1    4    4    0    0  0.47121040805E+01  0.17763057130E+02 -0.12006582918E+04  0.12007989273E+04  0.00000000000E+00 0.  1.
<mgrwt>
<rscale>  0 0.95316364E+02</rscale>
<asrwt>0</asrwt>
<pdfrwt beam="2">  1        1 0.20097393E+00 0.95316364E+02</pdfrwt>
<pdfrwt beam="1">  1       -1 0.26749059E-03 0.95316364E+02</pdfrwt>
<totfact> 0.10820814E+05</totfact>
</mgrwt>
</event>
<event>
 7    1  0.2787125E-009  0.8867602E+02  0.7818608E-02  0.1306090E+00
          1   -1    0    0  501    0  0.00000000000E+00  0.00000000000E+00  0.18600663275E+02  0.18600663958E+02  0.50400000000E-02 0. -1.
         -1   -1    0    0    0  501 -0.00000000000E+00 -0.00000000000E+00 -0.10568758982E+03  0.10568758994E+03  0.50400000000E-02 0.  1.
         23    2    1    2    0    0  0.00000000000E+00  0.00000000000E+00 -0.87086926547E+02  0.12428825390E+03  0.88676024279E+02 0.  0.
    9000005    2    3    3    0    0  0.34200335095E+02  0.17137509003E+02 -0.74756571648E+02  0.84096279734E+02  0.45035680386E+01 0.  0.
         22    1    3    3    0    0 -0.34200335095E+02 -0.17137509003E+02 -0.12330354899E+02  0.40191974166E+02  0.00000000000E+00 0. -1.
         22    1    4    4    0    0  0.33963184173E+02  0.16377192945E+02 -0.73527188783E+02  0.82631457801E+02  0.00000000000E+00 0.  1.
         22    1    4    4    0    0  0.23715092177E+00  0.76031605731E+00 -0.12293828652E+01  0.14648219332E+01  0.00000000000E+00 0.  1.
<mgrwt>
<rscale>  0 0.88676024E+02</rscale>
<asrwt>0</asrwt>
<pdfrwt beam="1">  1        1 0.28616406E-02 0.88676024E+02</pdfrwt>
<pdfrwt beam="2">  1       -1 0.16259629E-01 0.88676024E+02</pdfrwt>
<totfact> 0.86504646E+04</totfact>
</mgrwt>
</event>
<event>
 7    1  0.2787125E-009  0.9177678E+02  0.7818608E-02  0.1298605E+00
         -1   -1    0    0    0  501 -0.00000000000E+00  0.00000000000E+00  0.22599753135E+02  0.22599753697E+02  0.50400000000E-02 0.  1.
          1   -1    0    0  501    0  0.00000000000E+00 -0.00000000000E+00 -0.93175546002E+02  0.93175546138E+02  0.50400000000E-02 0. -1.
         23    2    1    2    0    0 -0.35527136788E-14  0.00000000000E+00 -0.70575792866E+02  0.11577529984E+03  0.91776780904E+02 0.  0.
    9000005    2    3    3    0    0  0.31978945247E+02 -0.16291358462E+02 -0.69628517248E+02  0.79873229829E+02  0.15605804351E+02 0.  0.
         22    1    3    3    0    0 -0.31978945247E+02  0.16291358462E+02 -0.94727561834E+00  0.35902070006E+02  0.00000000000E+00 0.  1.
         22    1    4    4    0    0  0.19447094077E+02 -0.43092341322E+01 -0.49197547725E+02  0.53076903348E+02  0.00000000000E+00 0.  1.
         22    1    4    4    0    0  0.12531851171E+02 -0.11982124330E+02 -0.20430969523E+02  0.26796326481E+02  0.00000000000E+00 0.  1.
<mgrwt>
<rscale>  0 0.91776781E+02</rscale>
<asrwt>0</asrwt>
<pdfrwt beam="2">  1        1 0.14334699E-01 0.91776781E+02</pdfrwt>
<pdfrwt beam="1">  1       -1 0.34768852E-02 0.91776781E+02</pdfrwt>
<totfact> 0.10140593E+05</totfact>
</mgrwt>
</event>
<event>
 7    1  0.2787125E-009  0.9221567E+02  0.7818608E-02  0.1297573E+00
         -1   -1    0    0    0  501 -0.00000000000E+00  0.00000000000E+00  0.44460767473E+03  0.44460767476E+03  0.50400000000E-02 0.  1.
          1   -1    0    0  501    0  0.00000000000E+00 -0.00000000000E+00 -0.47815901373E+01  0.47815927935E+01  0.50400000000E-02 0. -1.
         23    2    1    2    0    0  0.00000000000E+00  0.00000000000E+00  0.43982608459E+03  0.44938926755E+03  0.92215666255E+02 0.  0.
    9000005    2    3    3    0    0  0.30682473346E+02 -0.33717092057E+02  0.20084543774E+03  0.20609930467E+03  0.77315624826E+01 0.  0.
         22    1    3    3    0    0 -0.30682473346E+02  0.33717092057E+02  0.23898064685E+03  0.24328996288E+03  0.00000000000E+00 0. -1.
         22    1    4    4    0    0  0.18427925038E+02 -0.21209251811E+02  0.13962407422E+03  0.14242297176E+03  0.00000000000E+00 0. -1.
         22    1    4    4    0    0  0.12254548308E+02 -0.12507840246E+02  0.61221363524E+02  0.63676332915E+02  0.00000000000E+00 0. -1.
<mgrwt>
<rscale>  0 0.92215666E+02</rscale>
<asrwt>0</asrwt>
<pdfrwt beam="2">  1        1 0.73562907E-03 0.92215666E+02</pdfrwt>
<pdfrwt beam="1">  1       -1 0.68401217E-01 0.92215666E+02</pdfrwt>
<totfact> 0.48912506E+04</totfact>
</mgrwt>
</event>
<event>
 7    1  0.2787125E-009  0.9104978E+02  0.7818608E-02  0.1300329E+00
          1   -1    0    0  501    0  0.00000000000E+00  0.00000000000E+00  0.39258617610E+02  0.39258617934E+02  0.50400000000E-02 0. -1.
         -1   -1    0    0    0  501 -0.00000000000E+00 -0.00000000000E+00 -0.52791354741E+02  0.52791354982E+02  0.50400000000E-02 0.  1.
         23    2    1    2    0    0  0.00000000000E+00  0.00000000000E+00 -0.13532737131E+02  0.92049972916E+02  0.91049780557E+02 0.  0.
    9000005    2    3    3    0    0 -0.34384226485E+02  0.27640247813E+02 -0.87666248684E+01  0.47676848660E+02  0.15810435049E+02 0.  0.
         22    1    3    3    0    0  0.34384226485E+02 -0.27640247813E+02 -0.47661122626E+01  0.44373124256E+02  0.00000000000E+00 0.  1.
         22    1    4    4    0    0 -0.25667547261E+02  0.14225573152E+02 -0.11363839970E+02  0.31469457777E+02  0.00000000000E+00 0. -1.
         22    1    4    4    0    0 -0.87166792243E+01  0.13414674661E+02  0.25972151020E+01  0.16207390883E+02  0.00000000000E+00 0. -1.
<mgrwt>
<rscale>  0 0.91049781E+02</rscale>
<asrwt>0</asrwt>
<pdfrwt beam="1">  1        1 0.60397874E-02 0.91049781E+02</pdfrwt>
<pdfrwt beam="2">  1       -1 0.81217469E-02 0.91049781E+02</pdfrwt>
<totfact> 0.90763456E+04</totfact>
</mgrwt>
</event>
<event>
 7    1  0.2787125E-009  0.9124460E+02  0.7818608E-02  0.1299865E+00
         -1   -1    0    0    0  501 -0.00000000000E+00  0.00000000000E+00  0.31900933148E+03  0.31900933152E+03  0.50400000000E-02 0.  1.
          1   -1    0    0  501    0  0.00000000000E+00 -0.00000000000E+00 -0.65245549638E+01  0.65245569104E+01  0.50400000000E-02 0. -1.
         23    2    1    2    0    0  0.00000000000E+00  0.00000000000E+00  0.31248477652E+03  0.32553388843E+03  0.91244599633E+02 0.  0.
    9000005    2    3    3    0    0 -0.21766775794E+02  0.16495427577E+02  0.28646186487E+03  0.28781010827E+03  0.53260431007E+01 0.  0.
         22    1    3    3    0    0  0.21766775794E+02 -0.16495427577E+02  0.26022911644E+02  0.37723780163E+02  0.00000000000E+00 0. -1.
         22    1    4    4    0    0 -0.16524230930E+02  0.11952061902E+02  0.18762507802E+03  0.18873015629E+03  0.00000000000E+00 0.  1.
         22    1    4    4    0    0 -0.52425448634E+01  0.45433656742E+01  0.98836786851E+02  0.99079951974E+02  0.00000000000E+00 0.  1.
<mgrwt>
<rscale>  0 0.91244600E+02</rscale>
<asrwt>0</asrwt>
<pdfrwt beam="2">  1        1 0.10037779E-02 0.91244600E+02</pdfrwt>
<pdfrwt beam="1">  1       -1 0.49078357E-01 0.91244600E+02</pdfrwt>
<totfact> 0.58986708E+04</totfact>
</mgrwt>
</event>
<event>
 7    1  0.2787125E-009  0.9226307E+02  0.7818608E-02  0.1297462E+00
         -1   -1    0    0    0  501 -0.00000000000E+00  0.00000000000E+00  0.22563648248E+02  0.22563648811E+02  0.50400000000E-02 0.  1.
          1   -1    0    0  501    0  0.00000000000E+00 -0.00000000000E+00 -0.94316247366E+02  0.94316247501E+02  0.50400000000E-02 0. -1.
         23    2    1    2    0    0  0.00000000000E+00  0.35527136788E-14 -0.71752599118E+02  0.11687989631E+03  0.92263073229E+02 0.  0.
    9000005    2    3    3    0    0  0.31134201511E+02 -0.24702415474E+02 -0.63222563983E+02  0.76231288299E+02  0.15315641848E+02 0.  0.
         22    1    3    3    0    0 -0.31134201511E+02  0.24702415474E+02 -0.85300351355E+01  0.40648608013E+02  0.00000000000E+00 0. -1.
         22    1    4    4    0    0 -0.61223922144E+00  0.12392564524E+01 -0.95932482209E+00  0.16825271271E+01  0.00000000000E+00 0. -1.
         22    1    4    4    0    0  0.31746440732E+02 -0.25941671926E+02 -0.62263239161E+02  0.74548761172E+02  0.00000000000E+00 0. -1.
<mgrwt>
<rscale>  0 0.92263073E+02</rscale>
<asrwt>0</asrwt>
<pdfrwt beam="2">  1        1 0.14510192E-01 0.92263073E+02</pdfrwt>
<pdfrwt beam="1">  1       -1 0.34713306E-02 0.92263073E+02</pdfrwt>
<totfact> 0.10014995E+05</totfact>
</mgrwt>
</event>
<event>
 7    1  0.2787125E-009  0.9051390E+02  0.7818608E-02  0.1301612E+00
         -1   -1    0    0    0  501 -0.00000000000E+00  0.00000000000E+00  0.79346509775E+01  0.79346525781E+01  0.50400000000E-02 0.  1.
          1   -1    0    0  501    0  0.00000000000E+00 -0.00000000000E+00 -0.25813249938E+03  0.25813249943E+03  0.50400000000E-02 0. -1.
         23    2    1    2    0    0  0.00000000000E+00  0.00000000000E+00 -0.25019784840E+03  0.26606715201E+03  0.90513899662E+02 0.  0.
    9000005    2    3    3    0    0  0.12375438397E+02  0.42779829357E+02 -0.13955229897E+03  0.14679560098E+03  0.95309518804E+01 0.  0.
         22    1    3    3    0    0 -0.12375438397E+02 -0.42779829357E+02 -0.11064554943E+03  0.11927155103E+03  0.00000000000E+00 0.  1.
         22    1    4    4    0    0  0.78467720090E+01  0.31682675245E+02 -0.11384331573E+03  0.11842999738E+03  0.00000000000E+00 0. -1.
         22    1    4    4    0    0  0.45286663878E+01  0.11097154113E+02 -0.25708983236E+02  0.28365603602E+02  0.00000000000E+00 0. -1.
<mgrwt>
<rscale>  0 0.90513900E+02</rscale>
<asrwt>0</asrwt>
<pdfrwt beam="2">  1        1 0.39712686E-01 0.90513900E+02</pdfrwt>
<pdfrwt beam="1">  1       -1 0.12207159E-02 0.90513900E+02</pdfrwt>
<totfact> 0.12689058E+05</totfact>
</mgrwt>
</event>
<event>
 7    1  0.2787125E-009  0.9490246E+02  0.7818608E-02  0.1291396E+00
          1   -1    0    0  501    0  0.00000000000E+00  0.00000000000E+00  0.25788113215E+02  0.25788113708E+02  0.50400000000E-02 0. -1.
         -1   -1    0    0    0  501 -0.00000000000E+00 -0.00000000000E+00 -0.87312281100E+02  0.87312281246E+02  0.50400000000E-02 0.  1.
         23    2    1    2    0    0  0.00000000000E+00  0.00000000000E+00 -0.61524167885E+02  0.11310039495E+03  0.94902455736E+02 0.  0.
    9000005    2    3    3    0    0 -0.81194249338E+01  0.13635636990E+02  0.21985312982E+02  0.28096341803E+02  0.73617102938E+01 0.  0.
         22    1    3    3    0    0  0.81194249338E+01 -0.13635636990E+02 -0.83509480867E+02  0.85004053150E+02  0.00000000000E+00 0.  1.
         22    1    4    4    0    0 -0.82416992627E+01  0.12233872218E+02  0.22219201012E+02  0.26669948065E+02  0.00000000000E+00 0. -1.
         22    1    4    4    0    0  0.12227432884E+00  0.14017647716E+01 -0.23388802995E+00  0.14263937384E+01  0.00000000000E+00 0. -1.
<mgrwt>
<rscale>  0 0.94902456E+02</rscale>
<asrwt>0</asrwt>
<pdfrwt beam="1">  1        1 0.39674021E-02 0.94902456E+02</pdfrwt>
<pdfrwt beam="2">  1       -1 0.13432659E-01 0.94902456E+02</pdfrwt>
<totfact> 0.75231529E+04</totfact>
</mgrwt>
</event>
<event>
 7    1  0.2787125E-009  0.9019301E+02  0.7818608E-02  0.1302385E+00
          1   -1    0    0  501    0  0.00000000000E+00  0.00000000000E+00  0.49842362693E+02  0.49842362947E+02  0.50400000000E-02 0.  1.
         -1   -1    0    0    0  501 -0.00000000000E+00 -0.00000000000E+00 -0.40802537089E+02  0.40802537400E+02  0.50400000000E-02 0. -1.
         23    2    1    2    0    0  0.00000000000E+00  0.17763568394E-14  0.90398256035E+01  0.90644900348E+02  0.90193012546E+02 0.  0.
    9000005    2    3    3    0    0 -0.31047320806E+02  0.14189253259E+02  0.32647513829E+02  0.49140756210E+02  0.13552959986E+02 0.  0.
         22    1    3    3    0    0  0.31047320806E+02 -0.14189253259E+02 -0.23607688225E+02  0.41504144138E+02  0.00000000000E+00 0. -1.
         22    1    4    4    0    0 -0.23971765123E+02  0.16533945735E+02  0.27724945846E+02  0.40208077632E+02  0.00000000000E+00 0.  1.
         22    1    4    4    0    0 -0.70755556835E+01 -0.23446924759E+01  0.49225679826E+01  0.89326785782E+01  0.00000000000E+00 0.  1.
<mgrwt>
<rscale>  0 0.90193013E+02</rscale>
<asrwt>0</asrwt>
<pdfrwt beam="1">  1        1 0.76680558E-02 0.90193013E+02</pdfrwt>
<pdfrwt beam="2">  1       -1 0.62773135E-02 0.90193013E+02</pdfrwt>
<totfact> 0.96600833E+04</totfact>
</mgrwt>
</event>
<event>
 7    1  0.2787125E-009  0.9068144E+02  0.7818608E-02  0.1301210E+00
          1   -1    0    0  501    0  0.00000000000E+00  0.00000000000E+00  0.65012893443E+02  0.65012893639E+02  0.50400000000E-02 0. -1.
         -1   -1    0    0    0  501 -0.00000000000E+00 -0.00000000000E+00 -0.31621123803E+02  0.31621124204E+02  0.50400000000E-02 0.  1.
         23    2    1    2    0    0 -0.17763568394E-14 -0.71054273576E-14  0.33391769641E+02  0.96634017843E+02  0.90681437598E+02 0.  0.
    9000005    2    3    3    0    0  0.13222914392E+02  0.32321964407E+02  0.46160974096E+02  0.59450588327E+02  0.13563999216E+02 0.  0.
         22    1    3    3    0    0 -0.13222914392E+02 -0.32321964407E+02 -0.12769204456E+02  0.37183429516E+02  0.00000000000E+00 0.  1.
         22    1    4    4    0    0 -0.23146756471E+01  0.60887351066E+01  0.49206964324E+01  0.81635575535E+01  0.00000000000E+00 0.  1.
         22    1    4    4    0    0  0.15537590039E+02  0.26233229301E+02  0.41240277664E+02  0.51287030773E+02  0.00000000000E+00 0.  1.
<mgrwt>
<rscale>  0 0.90681438E+02</rscale>
<asrwt>0</asrwt>
<pdfrwt beam="1">  1        1 0.10001984E-01 0.90681438E+02</pdfrwt>
<pdfrwt beam="2">  1       -1 0.48647884E-02 0.90681438E+02</pdfrwt>
<totfact> 0.99033510E+04</totfact>
</mgrwt>
</event>
<event>
 7    1  0.2787125E-009  0.8903355E+02  0.7818608E-02  0.1305209E+00
          1   -1    0    0  501    0  0.00000000000E+00  0.00000000000E+00  0.11168727216E+03  0.11168727227E+03  0.50400000000E-02 0. -1.
         -1   -1    0    0    0  501 -0.00000000000E+00 -0.00000000000E+00 -0.17743681053E+02  0.17743681769E+02  0.50400000000E-02 0.  1.
         23    2    1    2    0    0  0.00000000000E+00 -0.71054273576E-14  0.93943591106E+02  0.12943095404E+03  0.89033552969E+02 0.  0.
    9000005    2    3    3    0    0  0.63066998159E+01 -0.33788709931E+02  0.87611026569E+02  0.94480235094E+02  0.83289534465E+01 0.  0.
         22    1    3    3    0    0 -0.63066998159E+01  0.33788709931E+02  0.63325645374E+01  0.34950718948E+02  0.00000000000E+00 0.  1.
         22    1    4    4    0    0  0.39712720226E+01 -0.31997948982E+02  0.77241851929E+02  0.83701513905E+02  0.00000000000E+00 0.  1.
         22    1    4    4    0    0  0.23354277933E+01 -0.17907609492E+01  0.10369174639E+02  0.10778721188E+02  0.00000000000E+00 0.  1.
<mgrwt>
<rscale>  0 0.89033553E+02</rscale>
<asrwt>0</asrwt>
<pdfrwt beam="1">  1        1 0.17182658E-01 0.89033553E+02</pdfrwt>
<pdfrwt beam="2">  1       -1 0.27297971E-02 0.89033553E+02</pdfrwt>
<totfact> 0.11350405E+05</totfact>
</mgrwt>
</event>
<event>
 7    1  0.2977896E-009  0.8961568E+02  0.7818608E-02  0.1303785E+00
          1   -1    0    0  501    0  0.00000000000E+00  0.00000000000E+00  0.10884771233E+04  0.10884771233E+04  0.50400000000E-02 0. -1.
         -1   -1    0    0    0  501 -0.00000000000E+00 -0.00000000000E+00 -0.18445391752E+01  0.18445460608E+01  0.50400000000E-02 0.  1.
         23    2    1    2    0    0  0.00000000000E+00  0.35527136788E-14  0.10866325841E+04  0.10903216693E+04  0.89615678433E+02 0.  0.
    9000005    2    3    3    0    0 -0.15103792500E+02  0.27189381046E+02  0.93038798911E+03  0.93101140460E+03  0.13893819837E+02 0.  0.
         22    1    3    3    0    0  0.15103792500E+02 -0.27189381046E+02  0.15624459498E+03  0.15931026473E+03  0.00000000000E+00 0.  1.
         22    1    4    4    0    0 -0.64544243049E+01  0.14554021458E+01  0.13809507512E+03  0.13825349023E+03  0.00000000000E+00 0.  1.
         22    1    4    4    0    0 -0.86493681954E+01  0.25733978901E+02  0.79229291399E+03  0.79275791437E+03  0.00000000000E+00 0.  1.
<mgrwt>
<rscale>  0 0.89615678E+02</rscale>
<asrwt>0</asrwt>
<pdfrwt beam="1">  1        1 0.16745817E+00 0.89615678E+02</pdfrwt>
<pdfrwt beam="2">  1       -1 0.28377554E-03 0.89615678E+02</pdfrwt>
<totfact> 0.13868735E+05</totfact>
</mgrwt>
</event>
<event>
 7    1  0.2787125E-009  0.8858481E+02  0.7818608E-02  0.1306315E+00
          1   -1    0    0  501    0  0.00000000000E+00  0.00000000000E+00  0.20347699837E+02  0.20347700461E+02  0.50400000000E-02 0. -1.
         -1   -1    0    0    0  501 -0.00000000000E+00 -0.00000000000E+00 -0.96414683735E+02  0.96414683866E+02  0.50400000000E-02 0.  1.
         23    2    1    2    0    0  0.00000000000E+00  0.00000000000E+00 -0.76066983897E+02  0.11676238433E+03  0.88584808826E+02 0.  0.
    9000005    2    3    3    0    0  0.26484635227E+02 -0.90435399892E+01 -0.83123084349E+02  0.87900470458E+02  0.58158435624E+01 0.  0.
         22    1    3    3    0    0 -0.26484635227E+02  0.90435399892E+01  0.70561004518E+01  0.28861913870E+02  0.00000000000E+00 0. -1.
         22    1    4    4    0    0  0.22068655234E+02 -0.93860166839E+01 -0.73341379272E+02  0.77162690250E+02  0.00000000000E+00 0. -1.
         22    1    4    4    0    0  0.44159799929E+01  0.34247669470E+00 -0.97817050772E+01  0.10737780208E+02  0.00000000000E+00 0. -1.
<mgrwt>
<rscale>  0 0.88584809E+02</rscale>
<asrwt>0</asrwt>
<pdfrwt beam="1">  1        1 0.31304155E-02 0.88584809E+02</pdfrwt>
<pdfrwt beam="2">  1       -1 0.14833028E-01 0.88584809E+02</pdfrwt>
<totfact> 0.88221446E+04</totfact>
</mgrwt>
</event>
<event>
 7    1  0.2787125E-009  0.9345370E+02  0.7818608E-02  0.1294697E+00
         -1   -1    0    0    0  501 -0.00000000000E+00  0.00000000000E+00  0.26029012506E+02  0.26029012994E+02  0.50400000000E-02 0.  1.
          1   -1    0    0  501    0  0.00000000000E+00 -0.00000000000E+00 -0.83883253226E+02  0.83883253377E+02  0.50400000000E-02 0. -1.
         23    2    1    2    0    0 -0.17763568394E-14  0.00000000000E+00 -0.57854240720E+02  0.10991226637E+03  0.93453695109E+02 0.  0.
    9000005    2    3    3    0    0 -0.14830547084E+02  0.20870606778E+02  0.16860120149E+02  0.30932755901E+02  0.41284842315E+01 0.  0.
         22    1    3    3    0    0  0.14830547084E+02 -0.20870606778E+02 -0.74714360869E+02  0.78979510471E+02  0.00000000000E+00 0. -1.
         22    1    4    4    0    0 -0.25426959198E+01  0.37626270589E+01  0.50209190551E+01  0.67699551758E+01  0.00000000000E+00 0. -1.
         22    1    4    4    0    0 -0.12287851164E+02  0.17107979720E+02  0.11839201094E+02  0.24162800725E+02  0.00000000000E+00 0. -1.
<mgrwt>
<rscale>  0 0.93453695E+02</rscale>
<asrwt>0</asrwt>
<pdfrwt beam="2">  1        1 0.12905116E-01 0.93453695E+02</pdfrwt>
<pdfrwt beam="1">  1       -1 0.40044635E-02 0.93453695E+02</pdfrwt>
<totfact> 0.94853244E+04</totfact>
</mgrwt>
</event>
<event>
 7    1  0.2787125E-009  0.9177478E+02  0.7818608E-02  0.1298610E+00
         -1   -1    0    0    0  501 -0.00000000000E+00  0.00000000000E+00  0.26982044420E+01  0.26982091492E+01  0.50400000000E-02 0.  1.
          1   -1    0    0  501    0  0.00000000000E+00 -0.00000000000E+00 -0.78038964958E+03  0.78038964960E+03  0.50400000000E-02 0. -1.
         23    2    1    2    0    0  0.00000000000E+00  0.35527136788E-14 -0.77769144514E+03  0.78308785875E+03  0.91774782341E+02 0.  0.
    9000005    2    3    3    0    0 -0.15072727048E+02  0.25967015985E+02 -0.68427446302E+03  0.68496443867E+03  0.65778779146E+01 0.  0.
         22    1    3    3    0    0  0.15072727048E+02 -0.25967015985E+02 -0.93416982122E+02  0.98123420082E+02  0.00000000000E+00 0.  1.
         22    1    4    4    0    0 -0.28090240109E+01  0.28452628624E+01 -0.54561293813E+02  0.54707594712E+02  0.00000000000E+00 0.  1.
         22    1    4    4    0    0 -0.12263703037E+02  0.23121753123E+02 -0.62971316921E+03  0.63025684395E+03  0.00000000000E+00 0.  1.
<mgrwt>
<rscale>  0 0.91774782E+02</rscale>
<asrwt>0</asrwt>
<pdfrwt beam="2">  1        1 0.12005977E+00 0.91774782E+02</pdfrwt>
<pdfrwt beam="1">  1       -1 0.41510936E-03 0.91774782E+02</pdfrwt>
<totfact> 0.13915031E+05</totfact>
</mgrwt>
</event>
<event>
 7    1  0.2787125E-009  0.9001474E+02  0.7818608E-02  0.1302816E+00
         -1   -1    0    0    0  501 -0.00000000000E+00  0.00000000000E+00  0.12650786256E+02  0.12650787260E+02  0.50400000000E-02 0.  1.
          1   -1    0    0  501    0  0.00000000000E+00 -0.00000000000E+00 -0.16012153236E+03  0.16012153244E+03  0.50400000000E-02 0. -1.
         23    2    1    2    0    0  0.00000000000E+00 -0.35527136788E-14 -0.14747074611E+03  0.17277231970E+03  0.90014740449E+02 0.  0.
    9000005    2    3    3    0    0 -0.20698488644E+02  0.19493221646E+02 -0.14022984752E+03  0.14343218108E+03  0.99983653424E+01 0.  0.
         22    1    3    3    0    0  0.20698488644E+02 -0.19493221646E+02 -0.72408985828E+01  0.29340138626E+02  0.00000000000E+00 0.  1.
         22    1    4    4    0    0 -0.12075737390E+02  0.11367167073E+02 -0.10400362510E+03  0.10531756717E+03  0.00000000000E+00 0. -1.
         22    1    4    4    0    0 -0.86227512539E+01  0.81260545733E+01 -0.36226222428E+02  0.38114613910E+02  0.00000000000E+00 0. -1.
<mgrwt>
<rscale>  0 0.90014740E+02</rscale>
<asrwt>0</asrwt>
<pdfrwt beam="2">  1        1 0.24634081E-01 0.90014740E+02</pdfrwt>
<pdfrwt beam="1">  1       -1 0.19462750E-02 0.90014740E+02</pdfrwt>
<totfact> 0.11748059E+05</totfact>
</mgrwt>
</event>
<event>
 7    1  0.2787125E-009  0.9195012E+02  0.7818608E-02  0.1298197E+00
         -1   -1    0    0    0  501 -0.00000000000E+00  0.00000000000E+00  0.66468134069E+01  0.66468153177E+01  0.50400000000E-02 0.  1.
          1   -1    0    0  501    0  0.00000000000E+00 -0.00000000000E+00 -0.31800287390E+03  0.31800287394E+03  0.50400000000E-02 0. -1.
         23    2    1    2    0    0  0.00000000000E+00  0.00000000000E+00 -0.31135606050E+03  0.32464968926E+03  0.91950118702E+02 0.  0.
    9000005    2    3    3    0    0 -0.29997940392E+02  0.16668155318E+02 -0.26251626017E+03  0.26495856827E+03  0.10514381352E+02 0.  0.
         22    1    3    3    0    0  0.29997940392E+02 -0.16668155318E+02 -0.48839800324E+02  0.59691120991E+02  0.00000000000E+00 0.  1.
         22    1    4    4    0    0 -0.25813874380E+02  0.17965087176E+02 -0.22497566944E+03  0.22716327236E+03  0.00000000000E+00 0. -1.
         22    1    4    4    0    0 -0.41840660125E+01 -0.12969318580E+01 -0.37540590727E+02  0.37795295908E+02  0.00000000000E+00 0. -1.
<mgrwt>
<rscale>  0 0.91950119E+02</rscale>
<asrwt>0</asrwt>
<pdfrwt beam="2">  1        1 0.48923507E-01 0.91950119E+02</pdfrwt>
<pdfrwt beam="1">  1       -1 0.10225871E-02 0.91950119E+02</pdfrwt>
<totfact> 0.12665660E+05</totfact>
</mgrwt>
</event>
<event>
 7    1  0.2787125E-009  0.9104153E+02  0.7818608E-02  0.1300349E+00
          1   -1    0    0  501    0  0.00000000000E+00  0.00000000000E+00  0.23583192032E+03  0.23583192038E+03  0.50400000000E-02 0. -1.
         -1   -1    0    0    0  501 -0.00000000000E+00 -0.00000000000E+00 -0.87865123637E+01  0.87865138092E+01  0.50400000000E-02 0.  1.
         23    2    1    2    0    0 -0.35527136788E-14 -0.35527136788E-14  0.22704540796E+03  0.24461843419E+03  0.91041534852E+02 0.  0.
    9000005    2    3    3    0    0 -0.16019989500E+02 -0.23296019850E+02  0.20937165219E+03  0.21127617500E+03  0.13374524063E+01 0.  0.
         22    1    3    3    0    0  0.16019989500E+02  0.23296019850E+02  0.17673755771E+02  0.33342259184E+02  0.00000000000E+00 0.  1.
         22    1    4    4    0    0 -0.23893753006E+01 -0.28147984430E+01  0.25501366522E+02  0.25767264097E+02  0.00000000000E+00 0.  1.
         22    1    4    4    0    0 -0.13630614199E+02 -0.20481221407E+02  0.18387028567E+03  0.18550891090E+03  0.00000000000E+00 0.  1.
<mgrwt>
<rscale>  0 0.91041535E+02</rscale>
<asrwt>0</asrwt>
<pdfrwt beam="1">  1        1 0.36281832E-01 0.91041535E+02</pdfrwt>
<pdfrwt beam="2">  1       -1 0.13517713E-02 0.91041535E+02</pdfrwt>
<totfact> 0.12275798E+05</totfact>
</mgrwt>
</event>
<event>
 7    1  0.2787125E-009  0.8791879E+02  0.7818608E-02  0.1307971E+00
         -1   -1    0    0    0  501 -0.00000000000E+00  0.00000000000E+00  0.81268364198E+02  0.81268364354E+02  0.50400000000E-02 0.  1.
          1   -1    0    0  501    0  0.00000000000E+00 -0.00000000000E+00 -0.23778357300E+02  0.23778357835E+02  0.50400000000E-02 0. -1.
         23    2    1    2    0    0  0.00000000000E+00 -0.35527136788E-14  0.57490006898E+02  0.10504672219E+03  0.87918786101E+02 0.  0.
    9000005    2    3    3    0    0  0.37818115909E+02 -0.19169054932E+02  0.39617416653E+02  0.59034853721E+02  0.10858715105E+02 0.  0.
         22    1    3    3    0    0 -0.37818115909E+02  0.19169054932E+02  0.17872590244E+02  0.46011868468E+02  0.00000000000E+00 0. -1.
         22    1    4    4    0    0  0.26744757223E+02 -0.18783800693E+02  0.29980656120E+02  0.44350343277E+02  0.00000000000E+00 0.  1.
         22    1    4    4    0    0  0.11073358686E+02 -0.38525423878E+00  0.96367605335E+01  0.14684510444E+02  0.00000000000E+00 0.  1.
<mgrwt>
<rscale>  0 0.87918786E+02</rscale>
<asrwt>0</asrwt>
<pdfrwt beam="2">  1        1 0.36582089E-02 0.87918786E+02</pdfrwt>
<pdfrwt beam="1">  1       -1 0.12502825E-01 0.87918786E+02</pdfrwt>
<totfact> 0.92659382E+04</totfact>
</mgrwt>
</event>
<event>
 7    1  0.2787125E-009  0.8808466E+02  0.7818608E-02  0.1307557E+00
          1   -1    0    0  501    0  0.00000000000E+00  0.00000000000E+00  0.77797902922E+02  0.77797903085E+02  0.50400000000E-02 0. -1.
         -1   -1    0    0    0  501 -0.00000000000E+00 -0.00000000000E+00 -0.24932890913E+02  0.24932891423E+02  0.50400000000E-02 0.  1.
         23    2    1    2    0    0  0.00000000000E+00  0.00000000000E+00  0.52865012008E+02  0.10273079451E+03  0.88084656130E+02 0.  0.
    9000005    2    3    3    0    0 -0.19923784291E+02 -0.34254876904E+02  0.48133332051E+02  0.62821615521E+02  0.77060982498E+01 0.  0.
         22    1    3    3    0    0  0.19923784291E+02  0.34254876904E+02  0.47316799572E+01  0.39909178986E+02  0.00000000000E+00 0.  1.
         22    1    4    4    0    0  0.48599580932E+00 -0.11583572971E+00  0.20837203546E+00  0.54132129841E+00  0.00000000000E+00 0. -1.
         22    1    4    4    0    0 -0.20409780100E+02 -0.34139041174E+02  0.47924960016E+02  0.62280294223E+02  0.00000000000E+00 0. -1.
<mgrwt>
<rscale>  0 0.88084656E+02</rscale>
<asrwt>0</asrwt>
<pdfrwt beam="1">  1        1 0.11968908E-01 0.88084656E+02</pdfrwt>
<pdfrwt beam="2">  1       -1 0.38358294E-02 0.88084656E+02</pdfrwt>
<totfact> 0.11024177E+05</totfact>
</mgrwt>
</event>
<event>
 7    1  0.2787125E-009  0.9091333E+02  0.7818608E-02  0.1300655E+00
          1   -1    0    0  501    0  0.00000000000E+00  0.00000000000E+00  0.73578499105E+02  0.73578499278E+02  0.50400000000E-02 0. -1.
         -1   -1    0    0    0  501 -0.00000000000E+00 -0.00000000000E+00 -0.28083045567E+02  0.28083046019E+02  0.50400000000E-02 0.  1.
         23    2    1    2    0    0  0.00000000000E+00  0.17763568394E-14  0.45495453538E+02  0.10166154530E+03  0.90913329603E+02 0.  0.
    9000005    2    3    3    0    0 -0.33643870053E+02 -0.10884043590E+02 -0.90443887570E+01  0.36661800724E+02  0.34517049888E+01 0.  0.
         22    1    3    3    0    0  0.33643870053E+02  0.10884043590E+02  0.54539842295E+02  0.64999744573E+02  0.00000000000E+00 0. -1.
         22    1    4    4    0    0 -0.23891487283E+02 -0.62503974213E+01 -0.55311348449E+01  0.25307391908E+02  0.00000000000E+00 0. -1.
         22    1    4    4    0    0 -0.97523827701E+01 -0.46336461685E+01 -0.35132539121E+01  0.11354408816E+02  0.00000000000E+00 0. -1.
<mgrwt>
<rscale>  0 0.90913330E+02</rscale>
<asrwt>0</asrwt>
<pdfrwt beam="1">  1        1 0.11319769E-01 0.90913330E+02</pdfrwt>
<pdfrwt beam="2">  1       -1 0.43204686E-02 0.90913330E+02</pdfrwt>
<totfact> 0.10022763E+05</totfact>
</mgrwt>
</event>
<event>
 7    1  0.2787125E-009  0.9972246E+02  0.7818608E-02  0.1280881E+00
         -1   -1    0    0    0  501 -0.00000000000E+00  0.00000000000E+00  0.46656475798E+01  0.46656503020E+01  0.50400000000E-02 0.  1.
          1   -1    0    0  501    0  0.00000000000E+00 -0.00000000000E+00 -0.53286100272E+03  0.53286100275E+03  0.50400000000E-02 0. -1.
         23    2    1    2    0    0  0.00000000000E+00  0.00000000000E+00 -0.52819535514E+03  0.53752665305E+03  0.99722462580E+02 0.  0.
    9000005    2    3    3    0    0  0.23710947291E+02 -0.24214024826E+02 -0.45894244455E+03  0.46042611060E+03  0.14680187210E+02 0.  0.
         22    1    3    3    0    0 -0.23710947291E+02  0.24214024826E+02 -0.69252910593E+02  0.77100542445E+02  0.00000000000E+00 0.  1.
         22    1    4    4    0    0  0.14701573710E+02 -0.78869259959E+01 -0.28475670075E+03  0.28524501484E+03  0.00000000000E+00 0.  1.
         22    1    4    4    0    0  0.90093735804E+01 -0.16327098830E+02 -0.17418574380E+03  0.17518109576E+03  0.00000000000E+00 0.  1.
<mgrwt>
<rscale>  0 0.99722463E+02</rscale>
<asrwt>0</asrwt>
<pdfrwt beam="2">  1        1 0.81978568E-01 0.99722463E+02</pdfrwt>
<pdfrwt beam="1">  1       -1 0.71779257E-03 0.99722463E+02</pdfrwt>
<totfact> 0.11049159E+05</totfact>
</mgrwt>
</event>
<event>
 7    1  0.2787125E-009  0.8831931E+02  0.7818608E-02  0.1306974E+00
          1   -1    0    0  501    0  0.00000000000E+00  0.00000000000E+00  0.66664647643E+03  0.66664647644E+03  0.50400000000E-02 0. -1.
         -1   -1    0    0    0  501 -0.00000000000E+00 -0.00000000000E+00 -0.29251993966E+01  0.29252037385E+01  0.50400000000E-02 0.  1.
         23    2    1    2    0    0 -0.35527136788E-14  0.00000000000E+00  0.66372127703E+03  0.66957168018E+03  0.88319314548E+02 0.  0.
    9000005    2    3    3    0    0 -0.25570661073E+02 -0.20401029646E+02  0.55654017558E+03  0.55750987033E+03  0.31980883785E+01 0.  0.
         22    1    3    3    0    0  0.25570661073E+02  0.20401029646E+02  0.10718110145E+03  0.11206180985E+03  0.00000000000E+00 0.  1.
         22    1    4    4    0    0 -0.17984303953E+02 -0.12423568259E+02  0.37196102735E+03  0.37260271887E+03  0.00000000000E+00 0. -1.
         22    1    4    4    0    0 -0.75863571201E+01 -0.79774613878E+01  0.18457914822E+03  0.18490715147E+03  0.00000000000E+00 0. -1.
<mgrwt>
<rscale>  0 0.88319315E+02</rscale>
<asrwt>0</asrwt>
<pdfrwt beam="1">  1        1 0.10256092E+00 0.88319315E+02</pdfrwt>
<pdfrwt beam="2">  1       -1 0.45003134E-03 0.88319315E+02</pdfrwt>
<totfact> 0.15462619E+05</totfact>
</mgrwt>
</event>
<event>
 7    1  0.2787125E-009  0.8981557E+02  0.7818608E-02  0.1303299E+00
          1   -1    0    0  501    0  0.00000000000E+00  0.00000000000E+00  0.77348555711E+01  0.77348572131E+01  0.50400000000E-02 0.  1.
         -1   -1    0    0    0  501 -0.00000000000E+00 -0.00000000000E+00 -0.26072997557E+03  0.26072997562E+03  0.50400000000E-02 0. -1.
         23    2    1    2    0    0  0.00000000000E+00  0.00000000000E+00 -0.25299512000E+03  0.26846483283E+03  0.89815565044E+02 0.  0.
    9000005    2    3    3    0    0  0.98984501236E+01  0.16971966228E+02 -0.24697423628E+03  0.24791542911E+03  0.89308259997E+01 0.  0.
         22    1    3    3    0    0 -0.98984501236E+01 -0.16971966228E+02 -0.60208837194E+01  0.20549403721E+02  0.00000000000E+00 0.  1.
         22    1    4    4    0    0  0.29305693003E+01  0.92168521918E+01 -0.74311795269E+02  0.74938518246E+02  0.00000000000E+00 0. -1.
         22    1    4    4    0    0  0.69678808233E+01  0.77551140367E+01 -0.17266244101E+03  0.17297691087E+03  0.00000000000E+00 0. -1.
<mgrwt>
<rscale>  0 0.89815565E+02</rscale>
<asrwt>0</asrwt>
<pdfrwt beam="1">  1        1 0.11899781E-02 0.89815565E+02</pdfrwt>
<pdfrwt beam="2">  1       -1 0.40112297E-01 0.89815565E+02</pdfrwt>
<totfact> 0.66388238E+04</totfact>
</mgrwt>
</event>
<event>
 7    1  0.2787125E-009  0.8965495E+02  0.7818608E-02  0.1303689E+00
         -1   -1    0    0    0  501 -0.00000000000E+00  0.00000000000E+00  0.17914187558E+01  0.17914258456E+01  0.50400000000E-02 0.  1.
          1   -1    0    0  501    0  0.00000000000E+00 -0.00000000000E+00 -0.11217358062E+04  0.11217358062E+04  0.50400000000E-02 0. -1.
         23    2    1    2    0    0  0.00000000000E+00  0.00000000000E+00 -0.11199443874E+04  0.11235272321E+04  0.89654950814E+02 0.  0.
    9000005    2    3    3    0    0 -0.38146241571E+01  0.16721875732E+02 -0.10787669110E+04  0.10789205391E+04  0.61081140116E+01 0.  0.
         22    1    3    3    0    0  0.38146241571E+01 -0.16721875732E+02 -0.41177476466E+02  0.44606692924E+02  0.00000000000E+00 0.  1.
         22    1    4    4    0    0 -0.55045200151E+01  0.13115253491E+02 -0.84474288850E+03  0.84486262628E+03  0.00000000000E+00 0. -1.
         22    1    4    4    0    0  0.16898958580E+01  0.36066222410E+01 -0.23402402247E+03  0.23405791285E+03  0.00000000000E+00 0. -1.
<mgrwt>
<rscale>  0 0.89654951E+02</rscale>
<asrwt>0</asrwt>
<pdfrwt beam="2">  1        1 0.17257418E+00 0.89654951E+02</pdfrwt>
<pdfrwt beam="1">  1       -1 0.27560433E-03 0.89654951E+02</pdfrwt>
<totfact> 0.13699203E+05</totfact>
</mgrwt>
</event>
<event>
 7    1  0.2787125E-009  0.9325943E+02  0.7818608E-02  0.1295145E+00
          1   -1    0    0  501    0  0.00000000000E+00  0.00000000000E+00  0.73634665534E+02  0.73634665707E+02  0.50400000000E-02 0. -1.
         -1   -1    0    0    0  501 -0.00000000000E+00 -0.00000000000E+00 -0.29528623049E+02  0.29528623479E+02  0.50400000000E-02 0.  1.
         23    2    1    2    0    0 -0.71054273576E-14  0.00000000000E+00  0.44106042485E+02  0.10316328919E+03  0.93259429828E+02 0.  0.
    9000005    2    3    3    0    0  0.36602054281E+02 -0.10804704771E+02 -0.67103736592E+01  0.39612048659E+02  0.82239444021E+01 0.  0.
         22    1    3    3    0    0 -0.36602054281E+02  0.10804704771E+02  0.50816416144E+02  0.63551240527E+02  0.00000000000E+00 0. -1.
         22    1    4    4    0    0  0.27221252215E+02 -0.41449556151E+01 -0.46929622980E+01  0.27932080559E+02  0.00000000000E+00 0. -1.
         22    1    4    4    0    0  0.93808020659E+01 -0.66597491560E+01 -0.20174113612E+01  0.11679968100E+02  0.00000000000E+00 0. -1.
<mgrwt>
<rscale>  0 0.93259430E+02</rscale>
<asrwt>0</asrwt>
<pdfrwt beam="1">  1        1 0.11328410E-01 0.93259430E+02</pdfrwt>
<pdfrwt beam="2">  1       -1 0.45428652E-02 0.93259430E+02</pdfrwt>
<totfact> 0.93434860E+04</totfact>
</mgrwt>
</event>
<event>
 7    1  0.2787125E-009  0.8962268E+02  0.7818608E-02  0.1303768E+00
         -1   -1    0    0    0  501 -0.00000000000E+00  0.00000000000E+00  0.56412729529E+01  0.56412752043E+01  0.50400000000E-02 0.  1.
          1   -1    0    0  501    0  0.00000000000E+00 -0.00000000000E+00 -0.35595791748E+03  0.35595791751E+03  0.50400000000E-02 0. -1.
         23    2    1    2    0    0  0.00000000000E+00 -0.35527136788E-14 -0.35031664452E+03  0.36159919272E+03  0.89622679847E+02 0.  0.
    9000005    2    3    3    0    0 -0.21136608268E+02 -0.17484783308E+02 -0.31794216316E+03  0.31916594043E+03  0.52157986789E+01 0.  0.
         22    1    3    3    0    0  0.21136608268E+02  0.17484783308E+02 -0.32374481359E+02  0.42433252288E+02  0.00000000000E+00 0.  1.
         22    1    4    4    0    0 -0.41789624156E+01 -0.64628802513E+01 -0.86113025294E+02  0.86456264512E+02  0.00000000000E+00 0. -1.
         22    1    4    4    0    0 -0.16957645852E+02 -0.11021903057E+02 -0.23182913787E+03  0.23270967592E+03  0.00000000000E+00 0. -1.
<mgrwt>
<rscale>  0 0.89622680E+02</rscale>
<asrwt>0</asrwt>
<pdfrwt beam="2">  1        1 0.54762739E-01 0.89622680E+02</pdfrwt>
<pdfrwt beam="1">  1       -1 0.86788860E-03 0.89622680E+02</pdfrwt>
<totfact> 0.13840442E+05</totfact>
</mgrwt>
</event>
<event>
 7    1  0.2787125E-009  0.9477632E+02  0.7818608E-02  0.1291681E+00
          1   -1    0    0  501    0  0.00000000000E+00  0.00000000000E+00  0.11235912947E+03  0.11235912958E+03  0.50400000000E-02 0. -1.
         -1   -1    0    0    0  501 -0.00000000000E+00 -0.00000000000E+00 -0.19986251698E+02  0.19986252333E+02  0.50400000000E-02 0.  1.
         23    2    1    2    0    0 -0.35527136788E-14 -0.71054273576E-14  0.92372877771E+02  0.13234538191E+03  0.94776323871E+02 0.  0.
    9000005    2    3    3    0    0  0.24768648437E+02  0.40239697462E+02  0.48316139645E+02  0.67741083517E+02  0.46568066940E+01 0.  0.
         22    1    3    3    0    0 -0.24768648437E+02 -0.40239697462E+02  0.44056738125E+02  0.64604298398E+02  0.00000000000E+00 0. -1.
         22    1    4    4    0    0  0.12100144841E+01  0.43273374671E+01  0.38204678297E+01  0.58979622789E+01  0.00000000000E+00 0. -1.
         22    1    4    4    0    0  0.23558633953E+02  0.35912359995E+02  0.44495671816E+02  0.61843121238E+02  0.00000000000E+00 0. -1.
<mgrwt>
<rscale>  0 0.94776324E+02</rscale>
<asrwt>0</asrwt>
<pdfrwt beam="1">  1        1 0.17286020E-01 0.94776324E+02</pdfrwt>
<pdfrwt beam="2">  1       -1 0.30748080E-02 0.94776324E+02</pdfrwt>
<totfact> 0.95853994E+04</totfact>
</mgrwt>
</event>
<event>
 7    1  0.2787125E-009  0.9108570E+02  0.7818608E-02  0.1300244E+00
          1   -1    0    0  501    0  0.00000000000E+00  0.00000000000E+00  0.58871312203E+01  0.58871333777E+01  0.50400000000E-02 0. -1.
         -1   -1    0    0    0  501 -0.00000000000E+00 -0.00000000000E+00 -0.35231942605E+03  0.35231942609E+03  0.50400000000E-02 0.  1.
         23    2    1    2    0    0  0.00000000000E+00 -0.44408920985E-15 -0.34643229483E+03  0.35820655947E+03  0.91085697790E+02 0.  0.
    9000005    2    3    3    0    0  0.17528851946E+02  0.26341703150E+01 -0.33758750972E+03  0.33839672031E+03  0.15258246694E+02 0.  0.
         22    1    3    3    0    0 -0.17528851946E+02 -0.26341703150E+01 -0.88447851105E+01  0.19809839157E+02  0.00000000000E+00 0. -1.
         22    1    4    4    0    0 -0.17450085192E+01 -0.27322088684E+01 -0.61383417493E+02  0.61468967481E+02  0.00000000000E+00 0.  1.
         22    1    4    4    0    0  0.19273860465E+02  0.53663791834E+01 -0.27620409223E+03  0.27692775283E+03  0.00000000000E+00 0.  1.
<mgrwt>
<rscale>  0 0.91085698E+02</rscale>
<asrwt>0</asrwt>
<pdfrwt beam="1">  1        1 0.90571294E-03 0.91085698E+02</pdfrwt>
<pdfrwt beam="2">  1       -1 0.54202972E-01 0.91085698E+02</pdfrwt>
<totfact> 0.56767278E+04</totfact>
</mgrwt>
</event>
<event>
 6    1  0.2787125E-009  0.1366287E+03  0.7818608E-02  0.1217939E+00
         -1   -1    0    0    0  501 -0.00000000000E+00  0.00000000000E+00  0.45736604627E+02  0.45736604905E+02  0.50400000000E-02 0.  1.
          1   -1    0    0  501    0  0.00000000000E+00 -0.00000000000E+00 -0.10203751048E+03  0.10203751060E+03  0.50400000000E-02 0. -1.
    9000005    2    1    2    0    0 -0.51642876836E+02 -0.13663131528E+02 -0.73964026848E+02  0.91509972978E+02  0.70519497755E+01 0.  0.
         22    1    1    2    0    0  0.51642876836E+02  0.13663131528E+02  0.17663120998E+02  0.56264142529E+02  0.00000000000E+00 0.  1.
         22    1    3    3    0    0 -0.48461997713E+02 -0.10907781334E+02 -0.68083152930E+02  0.84278470731E+02  0.00000000000E+00 0.  1.
         22    1    3    3    0    0 -0.31808791239E+01 -0.27553501944E+01 -0.58808739186E+01  0.72315022465E+01  0.00000000000E+00 0.  1.
<mgrwt>
<rscale>  0 0.13662868E+03</rscale>
<asrwt>0</asrwt>
<pdfrwt beam="2">  1        1 0.15698078E-01 0.13662868E+03</pdfrwt>
<pdfrwt beam="1">  1       -1 0.70364008E-02 0.13662868E+03</pdfrwt>
<totfact> 0.33728993E+04</totfact>
</mgrwt>
</event>
<event>
 7    1  0.2787125E-009  0.9183792E+02  0.7818608E-02  0.1298461E+00
         -1   -1    0    0    0  501 -0.00000000000E+00  0.00000000000E+00  0.33641139658E+02  0.33641140035E+02  0.50400000000E-02 0.  1.
          1   -1    0    0  501    0  0.00000000000E+00 -0.00000000000E+00 -0.62677752290E+02  0.62677752493E+02  0.50400000000E-02 0. -1.
         23    2    1    2    0    0  0.44408920985E-15  0.00000000000E+00 -0.29036612633E+02  0.96318892528E+02  0.91837923456E+02 0.  0.
    9000005    2    3    3    0    0  0.77771401185E+00 -0.32848610136E+02 -0.46701584103E+02  0.59013567922E+02  0.14897221694E+02 0.  0.
         22    1    3    3    0    0 -0.77771401185E+00  0.32848610136E+02  0.17664971470E+02  0.37305324606E+02  0.00000000000E+00 0.  1.
         22    1    4    4    0    0  0.28772066090E+01 -0.23964839522E+02 -0.42693037860E+02  0.49043728782E+02  0.00000000000E+00 0.  1.
         22    1    4    4    0    0 -0.20994925972E+01 -0.88837706140E+01 -0.40085462434E+01  0.99698391398E+01  0.00000000000E+00 0.  1.
<mgrwt>
<rscale>  0 0.91837923E+02</rscale>
<asrwt>0</asrwt>
<pdfrwt beam="2">  1        1 0.96427312E-02 0.91837923E+02</pdfrwt>
<pdfrwt beam="1">  1       -1 0.51755600E-02 0.91837923E+02</pdfrwt>
<totfact> 0.95087259E+04</totfact>
</mgrwt>
</event>
<event>
 7    1  0.2787125E-009  0.9200811E+02  0.7818608E-02  0.1298060E+00
          1   -1    0    0  501    0  0.00000000000E+00  0.00000000000E+00  0.22978251778E+03  0.22978251783E+03  0.50400000000E-02 0. -1.
         -1   -1    0    0    0  501 -0.00000000000E+00 -0.00000000000E+00 -0.92103312668E+01  0.92103326458E+01  0.50400000000E-02 0.  1.
         23    2    1    2    0    0 -0.17763568394E-14  0.00000000000E+00  0.22057218651E+03  0.23899285048E+03  0.92008114413E+02 0.  0.
    9000005    2    3    3    0    0  0.14219297593E+02  0.38461251718E+02  0.16436021202E+03  0.16941381352E+03  0.23031736497E+01 0.  0.
         22    1    3    3    0    0 -0.14219297593E+02 -0.38461251718E+02  0.56211974492E+02  0.69579036958E+02  0.00000000000E+00 0. -1.
         22    1    4    4    0    0  0.26457991903E+01  0.50360646475E+01  0.24041579723E+02  0.24705460045E+02  0.00000000000E+00 0. -1.
         22    1    4    4    0    0  0.11573498403E+02  0.33425187070E+02  0.14031863230E+03  0.14470835348E+03  0.00000000000E+00 0. -1.
<mgrwt>
<rscale>  0 0.92008114E+02</rscale>
<asrwt>0</asrwt>
<pdfrwt beam="1">  1        1 0.35351157E-01 0.92008114E+02</pdfrwt>
<pdfrwt beam="2">  1       -1 0.14169741E-02 0.92008114E+02</pdfrwt>
<totfact> 0.11873061E+05</totfact>
</mgrwt>
</event>
<event>
 7    1  0.2787125E-009  0.9119468E+02  0.7818608E-02  0.1299984E+00
         -1   -1    0    0    0  501 -0.00000000000E+00  0.00000000000E+00  0.35782794165E+01  0.35782829659E+01  0.50400000000E-02 0.  1.
          1   -1    0    0  501    0  0.00000000000E+00 -0.00000000000E+00 -0.58103801695E+03  0.58103801697E+03  0.50400000000E-02 0. -1.
         23    2    1    2    0    0  0.00000000000E+00  0.71054273576E-14 -0.57745973754E+03  0.58461629994E+03  0.91194680111E+02 0.  0.
    9000005    2    3    3    0    0 -0.29800994037E+02  0.33995827279E+02 -0.31583043120E+03  0.31910978504E+03  0.61950077910E+01 0.  0.
         22    1    3    3    0    0  0.29800994037E+02 -0.33995827279E+02 -0.26162930634E+03  0.26550651490E+03  0.00000000000E+00 0. -1.
         22    1    4    4    0    0 -0.53803726188E+01  0.43237255786E+01 -0.62721205935E+02  0.63099862808E+02  0.00000000000E+00 0. -1.
         22    1    4    4    0    0 -0.24420621418E+02  0.29672101700E+02 -0.25310922526E+03  0.25600992223E+03  0.00000000000E+00 0. -1.
<mgrwt>
<rscale>  0 0.91194680E+02</rscale>
<asrwt>0</asrwt>
<pdfrwt beam="2">  1        1 0.89390389E-01 0.91194680E+02</pdfrwt>
<pdfrwt beam="1">  1       -1 0.55050526E-03 0.91194680E+02</pdfrwt>
<totfact> 0.14121542E+05</totfact>
</mgrwt>
</event>
<event>
 7    1  0.2787125E-009  0.9414685E+02  0.7818608E-02  0.1293109E+00
          1   -1    0    0  501    0  0.00000000000E+00  0.00000000000E+00  0.41954772660E+02  0.41954772963E+02  0.50400000000E-02 0. -1.
         -1   -1    0    0    0  501 -0.00000000000E+00 -0.00000000000E+00 -0.52816571312E+02  0.52816571553E+02  0.50400000000E-02 0.  1.
         23    2    1    2    0    0  0.00000000000E+00  0.00000000000E+00 -0.10861798652E+02  0.94771344516E+02  0.94146848441E+02 0.  0.
    9000005    2    3    3    0    0  0.26493348807E+02 -0.20602788878E+02 -0.38227899434E+02  0.51466888480E+02  0.78163849764E+01 0.  0.
         22    1    3    3    0    0 -0.26493348807E+02  0.20602788878E+02  0.27366100782E+02  0.43304456036E+02  0.00000000000E+00 0. -1.
         22    1    4    4    0    0  0.13685948677E+02 -0.99122144738E+01 -0.25003463863E+02  0.30178309961E+02  0.00000000000E+00 0.  1.
         22    1    4    4    0    0  0.12807400130E+02 -0.10690574404E+02 -0.13224435572E+02  0.21288578519E+02  0.00000000000E+00 0.  1.
<mgrwt>
<rscale>  0 0.94146848E+02</rscale>
<asrwt>0</asrwt>
<pdfrwt beam="1">  1        1 0.64545804E-02 0.94146848E+02</pdfrwt>
<pdfrwt beam="2">  1       -1 0.81256265E-02 0.94146848E+02</pdfrwt>
<totfact> 0.83406642E+04</totfact>
</mgrwt>
</event>
<event>
 7    1  0.2787125E-009  0.9371668E+02  0.7818608E-02  0.1294093E+00
          1   -1    0    0  501    0  0.00000000000E+00  0.00000000000E+00  0.31282812364E+01  0.31282852964E+01  0.50400000000E-02 0. -1.
         -1   -1    0    0    0  501 -0.00000000000E+00 -0.00000000000E+00 -0.70188779882E+03  0.70188779883E+03  0.50400000000E-02 0.  1.
         23    2    1    2    0    0  0.00000000000E+00  0.00000000000E+00 -0.69875951758E+03  0.70501608413E+03  0.93716676609E+02 0.  0.
    9000005    2    3    3    0    0 -0.17560286762E+02 -0.22581485944E+01 -0.67482795992E+03  0.67524726893E+03  0.15894521223E+02 0.  0.
         22    1    3    3    0    0  0.17560286762E+02  0.22581485944E+01 -0.23931557656E+02  0.29768815195E+02  0.00000000000E+00 0. -1.
         22    1    4    4    0    0 -0.92523428536E+01 -0.78756520961E+01 -0.24373009830E+03  0.24403276944E+03  0.00000000000E+00 0.  1.
         22    1    4    4    0    0 -0.83079439084E+01  0.56175035016E+01 -0.43109786162E+03  0.43121449949E+03  0.00000000000E+00 0.  1.
<mgrwt>
<rscale>  0 0.93716677E+02</rscale>
<asrwt>0</asrwt>
<pdfrwt beam="1">  1        1 0.48127491E-03 0.93716677E+02</pdfrwt>
<pdfrwt beam="2">  1       -1 0.10798261E+00 0.93716677E+02</pdfrwt>
<totfact> 0.34198590E+04</totfact>
</mgrwt>
</event>
<event>
 7    1  0.2787125E-009  0.9158340E+02  0.7818608E-02  0.1299062E+00
          1   -1    0    0  501    0  0.00000000000E+00  0.00000000000E+00  0.14063778826E+03  0.14063778835E+03  0.50400000000E-02 0. -1.
         -1   -1    0    0    0  501 -0.00000000000E+00 -0.00000000000E+00 -0.14909790262E+02  0.14909791114E+02  0.50400000000E-02 0.  1.
         23    2    1    2    0    0  0.00000000000E+00  0.00000000000E+00  0.12572799800E+03  0.15554757946E+03  0.91583404592E+02 0.  0.
    9000005    2    3    3    0    0  0.18639131936E+02 -0.38461539389E+02  0.43279110988E+02  0.62679252136E+02  0.15129439810E+02 0.  0.
         22    1    3    3    0    0 -0.18639131936E+02  0.38461539389E+02  0.82448887010E+02  0.92868327328E+02  0.00000000000E+00 0. -1.
         22    1    4    4    0    0  0.63591152280E+01 -0.20683203068E+02  0.12241858214E+02  0.24861543157E+02  0.00000000000E+00 0. -1.
         22    1    4    4    0    0  0.12280016708E+02 -0.17778336322E+02  0.31037252773E+02  0.37817708979E+02  0.00000000000E+00 0. -1.
<mgrwt>
<rscale>  0 0.91583405E+02</rscale>
<asrwt>0</asrwt>
<pdfrwt beam="1">  1        1 0.21636583E-01 0.91583405E+02</pdfrwt>
<pdfrwt beam="2">  1       -1 0.22938140E-02 0.91583405E+02</pdfrwt>
<totfact> 0.10949557E+05</totfact>
</mgrwt>
</event>
<event>
 7    1  0.2787125E-009  0.9109743E+02  0.7818608E-02  0.1300216E+00
         -1   -1    0    0    0  501 -0.00000000000E+00  0.00000000000E+00  0.45057284283E+01  0.45057312471E+01  0.50400000000E-02 0.  1.
          1   -1    0    0  501    0  0.00000000000E+00 -0.00000000000E+00 -0.46045487184E+03  0.46045487187E+03  0.50400000000E-02 0. -1.
         23    2    1    2    0    0 -0.35527136788E-14  0.00000000000E+00 -0.45594914341E+03  0.46496060311E+03  0.91097426259E+02 0.  0.
    9000005    2    3    3    0    0 -0.26009890886E+02  0.37133129536E+02 -0.22486575195E+03  0.22947192496E+03  0.61134448869E+01 0.  0.
         22    1    3    3    0    0  0.26009890886E+02 -0.37133129536E+02 -0.23108339146E+03  0.23548867816E+03  0.00000000000E+00 0.  1.
         22    1    4    4    0    0 -0.62699898851E+01  0.67169331461E+01 -0.35794949005E+02  0.36955491315E+02  0.00000000000E+00 0. -1.
         22    1    4    4    0    0 -0.19739901001E+02  0.30416196390E+02 -0.18907080295E+03  0.19251643364E+03  0.00000000000E+00 0. -1.
<mgrwt>
<rscale>  0 0.91097426E+02</rscale>
<asrwt>0</asrwt>
<pdfrwt beam="2">  1        1 0.70839174E-01 0.91097426E+02</pdfrwt>
<pdfrwt beam="1">  1       -1 0.69318957E-03 0.91097426E+02</pdfrwt>
<totfact> 0.13811983E+05</totfact>
</mgrwt>
</event>
<event>
 7    1  0.2787125E-009  0.9274731E+02  0.7818608E-02  0.1296332E+00
         -1   -1    0    0    0  501 -0.00000000000E+00  0.00000000000E+00  0.52356929399E+01  0.52356953657E+01  0.50400000000E-02 0.  1.
          1   -1    0    0  501    0  0.00000000000E+00 -0.00000000000E+00 -0.41074134622E+03  0.41074134625E+03  0.50400000000E-02 0. -1.
         23    2    1    2    0    0  0.00000000000E+00  0.35527136788E-14 -0.40550565328E+03  0.41597704162E+03  0.92747314300E+02 0.  0.
    9000005    2    3    3    0    0  0.21301586855E+02  0.30594211533E+02 -0.32416029659E+03  0.32649614736E+03  0.11404953924E+02 0.  0.
         22    1    3    3    0    0 -0.21301586855E+02 -0.30594211533E+02 -0.81345356693E+02  0.89480894259E+02  0.00000000000E+00 0.  1.
         22    1    4    4    0    0  0.69461406867E+01  0.17224740940E+02 -0.12502610397E+03  0.12639805079E+03  0.00000000000E+00 0. -1.
         22    1    4    4    0    0  0.14355446168E+02  0.13369470593E+02 -0.19913419262E+03  0.20009809656E+03  0.00000000000E+00 0. -1.
<mgrwt>
<rscale>  0 0.92747314E+02</rscale>
<asrwt>0</asrwt>
<pdfrwt beam="2">  1        1 0.63190951E-01 0.92747314E+02</pdfrwt>
<pdfrwt beam="1">  1       -1 0.80549173E-03 0.92747314E+02</pdfrwt>
<totfact> 0.12945853E+05</totfact>
</mgrwt>
</event>
<event>
 7    1  0.2787125E-009  0.9092938E+02  0.7818608E-02  0.1300617E+00
         -1   -1    0    0    0  501 -0.00000000000E+00  0.00000000000E+00  0.67880534098E+01  0.67880552808E+01  0.50400000000E-02 0.  1.
          1   -1    0    0  501    0  0.00000000000E+00 -0.00000000000E+00 -0.30451110109E+03  0.30451110114E+03  0.50400000000E-02 0. -1.
         23    2    1    2    0    0  0.00000000000E+00 -0.17763568394E-14 -0.29772304768E+03  0.31129915642E+03  0.90929377339E+02 0.  0.
    9000005    2    3    3    0    0 -0.42056004519E+02  0.14966983476E+02 -0.15172653302E+03  0.15863055976E+03  0.12247267350E+02 0.  0.
         22    1    3    3    0    0  0.42056004519E+02 -0.14966983476E+02 -0.14599651467E+03  0.15266859666E+03  0.00000000000E+00 0.  1.
         22    1    4    4    0    0 -0.16293642725E+02  0.61235039224E+01 -0.80802482191E+02  0.82656041654E+02  0.00000000000E+00 0.  1.
         22    1    4    4    0    0 -0.25762361794E+02  0.88434795531E+01 -0.70924050827E+02  0.75974518106E+02  0.00000000000E+00 0.  1.
<mgrwt>
<rscale>  0 0.90929377E+02</rscale>
<asrwt>0</asrwt>
<pdfrwt beam="2">  1        1 0.46847851E-01 0.90929377E+02</pdfrwt>
<pdfrwt beam="1">  1       -1 0.10443163E-02 0.90929377E+02</pdfrwt>
<totfact> 0.12941975E+05</totfact>
</mgrwt>
</event>
<event>
 7    1  0.2787125E-009  0.9931352E+02  0.7818608E-02  0.1281746E+00
         -1   -1    0    0    0  501 -0.00000000000E+00  0.00000000000E+00  0.20681656409E+02  0.20681657023E+02  0.50400000000E-02 0.  1.
          1   -1    0    0  501    0  0.00000000000E+00 -0.00000000000E+00 -0.11922612619E+03  0.11922612629E+03  0.50400000000E-02 0. -1.
         23    2    1    2    0    0  0.71054273576E-14  0.00000000000E+00 -0.98544469778E+02  0.13990778332E+03  0.99313520270E+02 0.  0.
    9000005    2    3    3    0    0 -0.40655561770E+02 -0.21573887460E+02 -0.26411797167E+02  0.54342429457E+02  0.11713636786E+02 0.  0.
         22    1    3    3    0    0  0.40655561770E+02  0.21573887460E+02 -0.72132672611E+02  0.85565353858E+02  0.00000000000E+00 0.  1.
         22    1    4    4    0    0 -0.30389871458E+02 -0.21294238507E+02 -0.19091681140E+02  0.41731057614E+02  0.00000000000E+00 0.  1.
         22    1    4    4    0    0 -0.10265690312E+02 -0.27964895275E+00 -0.73201160271E+01  0.12611371843E+02  0.00000000000E+00 0.  1.
<mgrwt>
<rscale>  0 0.99313520E+02</rscale>
<asrwt>0</asrwt>
<pdfrwt beam="2">  1        1 0.18342481E-01 0.99313520E+02</pdfrwt>
<pdfrwt beam="1">  1       -1 0.31817934E-02 0.99313520E+02</pdfrwt>
<totfact> 0.85225198E+04</totfact>
</mgrwt>
</event>
<event>
 7    1  0.2787125E-009  0.9052385E+02  0.7818608E-02  0.1301588E+00
          1   -1    0    0  501    0  0.00000000000E+00  0.00000000000E+00  0.67107795682E+02  0.67107795871E+02  0.50400000000E-02 0. -1.
         -1   -1    0    0    0  501 -0.00000000000E+00 -0.00000000000E+00 -0.30527627808E+02  0.30527628224E+02  0.50400000000E-02 0.  1.
         23    2    1    2    0    0 -0.35527136788E-14  0.71054273576E-14  0.36580167874E+02  0.97635424096E+02  0.90523849656E+02 0.  0.
    9000005    2    3    3    0    0 -0.13110311414E+02  0.42363069427E+02  0.23948550982E+02  0.51526122843E+02  0.10719063599E+02 0.  0.
         22    1    3    3    0    0  0.13110311414E+02 -0.42363069427E+02  0.12631616892E+02  0.46109301252E+02  0.00000000000E+00 0. -1.
         22    1    4    4    0    0 -0.98973575002E+01  0.29638062555E+02  0.11101337012E+02  0.33160399891E+02  0.00000000000E+00 0.  1.
         22    1    4    4    0    0 -0.32129539136E+01  0.12725006873E+02  0.12847213970E+02  0.18365722952E+02  0.00000000000E+00 0.  1.
<mgrwt>
<rscale>  0 0.90523850E+02</rscale>
<asrwt>0</asrwt>
<pdfrwt beam="1">  1        1 0.10324276E-01 0.90523850E+02</pdfrwt>
<pdfrwt beam="2">  1       -1 0.46965582E-02 0.90523850E+02</pdfrwt>
<totfact> 0.99991924E+04</totfact>
</mgrwt>
</event>
<event>
 7    1  0.2787125E-009  0.9149362E+02  0.7818608E-02  0.1299274E+00
         -1   -1    0    0    0  501 -0.00000000000E+00  0.00000000000E+00  0.10054112196E+03  0.10054112209E+03  0.50400000000E-02 0.  1.
          1   -1    0    0  501    0  0.00000000000E+00 -0.00000000000E+00 -0.20815070261E+02  0.20815070871E+02  0.50400000000E-02 0. -1.
         23    2    1    2    0    0  0.00000000000E+00  0.17763568394E-14  0.79726051699E+02  0.12135619296E+03  0.91493618627E+02 0.  0.
    9000005    2    3    3    0    0  0.40777893222E+02  0.97694829330E+01  0.17725907990E+02  0.46507698033E+02  0.95120339479E+01 0.  0.
         22    1    3    3    0    0 -0.40777893222E+02 -0.97694829330E+01  0.62000143709E+02  0.74848494924E+02  0.00000000000E+00 0. -1.
         22    1    4    4    0    0  0.34854828389E+02  0.11685386202E+02  0.14794495898E+02  0.39626814426E+02  0.00000000000E+00 0.  1.
         22    1    4    4    0    0  0.59230648335E+01 -0.19159032686E+01  0.29314120918E+01  0.68808836066E+01  0.00000000000E+00 0.  1.
<mgrwt>
<rscale>  0 0.91493619E+02</rscale>
<asrwt>0</asrwt>
<pdfrwt beam="2">  1        1 0.32023185E-02 0.91493619E+02</pdfrwt>
<pdfrwt beam="1">  1       -1 0.15467865E-01 0.91493619E+02</pdfrwt>
<totfact> 0.80565176E+04</totfact>
</mgrwt>
</event>
<event>
 7    1  0.2787125E-009  0.9284332E+02  0.7818608E-02  0.1296109E+00
         -1   -1    0    0    0  501 -0.00000000000E+00  0.00000000000E+00  0.75038217133E+02  0.75038217302E+02  0.50400000000E-02 0.  1.
          1   -1    0    0  501    0  0.00000000000E+00 -0.00000000000E+00 -0.28718309093E+02  0.28718309535E+02  0.50400000000E-02 0. -1.
         23    2    1    2    0    0  0.00000000000E+00  0.35527136788E-14  0.46319908040E+02  0.10375652684E+03  0.92843324910E+02 0.  0.
    9000005    2    3    3    0    0 -0.30910201644E+02  0.31346057480E+02  0.87602563938E+01  0.45888199428E+02  0.95377601881E+01 0.  0.
         22    1    3    3    0    0  0.30910201644E+02 -0.31346057480E+02  0.37559651646E+02  0.57868327409E+02  0.00000000000E+00 0.  1.
         22    1    4    4    0    0 -0.16800792100E+02  0.17284250857E+02  0.96117873042E+01  0.25949920964E+02  0.00000000000E+00 0.  1.
         22    1    4    4    0    0 -0.14109409545E+02  0.14061806623E+02 -0.85153091038E+00  0.19938278464E+02  0.00000000000E+00 0.  1.
<mgrwt>
<rscale>  0 0.92843325E+02</rscale>
<asrwt>0</asrwt>
<pdfrwt beam="2">  1        1 0.44182015E-02 0.92843325E+02</pdfrwt>
<pdfrwt beam="1">  1       -1 0.11544341E-01 0.92843325E+02</pdfrwt>
<totfact> 0.81687742E+04</totfact>
</mgrwt>
</event>
<event>
 7    1  0.2787125E-009  0.8758752E+02  0.7818608E-02  0.1308801E+00
         -1   -1    0    0    0  501 -0.00000000000E+00  0.00000000000E+00  0.14636697541E+02  0.14636698409E+02  0.50400000000E-02 0.  1.
          1   -1    0    0  501    0  0.00000000000E+00 -0.00000000000E+00 -0.13103320535E+03  0.13103320545E+03  0.50400000000E-02 0. -1.
         23    2    1    2    0    0  0.00000000000E+00  0.00000000000E+00 -0.11639650781E+03  0.14566990386E+03  0.87587521140E+02 0.  0.
    9000005    2    3    3    0    0 -0.85889188978E+01 -0.22202845864E+02 -0.11879637278E+03  0.12174303101E+03  0.11918536860E+02 0.  0.
         22    1    3    3    0    0  0.85889188978E+01  0.22202845864E+02  0.23998649742E+01  0.23926872846E+02  0.00000000000E+00 0.  1.
         22    1    4    4    0    0 -0.16889320968E+01 -0.90077835302E+01 -0.22382967330E+02  0.24186564085E+02  0.00000000000E+00 0.  1.
         22    1    4    4    0    0 -0.68999868010E+01 -0.13195062334E+02 -0.96413405454E+02  0.97556466926E+02  0.00000000000E+00 0.  1.
<mgrwt>
<rscale>  0 0.87587521E+02</rscale>
<asrwt>0</asrwt>
<pdfrwt beam="2">  1        1 0.20158954E-01 0.87587521E+02</pdfrwt>
<pdfrwt beam="1">  1       -1 0.22517998E-02 0.87587521E+02</pdfrwt>
<totfact> 0.12194250E+05</totfact>
</mgrwt>
</event>
<event>
 7    1  0.2787125E-009  0.9113065E+02  0.7818608E-02  0.1300137E+00
          1   -1    0    0  501    0  0.00000000000E+00  0.00000000000E+00  0.14851721830E+03  0.14851721839E+03  0.50400000000E-02 0. -1.
         -1   -1    0    0    0  501 -0.00000000000E+00 -0.00000000000E+00 -0.13979516406E+02  0.13979517314E+02  0.50400000000E-02 0.  1.
         23    2    1    2    0    0  0.00000000000E+00  0.00000000000E+00  0.13453770190E+03  0.16249673570E+03  0.91130652815E+02 0.  0.
    9000005    2    3    3    0    0 -0.21212538131E+02  0.35933222482E+02  0.38192257545E+02  0.57503341152E+02  0.10335253040E+02 0.  0.
         22    1    3    3    0    0  0.21212538131E+02 -0.35933222482E+02  0.96345444354E+02  0.10499339455E+03  0.00000000000E+00 0. -1.
         22    1    4    4    0    0 -0.17484960712E+02  0.32202513261E+02  0.37044950983E+02  0.52106181061E+02  0.00000000000E+00 0.  1.
         22    1    4    4    0    0 -0.37275774191E+01  0.37307092205E+01  0.11473065623E+01  0.53971600913E+01  0.00000000000E+00 0.  1.
<mgrwt>
<rscale>  0 0.91130653E+02</rscale>
<asrwt>0</asrwt>
<pdfrwt beam="1">  1        1 0.22848805E-01 0.91130653E+02</pdfrwt>
<pdfrwt beam="2">  1       -1 0.21506948E-02 0.91130653E+02</pdfrwt>
<totfact> 0.11208158E+05</totfact>
</mgrwt>
</event>
<event>
 7    1  0.2787125E-009  0.9236510E+02  0.7818608E-02  0.1297223E+00
          1   -1    0    0  501    0  0.00000000000E+00  0.00000000000E+00  0.14246433685E+03  0.14246433694E+03  0.50400000000E-02 0. -1.
         -1   -1    0    0    0  501 -0.00000000000E+00 -0.00000000000E+00 -0.14970959839E+02  0.14970960687E+02  0.50400000000E-02 0.  1.
         23    2    1    2    0    0  0.00000000000E+00  0.00000000000E+00  0.12749337701E+03  0.15743529763E+03  0.92365100320E+02 0.  0.
    9000005    2    3    3    0    0 -0.42941743723E+02 -0.47213671751E+01  0.89279093355E+02  0.99758472667E+02  0.10710354647E+02 0.  0.
         22    1    3    3    0    0  0.42941743723E+02  0.47213671751E+01  0.38214283655E+02  0.57676824958E+02  0.00000000000E+00 0.  1.
         22    1    4    4    0    0 -0.91181271218E+01  0.48761262937E+00  0.10803453958E+02  0.14145410058E+02  0.00000000000E+00 0.  1.
         22    1    4    4    0    0 -0.33823616601E+02 -0.52089798045E+01  0.78475639397E+02  0.85613062609E+02  0.00000000000E+00 0.  1.
<mgrwt>
<rscale>  0 0.92365100E+02</rscale>
<asrwt>0</asrwt>
<pdfrwt beam="1">  1        1 0.21917590E-01 0.92365100E+02</pdfrwt>
<pdfrwt beam="2">  1       -1 0.23032247E-02 0.92365100E+02</pdfrwt>
<totfact> 0.10725736E+05</totfact>
</mgrwt>
</event>
<event>
 7    1  0.2787125E-009  0.9904608E+02  0.7818608E-02  0.1282315E+00
         -1   -1    0    0    0  501 -0.00000000000E+00  0.00000000000E+00  0.83938236386E+01  0.83938251518E+01  0.50400000000E-02 0.  1.
          1   -1    0    0  501    0  0.00000000000E+00 -0.00000000000E+00 -0.29218285081E+03  0.29218285086E+03  0.50400000000E-02 0. -1.
         23    2    1    2    0    0 -0.71054273576E-14  0.17763568394E-14 -0.28378902717E+03  0.30057667601E+03  0.99046081273E+02 0.  0.
    9000005    2    3    3    0    0  0.45687590572E+02 -0.14187543964E+02 -0.11418037481E+03  0.12435029520E+03  0.11713052060E+02 0.  0.
         22    1    3    3    0    0 -0.45687590572E+02  0.14187543964E+02 -0.16960865236E+03  0.17622638081E+03  0.00000000000E+00 0. -1.
         22    1    4    4    0    0  0.42336007577E+02 -0.11030973219E+02 -0.10881382761E+03  0.11727944827E+03  0.00000000000E+00 0. -1.
         22    1    4    4    0    0  0.33515829949E+01 -0.31565707441E+01 -0.53665472000E+01  0.70708469284E+01  0.00000000000E+00 0. -1.
<mgrwt>
<rscale>  0 0.99046081E+02</rscale>
<asrwt>0</asrwt>
<pdfrwt beam="2">  1        1 0.44951200E-01 0.99046081E+02</pdfrwt>
<pdfrwt beam="1">  1       -1 0.12913578E-02 0.99046081E+02</pdfrwt>
<totfact> 0.10212717E+05</totfact>
</mgrwt>
</event>
<event>
 7    1  0.2787125E-009  0.9033311E+02  0.7818608E-02  0.1302047E+00
          1   -1    0    0  501    0  0.00000000000E+00  0.00000000000E+00  0.33733657468E+01  0.33733695118E+01  0.50400000000E-02 0. -1.
         -1   -1    0    0    0  501 -0.00000000000E+00 -0.00000000000E+00 -0.60474214345E+03  0.60474214347E+03  0.50400000000E-02 0.  1.
         23    2    1    2    0    0  0.00000000000E+00  0.00000000000E+00 -0.60136877771E+03  0.60811551298E+03  0.90333107630E+02 0.  0.
    9000005    2    3    3    0    0  0.36973758278E+02  0.26806210420E+01 -0.46973528136E+03  0.47136163959E+03  0.12502647130E+02 0.  0.
         22    1    3    3    0    0 -0.36973758278E+02 -0.26806210420E+01 -0.13163349634E+03  0.13675387340E+03  0.00000000000E+00 0. -1.
         22    1    4    4    0    0  0.76411481444E+01  0.30446858777E+01 -0.57687512284E+02  0.58270973310E+02  0.00000000000E+00 0.  1.
         22    1    4    4    0    0  0.29332610134E+02 -0.36406483574E+00 -0.41204776908E+03  0.41309066628E+03  0.00000000000E+00 0.  1.
<mgrwt>
<rscale>  0 0.90333108E+02</rscale>
<asrwt>0</asrwt>
<pdfrwt beam="1">  1        1 0.51898012E-03 0.90333108E+02</pdfrwt>
<pdfrwt beam="2">  1       -1 0.93037167E-01 0.90333108E+02</pdfrwt>
<totfact> 0.42397567E+04</totfact>
</mgrwt>
</event>
<event>
 7    1  0.2787125E-009  0.9401047E+02  0.7818608E-02  0.1293420E+00
          1   -1    0    0  501    0  0.00000000000E+00  0.00000000000E+00  0.37037011509E+03  0.37037011513E+03  0.50400000000E-02 0. -1.
         -1   -1    0    0    0  501 -0.00000000000E+00 -0.00000000000E+00 -0.59656313698E+01  0.59656334988E+01  0.50400000000E-02 0.  1.
         23    2    1    2    0    0  0.00000000000E+00  0.00000000000E+00  0.36440448372E+03  0.37633574863E+03  0.94010467164E+02 0.  0.
    9000005    2    3    3    0    0  0.33417424816E+02 -0.31602112181E+02  0.21654042814E+03  0.22148357166E+03  0.70567502144E+01 0.  0.
         22    1    3    3    0    0 -0.33417424816E+02  0.31602112181E+02  0.14786405559E+03  0.15485217696E+03  0.00000000000E+00 0.  1.
         22    1    4    4    0    0  0.12721754870E+02 -0.15766975527E+02  0.10535695386E+03  0.10728713013E+03  0.00000000000E+00 0.  1.
         22    1    4    4    0    0  0.20695669946E+02 -0.15835136654E+02  0.11118347428E+03  0.11419644154E+03  0.00000000000E+00 0.  1.
<mgrwt>
<rscale>  0 0.94010467E+02</rscale>
<asrwt>0</asrwt>
<pdfrwt beam="1">  1        1 0.56980048E-01 0.94010467E+02</pdfrwt>
<pdfrwt beam="2">  1       -1 0.91778912E-03 0.94010467E+02</pdfrwt>
<totfact> 0.12272737E+05</totfact>
</mgrwt>
</event>
<event>
 7    1  0.2787125E-009  0.9299905E+02  0.7818608E-02  0.1295747E+00
          1   -1    0    0  501    0  0.00000000000E+00  0.00000000000E+00  0.16250210430E+03  0.16250210438E+03  0.50400000000E-02 0. -1.
         -1   -1    0    0    0  501 -0.00000000000E+00 -0.00000000000E+00 -0.13305709120E+02  0.13305710074E+02  0.50400000000E-02 0.  1.
         23    2    1    2    0    0  0.35527136788E-14  0.00000000000E+00  0.14919639518E+03  0.17580781445E+03  0.92999049929E+02 0.  0.
    9000005    2    3    3    0    0  0.18433591897E+02 -0.41566081014E+01  0.15454262588E+03  0.15616966576E+03  0.12184686689E+02 0.  0.
         22    1    3    3    0    0 -0.18433591897E+02  0.41566081014E+01 -0.53462307022E+01  0.19638148687E+02  0.00000000000E+00 0.  1.
         22    1    4    4    0    0  0.14300099583E+02  0.26112188228E+01  0.10289499815E+03  0.10391675493E+03  0.00000000000E+00 0. -1.
         22    1    4    4    0    0  0.41334923139E+01 -0.67678269243E+01  0.51647627731E+02  0.52252910830E+02  0.00000000000E+00 0. -1.
<mgrwt>
<rscale>  0 0.92999050E+02</rscale>
<asrwt>0</asrwt>
<pdfrwt beam="1">  1        1 0.25000325E-01 0.92999050E+02</pdfrwt>
<pdfrwt beam="2">  1       -1 0.20470322E-02 0.92999050E+02</pdfrwt>
<totfact> 0.10789173E+05</totfact>
</mgrwt>
</event>
<event>
 7    1  0.2787125E-009  0.9179155E+02  0.7818608E-02  0.1298570E+00
         -1   -1    0    0    0  501 -0.00000000000E+00  0.00000000000E+00  0.52636533722E+02  0.52636533963E+02  0.50400000000E-02 0. -1.
          1   -1    0    0  501    0  0.00000000000E+00 -0.00000000000E+00 -0.40018256311E+02  0.40018256628E+02  0.50400000000E-02 0.  1.
         23    2    1    2    0    0  0.00000000000E+00  0.00000000000E+00  0.12618277411E+02  0.92654790591E+02  0.91791553504E+02 0.  0.
    9000005    2    3    3    0    0  0.37556576924E+01 -0.18270271205E+02  0.47393368411E+02  0.53193230451E+02  0.15345377868E+02 0.  0.
         22    1    3    3    0    0 -0.37556576924E+01  0.18270271205E+02 -0.34775091000E+02  0.39461560140E+02  0.00000000000E+00 0.  1.
         22    1    4    4    0    0  0.44771127750E+01 -0.81888999722E+01  0.38861481956E+02  0.39966453450E+02  0.00000000000E+00 0. -1.
         22    1    4    4    0    0 -0.72145508268E+00 -0.10081371233E+02  0.85318864552E+01  0.13226777002E+02  0.00000000000E+00 0. -1.
<mgrwt>
<rscale>  0 0.91791554E+02</rscale>
<asrwt>0</asrwt>
<pdfrwt beam="2">  1        1 0.61566549E-02 0.91791554E+02</pdfrwt>
<pdfrwt beam="1">  1       -1 0.80979283E-02 0.91791554E+02</pdfrwt>
<totfact> 0.88962662E+04</totfact>
</mgrwt>
</event>
<event>
 7    1  0.2787125E-009  0.9446440E+02  0.7818608E-02  0.1292387E+00
         -1   -1    0    0    0  501 -0.00000000000E+00  0.00000000000E+00  0.41521998596E+02  0.41521998902E+02  0.50400000000E-02 0.  1.
          1   -1    0    0  501    0  0.00000000000E+00 -0.00000000000E+00 -0.53727679896E+02  0.53727680132E+02  0.50400000000E-02 0. -1.
         23    2    1    2    0    0  0.17763568394E-14  0.88817841970E-15 -0.12205681300E+02  0.95249679034E+02  0.94464399115E+02 0.  0.
    9000005    2    3    3    0    0 -0.84507953549E+01 -0.60841895706E+01  0.38952378639E+02  0.43042587546E+02  0.15064635282E+02 0.  0.
         22    1    3    3    0    0  0.84507953549E+01  0.60841895706E+01 -0.51158059939E+02  0.52207091488E+02  0.00000000000E+00 0. -1.
         22    1    4    4    0    0 -0.19401382457E+00 -0.93552229461E+01  0.18036102854E+02  0.20318928217E+02  0.00000000000E+00 0.  1.
         22    1    4    4    0    0 -0.82567815303E+01  0.32710333755E+01  0.20916275785E+02  0.22723659329E+02  0.00000000000E+00 0.  1.
<mgrwt>
<rscale>  0 0.94464399E+02</rscale>
<asrwt>0</asrwt>
<pdfrwt beam="2">  1        1 0.82657970E-02 0.94464399E+02</pdfrwt>
<pdfrwt beam="1">  1       -1 0.63879998E-02 0.94464399E+02</pdfrwt>
<totfact> 0.85842056E+04</totfact>
</mgrwt>
</event>
<event>
 7    1  0.2787125E-009  0.9178532E+02  0.7818608E-02  0.1298585E+00
          1   -1    0    0  501    0  0.00000000000E+00  0.00000000000E+00  0.29366202350E+03  0.29366202355E+03  0.50400000000E-02 0. -1.
         -1   -1    0    0    0  501 -0.00000000000E+00 -0.00000000000E+00 -0.71719729133E+01  0.71719746842E+01  0.50400000000E-02 0.  1.
         23    2    1    2    0    0  0.00000000000E+00  0.00000000000E+00  0.28649005059E+03  0.30083399823E+03  0.91785322380E+02 0.  0.
    9000005    2    3    3    0    0  0.34446620181E+02  0.26072289223E+02  0.18318012098E+03  0.18885509190E+03  0.15651041716E+02 0.  0.
         22    1    3    3    0    0 -0.34446620181E+02 -0.26072289223E+02  0.10330992961E+03  0.11197890634E+03  0.00000000000E+00 0. -1.
         22    1    4    4    0    0  0.91597277212E+01  0.85956245843E+01  0.28425536409E+02  0.31077266515E+02  0.00000000000E+00 0. -1.
         22    1    4    4    0    0  0.25286892460E+02  0.17476664639E+02  0.15475458457E+03  0.15777782538E+03  0.00000000000E+00 0. -1.
<mgrwt>
<rscale>  0 0.91785322E+02</rscale>
<asrwt>0</asrwt>
<pdfrwt beam="1">  1        1 0.45178755E-01 0.91785322E+02</pdfrwt>
<pdfrwt beam="2">  1       -1 0.11033810E-02 0.91785322E+02</pdfrwt>
<totfact> 0.12535549E+05</totfact>
</mgrwt>
</event>
<event>
 7    1  0.2787125E-009  0.1014880E+03  0.7818608E-02  0.1277198E+00
          1   -1    0    0  501    0  0.00000000000E+00  0.00000000000E+00  0.92393168480E+03  0.92393168482E+03  0.50400000000E-02 0. -1.
         -1   -1    0    0    0  501 -0.00000000000E+00 -0.00000000000E+00 -0.27869518924E+01  0.27869564497E+01  0.50400000000E-02 0.  1.
         23    2    1    2    0    0 -0.71054273576E-14  0.00000000000E+00  0.92114473291E+03  0.92671864127E+03  0.10148803428E+03 0.  0.
    9000005    2    3    3    0    0  0.42985531306E+02  0.20128402753E+01  0.69937825347E+03  0.70081561155E+03  0.12679611592E+02 0.  0.
         22    1    3    3    0    0 -0.42985531306E+02 -0.20128402753E+01  0.22176647944E+03  0.22590302971E+03  0.00000000000E+00 0. -1.
         22    1    4    4    0    0  0.35867052802E+02  0.20291699021E+00  0.63650503770E+03  0.63751482310E+03  0.00000000000E+00 0.  1.
         22    1    4    4    0    0  0.71184785042E+01  0.18099232850E+01  0.62873215765E+02  0.63300788456E+02  0.00000000000E+00 0.  1.
<mgrwt>
<rscale>  0 0.10148803E+03</rscale>
<asrwt>0</asrwt>
<pdfrwt beam="1">  1        1 0.14214344E+00 0.10148803E+03</pdfrwt>
<pdfrwt beam="2">  1       -1 0.42876186E-03 0.10148803E+03</pdfrwt>
<totfact> 0.10419420E+05</totfact>
</mgrwt>
</event>
<event>
 6    1  0.2787125E-009  0.1846240E+03  0.7818608E-02  0.1163401E+00
         -1   -1    0    0    0  501 -0.00000000000E+00  0.00000000000E+00  0.18979812076E+03  0.18979812083E+03  0.50400000000E-02 0.  1.
          1   -1    0    0  501    0  0.00000000000E+00 -0.00000000000E+00 -0.44897736940E+02  0.44897737223E+02  0.50400000000E-02 0. -1.
    9000005    2    1    2    0    0 -0.76278143845E+02  0.28458762895E+02  0.18805332026E+02  0.84601825854E+02  0.13250358914E+02 0.  0.
         22    1    1    2    0    0  0.76278143845E+02 -0.28458762895E+02  0.12609505180E+03  0.15009403220E+03  0.00000000000E+00 0.  1.
         22    1    3    3    0    0 -0.46268644895E+02  0.10775135909E+02  0.83557011038E+01  0.48235969931E+02  0.00000000000E+00 0.  1.
         22    1    3    3    0    0 -0.30009498950E+02  0.17683626986E+02  0.10449630922E+02  0.36365855924E+02  0.00000000000E+00 0.  1.
<mgrwt>
<rscale>  0 0.18462401E+03</rscale>
<asrwt>0</asrwt>
<pdfrwt beam="2">  1        1 0.69073443E-02 0.18462401E+03</pdfrwt>
<pdfrwt beam="1">  1       -1 0.29199711E-01 0.18462401E+03</pdfrwt>
<totfact> 0.10960317E+04</totfact>
</mgrwt>
</event>
<event>
 7    1  0.2787125E-009  0.8303246E+02  0.7818608E-02  0.1320660E+00
         -1   -1    0    0    0  501 -0.00000000000E+00  0.00000000000E+00  0.20853157925E+02  0.20853158534E+02  0.50400000000E-02 0.  1.
          1   -1    0    0  501    0  0.00000000000E+00 -0.00000000000E+00 -0.82654021765E+02  0.82654021919E+02  0.50400000000E-02 0. -1.
         23    2    1    2    0    0  0.00000000000E+00  0.00000000000E+00 -0.61800863840E+02  0.10350718045E+03  0.83032461325E+02 0.  0.
    9000005    2    3    3    0    0 -0.36112642608E+02  0.72345037119E+01 -0.10218562045E+02  0.40125835731E+02  0.12214855005E+02 0.  0.
         22    1    3    3    0    0  0.36112642608E+02 -0.72345037119E+01 -0.51582301796E+02  0.63381344721E+02  0.00000000000E+00 0. -1.
         22    1    4    4    0    0 -0.26042317196E+01 -0.22600006428E+01  0.90518996472E+00  0.35649676894E+01  0.00000000000E+00 0. -1.
         22    1    4    4    0    0 -0.33508410888E+02  0.94945043546E+01 -0.11123752009E+02  0.36560868042E+02  0.00000000000E+00 0. -1.
<mgrwt>
<rscale>  0 0.83032461E+02</rscale>
<asrwt>0</asrwt>
<pdfrwt beam="2">  1        1 0.12716003E-01 0.83032461E+02</pdfrwt>
<pdfrwt beam="1">  1       -1 0.32081782E-02 0.83032461E+02</pdfrwt>
<totfact> 0.13064967E+05</totfact>
</mgrwt>
</event>
<event>
 7    1  0.2787125E-009  0.9280095E+02  0.7818608E-02  0.1296207E+00
          1   -1    0    0  501    0  0.00000000000E+00  0.00000000000E+00  0.63353549552E+03  0.63353549554E+03  0.50400000000E-02 0. -1.
         -1   -1    0    0    0  501 -0.00000000000E+00 -0.00000000000E+00 -0.33983934872E+01  0.33983972245E+01  0.50400000000E-02 0.  1.
         23    2    1    2    0    0 -0.17763568394E-14  0.00000000000E+00  0.63013710203E+03  0.63693389276E+03  0.92800950393E+02 0.  0.
    9000005    2    3    3    0    0 -0.11865244458E+02 -0.34091425223E+02  0.51255211812E+03  0.51393292634E+03  0.10694376392E+02 0.  0.
         22    1    3    3    0    0  0.11865244458E+02  0.34091425223E+02  0.11758498391E+03  0.12300096642E+03  0.00000000000E+00 0.  1.
         22    1    4    4    0    0 -0.11338664945E+02 -0.19857756502E+02  0.27201207017E+03  0.27297154088E+03  0.00000000000E+00 0. -1.
         22    1    4    4    0    0 -0.52657951289E+00 -0.14233668722E+02  0.24054004795E+03  0.24096138546E+03  0.00000000000E+00 0. -1.
<mgrwt>
<rscale>  0 0.92800950E+02</rscale>
<asrwt>0</asrwt>
<pdfrwt beam="1">  1        1 0.97467014E-01 0.92800950E+02</pdfrwt>
<pdfrwt beam="2">  1       -1 0.52282998E-03 0.92800950E+02</pdfrwt>
<totfact> 0.13547816E+05</totfact>
</mgrwt>
</event>
<event>
 7    1  0.2787125E-009  0.9113222E+02  0.7818608E-02  0.1300133E+00
          1   -1    0    0  501    0  0.00000000000E+00  0.00000000000E+00  0.26776401967E+01  0.26776449400E+01  0.50400000000E-02 0. -1.
         -1   -1    0    0    0  501 -0.00000000000E+00 -0.00000000000E+00 -0.77540989257E+03  0.77540989259E+03  0.50400000000E-02 0.  1.
         23    2    1    2    0    0  0.00000000000E+00 -0.35527136788E-14 -0.77273225238E+03  0.77808753753E+03  0.91132223698E+02 0.  0.
    9000005    2    3    3    0    0 -0.28011820853E+02 -0.26810580983E+02 -0.58917773651E+03  0.59048228799E+03  0.59546511047E+01 0.  0.
         22    1    3    3    0    0  0.28011820853E+02  0.26810580983E+02 -0.18355451587E+03  0.18760524954E+03  0.00000000000E+00 0. -1.
         22    1    4    4    0    0 -0.49076692190E+00 -0.22533350861E+01 -0.29003838960E+02  0.29095378423E+02  0.00000000000E+00 0.  1.
         22    1    4    4    0    0 -0.27521053932E+02 -0.24557245896E+02 -0.56017389755E+03  0.56138690956E+03  0.00000000000E+00 0.  1.
<mgrwt>
<rscale>  0 0.91132224E+02</rscale>
<asrwt>0</asrwt>
<pdfrwt beam="1">  1        1 0.41194563E-03 0.91132224E+02</pdfrwt>
<pdfrwt beam="2">  1       -1 0.11929365E+00 0.91132224E+02</pdfrwt>
<totfact> 0.33683151E+04</totfact>
</mgrwt>
</event>
<event>
 7    1  0.3618791E-009  0.9065650E+02  0.7818608E-02  0.1301270E+00
         -1   -1    0    0    0  501 -0.00000000000E+00  0.00000000000E+00  0.26224004860E+03  0.26224004864E+03  0.50400000000E-02 0.  1.
          1   -1    0    0  501    0  0.00000000000E+00 -0.00000000000E+00 -0.78349974478E+01  0.78349990688E+01  0.50400000000E-02 0. -1.
         23    2    1    2    0    0  0.00000000000E+00  0.00000000000E+00  0.25440505115E+03  0.27007504771E+03  0.90656501960E+02 0.  0.
    9000005    2    3    3    0    0  0.13395865981E+02  0.24615121397E+02  0.23245534047E+03  0.23447809243E+03  0.12614954976E+02 0.  0.
         22    1    3    3    0    0 -0.13395865981E+02 -0.24615121397E+02  0.21949710680E+02  0.35596955286E+02  0.00000000000E+00 0. -1.
         22    1    4    4    0    0  0.14410931379E+01  0.12641555683E+02  0.13156594580E+03  0.13217974041E+03  0.00000000000E+00 0. -1.
         22    1    4    4    0    0  0.11954772843E+02  0.11973565714E+02  0.10088939467E+03  0.10229835202E+03  0.00000000000E+00 0. -1.
<mgrwt>
<rscale>  0 0.90656502E+02</rscale>
<asrwt>0</asrwt>
<pdfrwt beam="2">  1        1 0.12053844E-02 0.90656502E+02</pdfrwt>
<pdfrwt beam="1">  1       -1 0.40344620E-01 0.90656502E+02</pdfrwt>
<totfact> 0.64662211E+04</totfact>
</mgrwt>
</event>
<event>
 7    1  0.2787125E-009  0.9123916E+02  0.7818608E-02  0.1299878E+00
          1   -1    0    0  501    0  0.00000000000E+00  0.00000000000E+00  0.41163762344E+03  0.41163762347E+03  0.50400000000E-02 0. -1.
         -1   -1    0    0    0  501 -0.00000000000E+00 -0.00000000000E+00 -0.50557708037E+01  0.50557733159E+01  0.50400000000E-02 0.  1.
         23    2    1    2    0    0 -0.17763568394E-14  0.00000000000E+00  0.40658185264E+03  0.41669339679E+03  0.91239158438E+02 0.  0.
    9000005    2    3    3    0    0  0.88282493262E+01 -0.22928543398E+02  0.37850963892E+03  0.37938783056E+03  0.78691253290E+01 0.  0.
         22    1    3    3    0    0 -0.88282493262E+01  0.22928543398E+02  0.28072213715E+02  0.37305566226E+02  0.00000000000E+00 0.  1.
         22    1    4    4    0    0  0.30915666983E-01 -0.68191080478E+01  0.69568970794E+02  0.69902381130E+02  0.00000000000E+00 0. -1.
         22    1    4    4    0    0  0.87973336592E+01 -0.16109435350E+02  0.30894066813E+03  0.30948544943E+03  0.00000000000E+00 0. -1.
<mgrwt>
<rscale>  0 0.91239158E+02</rscale>
<asrwt>0</asrwt>
<pdfrwt beam="1">  1        1 0.63328867E-01 0.91239158E+02</pdfrwt>
<pdfrwt beam="2">  1       -1 0.77781107E-03 0.91239158E+02</pdfrwt>
<totfact> 0.13527213E+05</totfact>
</mgrwt>
</event>
<event>
 7    1  0.2787125E-009  0.9061378E+02  0.7818608E-02  0.1301372E+00
          1   -1    0    0  501    0  0.00000000000E+00  0.00000000000E+00  0.64594542993E+03  0.64594542995E+03  0.50400000000E-02 0. -1.
         -1   -1    0    0    0  501 -0.00000000000E+00 -0.00000000000E+00 -0.31778425945E+01  0.31778465911E+01  0.50400000000E-02 0.  1.
         23    2    1    2    0    0  0.00000000000E+00  0.71054273576E-14  0.64276758733E+03  0.64912327654E+03  0.90613778300E+02 0.  0.
    9000005    2    3    3    0    0 -0.41979837651E+01 -0.37177124540E+02  0.50427553040E+03  0.50566662284E+03  0.22718357149E+01 0.  0.
         22    1    3    3    0    0  0.41979837651E+01  0.37177124540E+02  0.13849205693E+03  0.14345665370E+03  0.00000000000E+00 0.  1.
         22    1    4    4    0    0 -0.97849735421E+00 -0.18774856718E+02  0.25374594788E+03  0.25444146433E+03  0.00000000000E+00 0.  1.
         22    1    4    4    0    0 -0.32194864109E+01 -0.18402267822E+02  0.25052958252E+03  0.25122515851E+03  0.00000000000E+00 0.  1.
<mgrwt>
<rscale>  0 0.90613778E+02</rscale>
<asrwt>0</asrwt>
<pdfrwt beam="1">  1        1 0.99376007E-01 0.90613778E+02</pdfrwt>
<pdfrwt beam="2">  1       -1 0.48890022E-03 0.90613778E+02</pdfrwt>
<totfact> 0.14440387E+05</totfact>
</mgrwt>
</event>
<event>
 7    1  0.2787125E-009  0.9462801E+02  0.7818608E-02  0.1292016E+00
          1   -1    0    0  501    0  0.00000000000E+00  0.00000000000E+00  0.81780109117E+03  0.81780109119E+03  0.50400000000E-02 0. -1.
         -1   -1    0    0    0  501 -0.00000000000E+00 -0.00000000000E+00 -0.27373567966E+01  0.27373614364E+01  0.50400000000E-02 0.  1.
         23    2    1    2    0    0 -0.88817841970E-15  0.00000000000E+00  0.81506373438E+03  0.82053845263E+03  0.94628014565E+02 0.  0.
    9000005    2    3    3    0    0 -0.69223930965E+01 -0.37666164192E+02  0.64323402880E+03  0.64449269956E+03  0.12416301313E+02 0.  0.
         22    1    3    3    0    0  0.69223930965E+01  0.37666164192E+02  0.17182970558E+03  0.17604575306E+03  0.00000000000E+00 0.  1.
         22    1    4    4    0    0 -0.82944083426E+01 -0.36571425811E+02  0.56714312392E+03  0.56838155266E+03  0.00000000000E+00 0.  1.
         22    1    4    4    0    0  0.13720152461E+01 -0.10947383819E+01  0.76090904880E+02  0.76111146906E+02  0.00000000000E+00 0.  1.
<mgrwt>
<rscale>  0 0.94628015E+02</rscale>
<asrwt>0</asrwt>
<pdfrwt beam="1">  1        1 0.12581567E+00 0.94628015E+02</pdfrwt>
<pdfrwt beam="2">  1       -1 0.42113177E-03 0.94628015E+02</pdfrwt>
<totfact> 0.12779075E+05</totfact>
</mgrwt>
</event>
<event>
 7    1  0.2787125E-009  0.8576655E+02  0.7818608E-02  0.1313440E+00
         -1   -1    0    0    0  501 -0.00000000000E+00  0.00000000000E+00  0.54352684365E+03  0.54352684368E+03  0.50400000000E-02 0.  1.
          1   -1    0    0  501    0  0.00000000000E+00 -0.00000000000E+00 -0.33834098648E+01  0.33834136186E+01  0.50400000000E-02 0. -1.
         23    2    1    2    0    0  0.00000000000E+00  0.00000000000E+00  0.54014343379E+03  0.54691025730E+03  0.85766546333E+02 0.  0.
    9000005    2    3    3    0    0  0.17206796716E+02  0.37098689331E+02  0.35206784487E+03  0.35443996413E+03  0.18799412840E+01 0.  0.
         22    1    3    3    0    0 -0.17206796716E+02 -0.37098689331E+02  0.18807558892E+03  0.19247029316E+03  0.00000000000E+00 0. -1.
         22    1    4    4    0    0  0.46739039150E+01  0.12156010157E+02  0.11168936364E+03  0.11244611114E+03  0.00000000000E+00 0.  1.
         22    1    4    4    0    0  0.12532892801E+02  0.24942679174E+02  0.24037848123E+03  0.24199385299E+03  0.00000000000E+00 0.  1.
<mgrwt>
<rscale>  0 0.85766546E+02</rscale>
<asrwt>0</asrwt>
<pdfrwt beam="2">  1        1 0.52052450E-03 0.85766546E+02</pdfrwt>
<pdfrwt beam="1">  1       -1 0.83619576E-01 0.85766546E+02</pdfrwt>
<totfact> 0.52332014E+04</totfact>
</mgrwt>
</event>
<event>
 7    1  0.2787125E-009  0.9260842E+02  0.7818608E-02  0.1296655E+00
          1   -1    0    0  501    0  0.00000000000E+00  0.00000000000E+00  0.50051268743E+02  0.50051268997E+02  0.50400000000E-02 0. -1.
         -1   -1    0    0    0  501 -0.00000000000E+00 -0.00000000000E+00 -0.42837673117E+02  0.42837673414E+02  0.50400000000E-02 0.  1.
         23    2    1    2    0    0  0.00000000000E+00  0.00000000000E+00  0.72135956254E+01  0.92888942410E+02  0.92608421109E+02 0.  0.
    9000005    2    3    3    0    0 -0.38677076636E+02  0.20947829720E+02  0.17034399406E+02  0.47820372276E+02  0.78669825491E+01 0.  0.
         22    1    3    3    0    0  0.38677076636E+02 -0.20947829720E+02 -0.98208037809E+01  0.45068570134E+02  0.00000000000E+00 0.  1.
         22    1    4    4    0    0 -0.37452760764E+02  0.18947089671E+02  0.14598991821E+02  0.44439082552E+02  0.00000000000E+00 0.  1.
         22    1    4    4    0    0 -0.12243158722E+01  0.20007400482E+01  0.24354075848E+01  0.33812897243E+01  0.00000000000E+00 0.  1.
<mgrwt>
<rscale>  0 0.92608421E+02</rscale>
<asrwt>0</asrwt>
<pdfrwt beam="1">  1        1 0.77001952E-02 0.92608421E+02</pdfrwt>
<pdfrwt beam="2">  1       -1 0.65904113E-02 0.92608421E+02</pdfrwt>
<totfact> 0.89773706E+04</totfact>
</mgrwt>
</event>
<event>
 7    1  0.2787125E-009  0.7926384E+02  0.7818608E-02  0.1331154E+00
          1   -1    0    0  501    0  0.00000000000E+00  0.00000000000E+00  0.91747454608E+02  0.91747454747E+02  0.50400000000E-02 0. -1.
         -1   -1    0    0    0  501 -0.00000000000E+00 -0.00000000000E+00 -0.17119701509E+02  0.17119702251E+02  0.50400000000E-02 0.  1.
         23    2    1    2    0    0  0.00000000000E+00  0.00000000000E+00  0.74627753099E+02  0.10886715700E+03  0.79263840054E+02 0.  0.
    9000005    2    3    3    0    0  0.38115073388E+02  0.84783182812E+01  0.33965102690E+02  0.52492589695E+02  0.87865278620E+01 0.  0.
         22    1    3    3    0    0 -0.38115073388E+02 -0.84783182812E+01  0.40662650409E+02  0.56374567302E+02  0.00000000000E+00 0. -1.
         22    1    4    4    0    0  0.13934254909E+02  0.43519612283E+01  0.75165698019E+01  0.16419556876E+02  0.00000000000E+00 0. -1.
         22    1    4    4    0    0  0.24180818479E+02  0.41263570529E+01  0.26448532888E+02  0.36073032819E+02  0.00000000000E+00 0. -1.
<mgrwt>
<rscale>  0 0.79263840E+02</rscale>
<asrwt>0</asrwt>
<pdfrwt beam="1">  1        1 0.14114993E-01 0.79263840E+02</pdfrwt>
<pdfrwt beam="2">  1       -1 0.26338003E-02 0.79263840E+02</pdfrwt>
<totfact> 0.15043212E+05</totfact>
</mgrwt>
</event>
<event>
 7    1  0.2787125E-009  0.9178203E+02  0.7818608E-02  0.1298593E+00
         -1   -1    0    0    0  501 -0.00000000000E+00  0.00000000000E+00  0.17183581855E+02  0.17183582594E+02  0.50400000000E-02 0.  1.
          1   -1    0    0  501    0  0.00000000000E+00 -0.00000000000E+00 -0.12255798322E+03  0.12255798332E+03  0.50400000000E-02 0. -1.
         23    2    1    2    0    0  0.00000000000E+00  0.00000000000E+00 -0.10537440136E+03  0.13974156591E+03  0.91782028643E+02 0.  0.
    9000005    2    3    3    0    0  0.17816235187E+02  0.40771513165E+02 -0.39928046115E+02  0.60602701018E+02  0.99349877750E+01 0.  0.
         22    1    3    3    0    0 -0.17816235187E+02 -0.40771513165E+02 -0.65446355247E+02  0.79138864897E+02  0.00000000000E+00 0. -1.
         22    1    4    4    0    0  0.14724346368E+02  0.24158402929E+02 -0.21033672065E+02  0.35254080169E+02  0.00000000000E+00 0.  1.
         22    1    4    4    0    0  0.30918888190E+01  0.16613110237E+02 -0.18894374050E+02  0.25348620849E+02  0.00000000000E+00 0.  1.
<mgrwt>
<rscale>  0 0.91782029E+02</rscale>
<asrwt>0</asrwt>
<pdfrwt beam="2">  1        1 0.18855074E-01 0.91782029E+02</pdfrwt>
<pdfrwt beam="1">  1       -1 0.26436281E-02 0.91782029E+02</pdfrwt>
<totfact> 0.10621138E+05</totfact>
</mgrwt>
</event>
<event>
 7    1  0.2787125E-009  0.8929229E+02  0.7818608E-02  0.1304575E+00
         -1   -1    0    0    0  501 -0.00000000000E+00  0.00000000000E+00  0.10864693917E+03  0.10864693929E+03  0.50400000000E-02 0.  1.
          1   -1    0    0  501    0  0.00000000000E+00 -0.00000000000E+00 -0.18346379896E+02  0.18346380588E+02  0.50400000000E-02 0. -1.
         23    2    1    2    0    0  0.00000000000E+00 -0.35527136788E-14  0.90300559276E+02  0.12699331988E+03  0.89292285713E+02 0.  0.
    9000005    2    3    3    0    0 -0.21446598722E+02  0.22824082103E+02  0.34210739437E+01  0.34641057901E+02  0.14401521620E+02 0.  0.
         22    1    3    3    0    0  0.21446598722E+02 -0.22824082103E+02  0.86879485333E+02  0.92352261977E+02  0.00000000000E+00 0.  1.
         22    1    4    4    0    0 -0.20192584562E+02  0.15453848222E+02 -0.18480676243E+01  0.25494651402E+02  0.00000000000E+00 0.  1.
         22    1    4    4    0    0 -0.12540141596E+01  0.73702338810E+01  0.52691415681E+01  0.91464064986E+01  0.00000000000E+00 0.  1.
<mgrwt>
<rscale>  0 0.89292286E+02</rscale>
<asrwt>0</asrwt>
<pdfrwt beam="2">  1        1 0.28225200E-02 0.89292286E+02</pdfrwt>
<pdfrwt beam="1">  1       -1 0.16714914E-01 0.89292286E+02</pdfrwt>
<totfact> 0.84528612E+04</totfact>
</mgrwt>
</event>
<event>
 7    1  0.2787125E-009  0.9444091E+02  0.7818608E-02  0.1292440E+00
         -1   -1    0    0    0  501 -0.00000000000E+00  0.00000000000E+00  0.93284797070E+02  0.93284797206E+02  0.50400000000E-02 0.  1.
          1   -1    0    0  501    0  0.00000000000E+00 -0.00000000000E+00 -0.23902836452E+02  0.23902836984E+02  0.50400000000E-02 0. -1.
         23    2    1    2    0    0  0.00000000000E+00  0.35527136788E-14  0.69381960618E+02  0.11718763419E+03  0.94440908233E+02 0.  0.
    9000005    2    3    3    0    0 -0.12118187075E+02 -0.26295525273E+02 -0.11240728584E+02  0.31523621200E+02  0.53925510775E+01 0.  0.
         22    1    3    3    0    0  0.12118187075E+02  0.26295525273E+02  0.80622689202E+02  0.85664012990E+02  0.00000000000E+00 0.  1.
         22    1    4    4    0    0 -0.11608523079E+02 -0.20146379954E+02 -0.94525064023E+01  0.25099488254E+02  0.00000000000E+00 0. -1.
         22    1    4    4    0    0 -0.50966399605E+00 -0.61491453187E+01 -0.17882221816E+01  0.64241329462E+01  0.00000000000E+00 0. -1.
<mgrwt>
<rscale>  0 0.94440908E+02</rscale>
<asrwt>0</asrwt>
<pdfrwt beam="2">  1        1 0.36773595E-02 0.94440908E+02</pdfrwt>
<pdfrwt beam="1">  1       -1 0.14351507E-01 0.94440908E+02</pdfrwt>
<totfact> 0.75277935E+04</totfact>
</mgrwt>
</event>
<event>
 7    1  0.2787125E-009  0.8899159E+02  0.7818608E-02  0.1305312E+00
         -1   -1    0    0    0  501 -0.00000000000E+00  0.00000000000E+00  0.43191657949E+02  0.43191658243E+02  0.50400000000E-02 0.  1.
          1   -1    0    0  501    0  0.00000000000E+00 -0.00000000000E+00 -0.45839309066E+02  0.45839309343E+02  0.50400000000E-02 0. -1.
         23    2    1    2    0    0 -0.71054273576E-14 -0.17763568394E-14 -0.26476511165E+01  0.89030967586E+02  0.88991590237E+02 0.  0.
    9000005    2    3    3    0    0  0.35575679699E+02 -0.12905848897E+02 -0.22654877178E+02  0.46223503091E+02  0.13826744240E+02 0.  0.
         22    1    3    3    0    0 -0.35575679699E+02  0.12905848897E+02  0.20007226061E+02  0.42807464495E+02  0.00000000000E+00 0.  1.
         22    1    4    4    0    0  0.23690733588E+02 -0.89764160583E+01 -0.72047309751E+01  0.26338850613E+02  0.00000000000E+00 0.  1.
         22    1    4    4    0    0  0.11884946111E+02 -0.39294328391E+01 -0.15450146202E+02  0.19884652478E+02  0.00000000000E+00 0.  1.
<mgrwt>
<rscale>  0 0.88991590E+02</rscale>
<asrwt>0</asrwt>
<pdfrwt beam="2">  1        1 0.70522015E-02 0.88991590E+02</pdfrwt>
<pdfrwt beam="1">  1       -1 0.66448705E-02 0.88991590E+02</pdfrwt>
<totfact> 0.99049291E+04</totfact>
</mgrwt>
</event>
<event>
 7    1  0.2787125E-009  0.9230564E+02  0.7818608E-02  0.1297362E+00
         -1   -1    0    0    0  501 -0.00000000000E+00  0.00000000000E+00  0.20626787823E+02  0.20626788439E+02  0.50400000000E-02 0.  1.
          1   -1    0    0  501    0  0.00000000000E+00 -0.00000000000E+00 -0.10326778302E+03  0.10326778314E+03  0.50400000000E-02 0. -1.
         23    2    1    2    0    0  0.35527136788E-14  0.00000000000E+00 -0.82640995193E+02  0.12389457158E+03  0.92305637856E+02 0.  0.
    9000005    2    3    3    0    0 -0.26489286014E+02 -0.33903291341E+02 -0.61916619642E+02  0.76138784711E+02  0.10598646716E+02 0.  0.
         22    1    3    3    0    0  0.26489286014E+02  0.33903291341E+02 -0.20724375551E+02  0.47755786867E+02  0.00000000000E+00 0.  1.
         22    1    4    4    0    0 -0.57307565834E+01 -0.30318245607E+01 -0.52048082675E+01  0.83140579915E+01  0.00000000000E+00 0.  1.
         22    1    4    4    0    0 -0.20758529430E+02 -0.30871466780E+02 -0.56711811374E+02  0.67824726720E+02  0.00000000000E+00 0.  1.
<mgrwt>
<rscale>  0 0.92305638E+02</rscale>
<asrwt>0</asrwt>
<pdfrwt beam="2">  1        1 0.15887351E-01 0.92305638E+02</pdfrwt>
<pdfrwt beam="1">  1       -1 0.31733521E-02 0.92305638E+02</pdfrwt>
<totfact> 0.10154713E+05</totfact>
</mgrwt>
</event>
<event>
 7    1  0.2787125E-009  0.8419312E+02  0.7818608E-02  0.1317556E+00
          1   -1    0    0  501    0  0.00000000000E+00  0.00000000000E+00  0.87158232202E+03  0.87158232203E+03  0.50400000000E-02 0. -1.
         -1   -1    0    0    0  501 -0.00000000000E+00 -0.00000000000E+00 -0.20332189283E+01  0.20332251749E+01  0.50400000000E-02 0.  1.
         23    2    1    2    0    0  0.00000000000E+00  0.00000000000E+00  0.86954910309E+03  0.87361554721E+03  0.84193121087E+02 0.  0.
    9000005    2    3    3    0    0 -0.19769511477E+02 -0.21766437030E+02  0.74175724595E+03  0.74248442917E+03  0.14652791007E+02 0.  0.
         22    1    3    3    0    0  0.19769511477E+02  0.21766437030E+02  0.12779185714E+03  0.13113111803E+03  0.00000000000E+00 0.  1.
         22    1    4    4    0    0 -0.35019249459E+00  0.14064175426E+01  0.10174280099E+02  0.10276994727E+02  0.00000000000E+00 0. -1.
         22    1    4    4    0    0 -0.19419318982E+02 -0.23172854572E+02  0.73158296585E+03  0.73220743445E+03  0.00000000000E+00 0. -1.
<mgrwt>
<rscale>  0 0.84193121E+02</rscale>
<asrwt>0</asrwt>
<pdfrwt beam="1">  1        1 0.13408926E+00 0.84193121E+02</pdfrwt>
<pdfrwt beam="2">  1       -1 0.31280415E-03 0.84193121E+02</pdfrwt>
<totfact> 0.17255661E+05</totfact>
</mgrwt>
</event>
<event>
 7    1  0.2787125E-009  0.9171450E+02  0.7818608E-02  0.1298752E+00
          1   -1    0    0  501    0  0.00000000000E+00  0.00000000000E+00  0.25798961706E+03  0.25798961711E+03  0.50400000000E-02 0. -1.
         -1   -1    0    0    0  501 -0.00000000000E+00 -0.00000000000E+00 -0.81510536575E+01  0.81510552157E+01  0.50400000000E-02 0.  1.
         23    2    1    2    0    0  0.00000000000E+00  0.00000000000E+00  0.24983856340E+03  0.26614067233E+03  0.91714501048E+02 0.  0.
    9000005    2    3    3    0    0 -0.34050082735E+02  0.77812105389E+01  0.42235205858E+02  0.55619629587E+02  0.94749780891E+01 0.  0.
         22    1    3    3    0    0  0.34050082735E+02 -0.77812105389E+01  0.20760335755E+03  0.21052104274E+03  0.00000000000E+00 0. -1.
         22    1    4    4    0    0 -0.20126708298E+02  0.86810798767E+01  0.22133057620E+02  0.31149924147E+02  0.00000000000E+00 0.  1.
         22    1    4    4    0    0 -0.13923374437E+02 -0.89986933783E+00  0.20102148238E+02  0.24469705440E+02  0.00000000000E+00 0.  1.
<mgrwt>
<rscale>  0 0.91714501E+02</rscale>
<asrwt>0</asrwt>
<pdfrwt beam="1">  1        1 0.39690706E-01 0.91714501E+02</pdfrwt>
<pdfrwt beam="2">  1       -1 0.12540085E-02 0.91714501E+02</pdfrwt>
<totfact> 0.12249016E+05</totfact>
</mgrwt>
</event>
<event>
 6    1  0.2787125E-009  0.1287191E+03  0.7818608E-02  0.1229369E+00
         -1   -1    0    0    0  501 -0.00000000000E+00  0.00000000000E+00  0.97516179193E+02  0.97516179324E+02  0.50400000000E-02 0.  1.
          1   -1    0    0  501    0  0.00000000000E+00 -0.00000000000E+00 -0.42476570343E+02  0.42476570642E+02  0.50400000000E-02 0. -1.
    9000005    2    1    2    0    0  0.59793697529E+02 -0.23330801575E+02  0.28364489190E+02  0.70486098665E+02  0.66432892238E+01 0.  0.
         22    1    1    2    0    0 -0.59793697529E+02  0.23330801575E+02  0.26675119660E+02  0.69506651301E+02  0.00000000000E+00 0. -1.
         22    1    3    3    0    0  0.26294931015E+02 -0.13709502871E+02  0.12170191651E+02  0.32054444791E+02  0.00000000000E+00 0.  1.
         22    1    3    3    0    0  0.33498766514E+02 -0.96212987041E+01  0.16194297539E+02  0.38431653874E+02  0.00000000000E+00 0.  1.
<mgrwt>
<rscale>  0 0.12871912E+03</rscale>
<asrwt>0</asrwt>
<pdfrwt beam="2">  1        1 0.65348572E-02 0.12871912E+03</pdfrwt>
<pdfrwt beam="1">  1       -1 0.15002489E-01 0.12871912E+03</pdfrwt>
<totfact> 0.33552931E+04</totfact>
</mgrwt>
</event>
<event>
 7    1  0.2787125E-009  0.9211009E+02  0.7818608E-02  0.1297821E+00
         -1   -1    0    0    0  501 -0.00000000000E+00  0.00000000000E+00  0.14885954461E+03  0.14885954469E+03  0.50400000000E-02 0.  1.
          1   -1    0    0  501    0  0.00000000000E+00 -0.00000000000E+00 -0.14248780409E+02  0.14248781300E+02  0.50400000000E-02 0. -1.
         23    2    1    2    0    0  0.00000000000E+00  0.00000000000E+00  0.13461076420E+03  0.16310832599E+03  0.92110087233E+02 0.  0.
    9000005    2    3    3    0    0  0.23127982086E+02  0.25734101711E+02  0.12095154562E+03  0.12590991476E+03  0.51848529146E+01 0.  0.
         22    1    3    3    0    0 -0.23127982086E+02 -0.25734101711E+02  0.13659218576E+02  0.37198411234E+02  0.00000000000E+00 0. -1.
         22    1    4    4    0    0  0.13843239701E+02  0.12651161293E+02  0.71669388942E+02  0.74082308812E+02  0.00000000000E+00 0.  1.
         22    1    4    4    0    0  0.92847423857E+01  0.13082940417E+02  0.49282156681E+02  0.51827605948E+02  0.00000000000E+00 0.  1.
<mgrwt>
<rscale>  0 0.92110087E+02</rscale>
<asrwt>0</asrwt>
<pdfrwt beam="2">  1        1 0.21921202E-02 0.92110087E+02</pdfrwt>
<pdfrwt beam="1">  1       -1 0.22901468E-01 0.92110087E+02</pdfrwt>
<totfact> 0.72965544E+04</totfact>
</mgrwt>
</event>
<event>
 7    1  0.2787125E-009  0.9099988E+02  0.7818608E-02  0.1300448E+00
          1   -1    0    0  501    0  0.00000000000E+00  0.00000000000E+00  0.14651781747E+03  0.14651781756E+03  0.50400000000E-02 0. -1.
         -1   -1    0    0    0  501 -0.00000000000E+00 -0.00000000000E+00 -0.14129642055E+02  0.14129642954E+02  0.50400000000E-02 0.  1.
         23    2    1    2    0    0  0.00000000000E+00  0.00000000000E+00  0.13238817542E+03  0.16064746051E+03  0.90999876807E+02 0.  0.
    9000005    2    3    3    0    0 -0.31221931115E+02  0.31964065574E+02  0.59646511859E+02  0.75278496083E+02  0.10612969661E+02 0.  0.
         22    1    3    3    0    0  0.31221931115E+02 -0.31964065574E+02  0.72741663557E+02  0.85368964428E+02  0.00000000000E+00 0. -1.
         22    1    4    4    0    0 -0.30994744837E+02  0.30453298840E+02  0.59589755970E+02  0.73749689045E+02  0.00000000000E+00 0. -1.
         22    1    4    4    0    0 -0.22718627833E+00  0.15107667336E+01  0.56755889484E-01  0.15288070380E+01  0.00000000000E+00 0. -1.
<mgrwt>
<rscale>  0 0.90999877E+02</rscale>
<asrwt>0</asrwt>
<pdfrwt beam="1">  1        1 0.22541203E-01 0.90999877E+02</pdfrwt>
<pdfrwt beam="2">  1       -1 0.21737912E-02 0.90999877E+02</pdfrwt>
<totfact> 0.11223806E+05</totfact>
</mgrwt>
</event>
<event>
 7    1  0.2787125E-009  0.9130202E+02  0.7818608E-02  0.1299729E+00
         -1   -1    0    0    0  501 -0.00000000000E+00  0.00000000000E+00  0.37877105905E+02  0.37877106240E+02  0.50400000000E-02 0.  1.
          1   -1    0    0  501    0  0.00000000000E+00 -0.00000000000E+00 -0.55020433868E+02  0.55020434099E+02  0.50400000000E-02 0. -1.
         23    2    1    2    0    0  0.00000000000E+00 -0.17763568394E-14 -0.17143327963E+02  0.92897540339E+02  0.91302022471E+02 0.  0.
    9000005    2    3    3    0    0  0.40230129053E+02 -0.10509649292E+02 -0.27178137966E+02  0.50123559654E+02  0.66935817913E+01 0.  0.
         22    1    3    3    0    0 -0.40230129053E+02  0.10509649292E+02  0.10034810002E+02  0.42773980685E+02  0.00000000000E+00 0. -1.
         22    1    4    4    0    0  0.33161185841E+01  0.40246891431E+00 -0.39172441816E+01  0.51481477901E+01  0.00000000000E+00 0. -1.
         22    1    4    4    0    0  0.36914010469E+02 -0.10912118206E+02 -0.23260893784E+02  0.44975411864E+02  0.00000000000E+00 0. -1.
<mgrwt>
<rscale>  0 0.91302022E+02</rscale>
<asrwt>0</asrwt>
<pdfrwt beam="2">  1        1 0.84646822E-02 0.91302022E+02</pdfrwt>
<pdfrwt beam="1">  1       -1 0.58272471E-02 0.91302022E+02</pdfrwt>
<totfact> 0.94757509E+04</totfact>
</mgrwt>
</event>
<event>
 7    1  0.2787125E-009  0.9136329E+02  0.7818608E-02  0.1299583E+00
         -1   -1    0    0    0  501 -0.00000000000E+00  0.00000000000E+00  0.11806181991E+03  0.11806182002E+03  0.50400000000E-02 0.  1.
          1   -1    0    0  501    0  0.00000000000E+00 -0.00000000000E+00 -0.17675594515E+02  0.17675595234E+02  0.50400000000E-02 0. -1.
         23    2    1    2    0    0 -0.35527136788E-14  0.00000000000E+00  0.10038622540E+03  0.13573741525E+03  0.91363294874E+02 0.  0.
    9000005    2    3    3    0    0 -0.23570714611E+02  0.37426173726E+02  0.65790318742E+02  0.79584286896E+02  0.69996866717E+01 0.  0.
         22    1    3    3    0    0  0.23570714611E+02 -0.37426173726E+02  0.34595906656E+02  0.56153128358E+02  0.00000000000E+00 0. -1.
         22    1    4    4    0    0 -0.15766547884E+02  0.30435161671E+02  0.49210774267E+02  0.59971521592E+02  0.00000000000E+00 0. -1.
         22    1    4    4    0    0 -0.78041667273E+01  0.69910120547E+01  0.16579544475E+02  0.19612765304E+02  0.00000000000E+00 0. -1.
<mgrwt>
<rscale>  0 0.91363295E+02</rscale>
<asrwt>0</asrwt>
<pdfrwt beam="2">  1        1 0.27193223E-02 0.91363295E+02</pdfrwt>
<pdfrwt beam="1">  1       -1 0.18163357E-01 0.91363295E+02</pdfrwt>
<totfact> 0.78376129E+04</totfact>
</mgrwt>
</event>
<event>
 7    1  0.2787125E-009  0.8382555E+02  0.7818608E-02  0.1318533E+00
         -1   -1    0    0    0  501 -0.00000000000E+00  0.00000000000E+00  0.73587578803E+01  0.73587596063E+01  0.50400000000E-02 0.  1.
          1   -1    0    0  501    0  0.00000000000E+00 -0.00000000000E+00 -0.23871968595E+03  0.23871968601E+03  0.50400000000E-02 0. -1.
         23    2    1    2    0    0  0.00000000000E+00  0.00000000000E+00 -0.23136092807E+03  0.24607844561E+03  0.83825547158E+02 0.  0.
    9000005    2    3    3    0    0 -0.23149624341E+02  0.32364689676E+02 -0.88743257055E+02  0.98013668129E+02  0.12162862423E+02 0.  0.
         22    1    3    3    0    0  0.23149624341E+02 -0.32364689676E+02 -0.14261767102E+03  0.14806477748E+03  0.00000000000E+00 0. -1.
         22    1    4    4    0    0 -0.91579519043E+01  0.20159313377E+02 -0.38001282277E+02  0.43981398950E+02  0.00000000000E+00 0. -1.
         22    1    4    4    0    0 -0.13991672436E+02  0.12205376298E+02 -0.50741974779E+02  0.54032269179E+02  0.00000000000E+00 0. -1.
<mgrwt>
<rscale>  0 0.83825547E+02</rscale>
<asrwt>0</asrwt>
<pdfrwt beam="2">  1        1 0.36726100E-01 0.83825547E+02</pdfrwt>
<pdfrwt beam="1">  1       -1 0.11321169E-02 0.83825547E+02</pdfrwt>
<totfact> 0.15327535E+05</totfact>
</mgrwt>
</event>
<event>
 7    1  0.2787125E-009  0.8260579E+02  0.7818608E-02  0.1321815E+00
         -1   -1    0    0    0  501 -0.00000000000E+00  0.00000000000E+00  0.67998328086E+02  0.67998328273E+02  0.50400000000E-02 0.  1.
          1   -1    0    0  501    0  0.00000000000E+00 -0.00000000000E+00 -0.25087809475E+02  0.25087809981E+02  0.50400000000E-02 0. -1.
         23    2    1    2    0    0  0.00000000000E+00  0.00000000000E+00  0.42910518611E+02  0.93086138254E+02  0.82605789915E+02 0.  0.
    9000005    2    3    3    0    0 -0.23932631337E+02 -0.32155985366E+02  0.27497169947E+02  0.50140247244E+02  0.12295194225E+02 0.  0.
         22    1    3    3    0    0  0.23932631337E+02  0.32155985366E+02  0.15413348665E+02  0.42945891010E+02  0.00000000000E+00 0.  1.
         22    1    4    4    0    0 -0.20492716626E+02 -0.30730574683E+02  0.28044263481E+02  0.46376722278E+02  0.00000000000E+00 0.  1.
         22    1    4    4    0    0 -0.34399147110E+01 -0.14254106825E+01 -0.54709353416E+00  0.37635249657E+01  0.00000000000E+00 0.  1.
<mgrwt>
<rscale>  0 0.82605790E+02</rscale>
<asrwt>0</asrwt>
<pdfrwt beam="2">  1        1 0.38596631E-02 0.82605790E+02</pdfrwt>
<pdfrwt beam="1">  1       -1 0.10461281E-01 0.82605790E+02</pdfrwt>
<totfact> 0.11175445E+05</totfact>
</mgrwt>
</event>
<event>
 7    1  0.2787125E-009  0.9035821E+02  0.7818608E-02  0.1301987E+00
          1   -1    0    0  501    0  0.00000000000E+00  0.00000000000E+00  0.92414797253E+01  0.92414810997E+01  0.50400000000E-02 0. -1.
         -1   -1    0    0    0  501 -0.00000000000E+00 -0.00000000000E+00 -0.22086844144E+03  0.22086844149E+03  0.50400000000E-02 0.  1.
         23    2    1    2    0    0 -0.71054273576E-14  0.00000000000E+00 -0.21162696171E+03  0.23010992259E+03  0.90358206893E+02 0.  0.
    9000005    2    3    3    0    0  0.35728292356E+02  0.86108675454E+01 -0.17231112659E+03  0.17629177690E+03  0.60834481275E+01 0.  0.
         22    1    3    3    0    0 -0.35728292356E+02 -0.86108675454E+01 -0.39315835117E+02  0.53818145690E+02  0.00000000000E+00 0. -1.
         22    1    4    4    0    0  0.18015749691E+01  0.39702299467E+00 -0.17344680668E+02  0.17442512638E+02  0.00000000000E+00 0. -1.
         22    1    4    4    0    0  0.33926717387E+02  0.82138445508E+01 -0.15496644593E+03  0.15884926427E+03  0.00000000000E+00 0. -1.
<mgrwt>
<rscale>  0 0.90358207E+02</rscale>
<asrwt>0</asrwt>
<pdfrwt beam="1">  1        1 0.14217664E-02 0.90358207E+02</pdfrwt>
<pdfrwt beam="2">  1       -1 0.33979756E-01 0.90358207E+02</pdfrwt>
<totfact> 0.69012780E+04</totfact>
</mgrwt>
</event>
<event>
 7    1  0.2787125E-009  0.8991486E+02  0.7818608E-02  0.1303058E+00
         -1   -1    0    0    0  501 -0.00000000000E+00  0.00000000000E+00  0.34106914634E+01  0.34106951872E+01  0.50400000000E-02 0.  1.
          1   -1    0    0  501    0  0.00000000000E+00 -0.00000000000E+00 -0.59259808646E+03  0.59259808648E+03  0.50400000000E-02 0. -1.
         23    2    1    2    0    0  0.00000000000E+00  0.00000000000E+00 -0.58918739499E+03  0.59600878167E+03  0.89914856410E+02 0.  0.
    9000005    2    3    3    0    0 -0.16798030667E+02  0.38166272943E+02 -0.39796499774E+03  0.40029254975E+03  0.10915481332E+02 0.  0.
         22    1    3    3    0    0  0.16798030667E+02 -0.38166272943E+02 -0.19122239725E+03  0.19571623192E+03  0.00000000000E+00 0.  1.
         22    1    4    4    0    0  0.83896398695E+00  0.55707892882E+01 -0.74121289882E+02  0.74335073603E+02  0.00000000000E+00 0. -1.
         22    1    4    4    0    0 -0.17636994654E+02  0.32595483655E+02 -0.32384370786E+03  0.32595747615E+03  0.00000000000E+00 0. -1.
<mgrwt>
<rscale>  0 0.89914856E+02</rscale>
<asrwt>0</asrwt>
<pdfrwt beam="2">  1        1 0.91168855E-01 0.89914856E+02</pdfrwt>
<pdfrwt beam="1">  1       -1 0.52472252E-03 0.89914856E+02</pdfrwt>
<totfact> 0.14679023E+05</totfact>
</mgrwt>
</event>
<event>
 7    1  0.2787125E-009  0.9170737E+02  0.7818608E-02  0.1298769E+00
         -1   -1    0    0    0  501 -0.00000000000E+00  0.00000000000E+00  0.56063106292E+01  0.56063128946E+01  0.50400000000E-02 0.  1.
          1   -1    0    0  501    0  0.00000000000E+00 -0.00000000000E+00 -0.37503452844E+03  0.37503452847E+03  0.50400000000E-02 0. -1.
         23    2    1    2    0    0  0.17763568394E-14  0.00000000000E+00 -0.36942821781E+03  0.38064084136E+03  0.91707371583E+02 0.  0.
    9000005    2    3    3    0    0 -0.86810241606E+01  0.23454492456E+02 -0.34302581287E+03  0.34427381807E+03  0.15240738707E+02 0.  0.
         22    1    3    3    0    0  0.86810241606E+01 -0.23454492456E+02 -0.26402404935E+02  0.36367023293E+02  0.00000000000E+00 0.  1.
         22    1    4    4    0    0  0.68057273049E+00  0.13060672867E+02 -0.23230898521E+03  0.23267683375E+03  0.00000000000E+00 0.  1.
         22    1    4    4    0    0 -0.93615968911E+01  0.10393819589E+02 -0.11071682766E+03  0.11159698432E+03  0.00000000000E+00 0.  1.
<mgrwt>
<rscale>  0 0.91707372E+02</rscale>
<asrwt>0</asrwt>
<pdfrwt beam="2">  1        1 0.57697600E-01 0.91707372E+02</pdfrwt>
<pdfrwt beam="1">  1       -1 0.86250980E-03 0.91707372E+02</pdfrwt>
<totfact> 0.13139337E+05</totfact>
</mgrwt>
</event>
<event>
 7    1  0.2787125E-009  0.9083454E+02  0.7818608E-02  0.1300843E+00
         -1   -1    0    0    0  501 -0.00000000000E+00  0.00000000000E+00  0.19345729771E+02  0.19345730428E+02  0.50400000000E-02 0.  1.
          1   -1    0    0  501    0  0.00000000000E+00 -0.00000000000E+00 -0.10662448721E+03  0.10662448733E+03  0.50400000000E-02 0. -1.
         23    2    1    2    0    0 -0.17763568394E-14  0.00000000000E+00 -0.87278757443E+02  0.12597021776E+03  0.90834543331E+02 0.  0.
    9000005    2    3    3    0    0 -0.10263430911E+02 -0.77769036521E+01 -0.10337926917E+03  0.10535360498E+03  0.15693646598E+02 0.  0.
         22    1    3    3    0    0  0.10263430911E+02  0.77769036521E+01  0.16100511731E+02  0.20616612779E+02  0.00000000000E+00 0.  1.
         22    1    4    4    0    0 -0.10595667052E+02 -0.62084339910E+00 -0.34319605641E+02  0.35923375929E+02  0.00000000000E+00 0. -1.
         22    1    4    4    0    0  0.33223614137E+00 -0.71560602530E+01 -0.69059663533E+02  0.69430229054E+02  0.00000000000E+00 0. -1.
<mgrwt>
<rscale>  0 0.90834543E+02</rscale>
<asrwt>0</asrwt>
<pdfrwt beam="2">  1        1 0.16403767E-01 0.90834543E+02</pdfrwt>
<pdfrwt beam="1">  1       -1 0.29762662E-02 0.90834543E+02</pdfrwt>
<totfact> 0.10666620E+05</totfact>
</mgrwt>
</event>
<event>
 7    1  0.2787125E-009  0.7576080E+02  0.7818608E-02  0.1341531E+00
          1   -1    0    0  501    0  0.00000000000E+00  0.00000000000E+00  0.19791041287E+01  0.19791105462E+01  0.50400000000E-02 0. -1.
         -1   -1    0    0    0  501 -0.00000000000E+00 -0.00000000000E+00 -0.72503640141E+03  0.72503640143E+03  0.50400000000E-02 0.  1.
         23    2    1    2    0    0  0.00000000000E+00  0.00000000000E+00 -0.72305729729E+03  0.72701551198E+03  0.75760804501E+02 0.  0.
    9000005    2    3    3    0    0 -0.86871153162E+01 -0.60512965451E+01 -0.71040384168E+03  0.71051720597E+03  0.69998243827E+01 0.  0.
         22    1    3    3    0    0  0.86871153162E+01  0.60512965451E+01 -0.12653455603E+02  0.16498306006E+02  0.00000000000E+00 0. -1.
         22    1    4    4    0    0 -0.66396277312E-02 -0.23005240561E+01 -0.28023210280E+03  0.28024154562E+03  0.00000000000E+00 0. -1.
         22    1    4    4    0    0 -0.86804756885E+01 -0.37507724889E+01 -0.43017173889E+03  0.43027566035E+03  0.00000000000E+00 0. -1.
<mgrwt>
<rscale>  0 0.75760805E+02</rscale>
<asrwt>0</asrwt>
<pdfrwt beam="1">  1        1 0.30447863E-03 0.75760805E+02</pdfrwt>
<pdfrwt beam="2">  1       -1 0.11154385E+00 0.75760805E+02</pdfrwt>
<totfact> 0.57926905E+04</totfact>
</mgrwt>
</event>
<event>
 7    1  0.2787125E-009  0.9439748E+02  0.7818608E-02  0.1292539E+00
         -1   -1    0    0    0  501 -0.00000000000E+00  0.00000000000E+00  0.22216496050E+02  0.22216496622E+02  0.50400000000E-02 0.  1.
          1   -1    0    0  501    0  0.00000000000E+00 -0.00000000000E+00 -0.10027328349E+03  0.10027328362E+03  0.50400000000E-02 0. -1.
         23    2    1    2    0    0  0.00000000000E+00  0.35527136788E-14 -0.78056787439E+02  0.12248978024E+03  0.94397479826E+02 0.  0.
    9000005    2    3    3    0    0 -0.18904456255E+02  0.22518462991E+02  0.86410323582E+01  0.30942133631E+02  0.42765116180E+01 0.  0.
         22    1    3    3    0    0  0.18904456255E+02 -0.22518462991E+02 -0.86697819797E+02  0.91547646608E+02  0.00000000000E+00 0. -1.
         22    1    4    4    0    0 -0.33653607058E+01  0.52620368877E+01  0.34934328750E+01  0.71567281729E+01  0.00000000000E+00 0.  1.
         22    1    4    4    0    0 -0.15539095549E+02  0.17256426103E+02  0.51475994832E+01  0.23785405458E+02  0.00000000000E+00 0.  1.
<mgrwt>
<rscale>  0 0.94397480E+02</rscale>
<asrwt>0</asrwt>
<pdfrwt beam="2">  1        1 0.15426659E-01 0.94397480E+02</pdfrwt>
<pdfrwt beam="1">  1       -1 0.34179226E-02 0.94397480E+02</pdfrwt>
<totfact> 0.95036492E+04</totfact>
</mgrwt>
</event>
<event>
 7    1  0.2787125E-009  0.9043390E+02  0.7818608E-02  0.1301804E+00
         -1   -1    0    0    0  501 -0.00000000000E+00  0.00000000000E+00  0.10877239960E+02  0.10877241128E+02  0.50400000000E-02 0.  1.
          1   -1    0    0  501    0  0.00000000000E+00 -0.00000000000E+00 -0.18796795149E+03  0.18796795156E+03  0.50400000000E-02 0. -1.
         23    2    1    2    0    0  0.00000000000E+00  0.00000000000E+00 -0.17709071153E+03  0.19884519268E+03  0.90433901517E+02 0.  0.
    9000005    2    3    3    0    0  0.30319017294E+02 -0.32660168185E+02 -0.10433431657E+03  0.11352566149E+03  0.40616261915E+01 0.  0.
         22    1    3    3    0    0 -0.30319017294E+02  0.32660168185E+02 -0.72756394960E+02  0.85319531193E+02  0.00000000000E+00 0.  1.
         22    1    4    4    0    0  0.20202997523E+02 -0.24452914709E+02 -0.73393013242E+02  0.79953990141E+02  0.00000000000E+00 0. -1.
         22    1    4    4    0    0  0.10116019771E+02 -0.82072534763E+01 -0.30941303327E+02  0.33571671350E+02  0.00000000000E+00 0. -1.
<mgrwt>
<rscale>  0 0.90433902E+02</rscale>
<asrwt>0</asrwt>
<pdfrwt beam="2">  1        1 0.28918144E-01 0.90433902E+02</pdfrwt>
<pdfrwt beam="1">  1       -1 0.16734218E-02 0.90433902E+02</pdfrwt>
<totfact> 0.11959064E+05</totfact>
</mgrwt>
</event>
<event>
 7    1  0.2787125E-009  0.9157675E+02  0.7818608E-02  0.1299078E+00
          1   -1    0    0  501    0  0.00000000000E+00  0.00000000000E+00  0.89584151029E+03  0.89584151030E+03  0.50400000000E-02 0. -1.
         -1   -1    0    0    0  501 -0.00000000000E+00 -0.00000000000E+00 -0.23403389157E+01  0.23403443426E+01  0.50400000000E-02 0.  1.
         23    2    1    2    0    0  0.00000000000E+00  0.00000000000E+00  0.89350117137E+03  0.89818185465E+03  0.91576747973E+02 0.  0.
    9000005    2    3    3    0    0 -0.58705099890E+01 -0.35402726660E+02  0.72434008335E+03  0.72525617800E+03  0.63365160515E+01 0.  0.
         22    1    3    3    0    0  0.58705099890E+01  0.35402726660E+02  0.16916108802E+03  0.17292567665E+03  0.00000000000E+00 0.  1.
         22    1    4    4    0    0 -0.64317669560E+01 -0.34485084484E+02  0.68116697931E+03  0.68206967561E+03  0.00000000000E+00 0.  1.
         22    1    4    4    0    0  0.56125696699E+00 -0.91764217604E+00  0.43173104040E+02  0.43186502394E+02  0.00000000000E+00 0.  1.
<mgrwt>
<rscale>  0 0.91576748E+02</rscale>
<asrwt>0</asrwt>
<pdfrwt beam="1">  1        1 0.13782190E+00 0.91576748E+02</pdfrwt>
<pdfrwt beam="2">  1       -1 0.36005221E-03 0.91576748E+02</pdfrwt>
<totfact> 0.13768417E+05</totfact>
</mgrwt>
</event>
<event>
 7    1  0.2787125E-009  0.9273779E+02  0.7818608E-02  0.1296354E+00
         -1   -1    0    0    0  501 -0.00000000000E+00  0.00000000000E+00  0.16543948618E+03  0.16543948626E+03  0.50400000000E-02 0.  1.
          1   -1    0    0  501    0  0.00000000000E+00 -0.00000000000E+00 -0.12996136785E+02  0.12996137763E+02  0.50400000000E-02 0. -1.
         23    2    1    2    0    0  0.00000000000E+00 -0.17763568394E-14  0.15244334940E+03  0.17843562402E+03  0.92737787038E+02 0.  0.
    9000005    2    3    3    0    0  0.35127902231E+02  0.11851017913E+02  0.12920654725E+03  0.13468216570E+03  0.83986764448E+01 0.  0.
         22    1    3    3    0    0 -0.35127902231E+02 -0.11851017913E+02  0.23236802148E+02  0.43753458318E+02  0.00000000000E+00 0. -1.
         22    1    4    4    0    0  0.18341660013E+02  0.24064239082E+01  0.55563407720E+02  0.58561930001E+02  0.00000000000E+00 0. -1.
         22    1    4    4    0    0  0.16786242218E+02  0.94445940047E+01  0.73643139529E+02  0.76120235702E+02  0.00000000000E+00 0. -1.
<mgrwt>
<rscale>  0 0.92737787E+02</rscale>
<asrwt>0</asrwt>
<pdfrwt beam="2">  1        1 0.19994058E-02 0.92737787E+02</pdfrwt>
<pdfrwt beam="1">  1       -1 0.25452228E-01 0.92737787E+02</pdfrwt>
<totfact> 0.69881131E+04</totfact>
</mgrwt>
</event>
<event>
 7    1  0.2787125E-009  0.9131991E+02  0.7818608E-02  0.1299686E+00
         -1   -1    0    0    0  501 -0.00000000000E+00  0.00000000000E+00  0.24091744357E+02  0.24091744884E+02  0.50400000000E-02 0. -1.
          1   -1    0    0  501    0  0.00000000000E+00 -0.00000000000E+00 -0.86537169310E+02  0.86537169457E+02  0.50400000000E-02 0.  1.
         23    2    1    2    0    0  0.00000000000E+00 -0.35527136788E-14 -0.62445424953E+02  0.11062891434E+03  0.91319907965E+02 0.  0.
    9000005    2    3    3    0    0 -0.15511151641E+02  0.29234311799E+02  0.49513728872E+01  0.35545166628E+02  0.11987575465E+02 0.  0.
         22    1    3    3    0    0  0.15511151641E+02 -0.29234311799E+02 -0.67396797840E+02  0.75083747713E+02  0.00000000000E+00 0.  1.
         22    1    4    4    0    0 -0.88328468848E+00  0.19149926197E+01 -0.28917243773E+01  0.35790303783E+01  0.00000000000E+00 0.  1.
         22    1    4    4    0    0 -0.14627866953E+02  0.27319319180E+02  0.78430972645E+01  0.31966136250E+02  0.00000000000E+00 0.  1.
<mgrwt>
<rscale>  0 0.91319908E+02</rscale>
<asrwt>0</asrwt>
<pdfrwt beam="2">  1        1 0.13313411E-01 0.91319908E+02</pdfrwt>
<pdfrwt beam="1">  1       -1 0.37064223E-02 0.91319908E+02</pdfrwt>
<totfact> 0.10157469E+05</totfact>
</mgrwt>
</event>
<event>
 7    1  0.2787125E-009  0.8461750E+02  0.7818608E-02  0.1316436E+00
         -1   -1    0    0    0  501 -0.00000000000E+00  0.00000000000E+00  0.20057332659E+02  0.20057333292E+02  0.50400000000E-02 0.  1.
          1   -1    0    0  501    0  0.00000000000E+00 -0.00000000000E+00 -0.89245673331E+02  0.89245673473E+02  0.50400000000E-02 0. -1.
         23    2    1    2    0    0  0.00000000000E+00  0.35527136788E-14 -0.69188340672E+02  0.10930300677E+03  0.84617497026E+02 0.  0.
    9000005    2    3    3    0    0  0.28007833285E+01 -0.18556131275E+02  0.14340719413E+02  0.23691802628E+02  0.18630306849E+01 0.  0.
         22    1    3    3    0    0 -0.28007833285E+01  0.18556131275E+02 -0.83529060085E+02  0.85611204137E+02  0.00000000000E+00 0. -1.
         22    1    4    4    0    0  0.10380328236E+00 -0.76356719270E-01  0.30131574903E+00  0.32771428199E+00  0.00000000000E+00 0. -1.
         22    1    4    4    0    0  0.26969800461E+01 -0.18479774556E+02  0.14039403664E+02  0.23364088346E+02  0.00000000000E+00 0. -1.
<mgrwt>
<rscale>  0 0.84617497E+02</rscale>
<asrwt>0</asrwt>
<pdfrwt beam="2">  1        1 0.13730103E-01 0.84617497E+02</pdfrwt>
<pdfrwt beam="1">  1       -1 0.30857436E-02 0.84617497E+02</pdfrwt>
<totfact> 0.12560247E+05</totfact>
</mgrwt>
</event>
<event>
 7    1  0.2787125E-009  0.8810229E+02  0.7818608E-02  0.1307513E+00
          1   -1    0    0  501    0  0.00000000000E+00  0.00000000000E+00  0.29868473843E+02  0.29868474268E+02  0.50400000000E-02 0. -1.
         -1   -1    0    0    0  501 -0.00000000000E+00 -0.00000000000E+00 -0.64968280114E+02  0.64968280309E+02  0.50400000000E-02 0.  1.
         23    2    1    2    0    0  0.17763568394E-14  0.00000000000E+00 -0.35099806271E+02  0.94836754578E+02  0.88102290655E+02 0.  0.
    9000005    2    3    3    0    0  0.15800323630E+02 -0.19314209555E+02 -0.55805855144E+02  0.62411002813E+02  0.12575805589E+02 0.  0.
         22    1    3    3    0    0 -0.15800323630E+02  0.19314209555E+02  0.20706048873E+02  0.32425751765E+02  0.00000000000E+00 0. -1.
         22    1    4    4    0    0  0.97722057354E+01 -0.13413635329E+02 -0.48468549258E+02  0.51231063671E+02  0.00000000000E+00 0. -1.
         22    1    4    4    0    0  0.60281178948E+01 -0.59005742268E+01 -0.73373058861E+01  0.11179939142E+02  0.00000000000E+00 0. -1.
<mgrwt>
<rscale>  0 0.88102291E+02</rscale>
<asrwt>0</asrwt>
<pdfrwt beam="1">  1        1 0.45951499E-02 0.88102291E+02</pdfrwt>
<pdfrwt beam="2">  1       -1 0.99951200E-02 0.88102291E+02</pdfrwt>
<totfact> 0.95551892E+04</totfact>
</mgrwt>
</event>
<event>
 7    1  0.2787125E-009  0.9269019E+02  0.7818608E-02  0.1296465E+00
          1   -1    0    0  501    0  0.00000000000E+00  0.00000000000E+00  0.34044411597E+02  0.34044411970E+02  0.50400000000E-02 0. -1.
         -1   -1    0    0    0  501 -0.00000000000E+00 -0.00000000000E+00 -0.63090176702E+02  0.63090176903E+02  0.50400000000E-02 0.  1.
         23    2    1    2    0    0  0.00000000000E+00  0.00000000000E+00 -0.29045765105E+02  0.97134588873E+02  0.92690193036E+02 0.  0.
    9000005    2    3    3    0    0  0.30037248165E+02  0.19769237932E+02  0.15339694814E+02  0.40010792624E+02  0.85145900443E+01 0.  0.
         22    1    3    3    0    0 -0.30037248165E+02 -0.19769237932E+02 -0.44385459919E+02  0.57123796249E+02  0.00000000000E+00 0.  1.
         22    1    4    4    0    0  0.16249400375E+02  0.10625591621E+02  0.12844848611E+02  0.23279526320E+02  0.00000000000E+00 0. -1.
         22    1    4    4    0    0  0.13787847790E+02  0.91436463106E+01  0.24948462033E+01  0.16731266304E+02  0.00000000000E+00 0. -1.
<mgrwt>
<rscale>  0 0.92690193E+02</rscale>
<asrwt>0</asrwt>
<pdfrwt beam="1">  1        1 0.52376018E-02 0.92690193E+02</pdfrwt>
<pdfrwt beam="2">  1       -1 0.97061811E-02 0.92690193E+02</pdfrwt>
<totfact> 0.84378789E+04</totfact>
</mgrwt>
</event>
<event>
 7    1  0.2787125E-009  0.9082601E+02  0.7818608E-02  0.1300864E+00
         -1   -1    0    0    0  501 -0.00000000000E+00  0.00000000000E+00  0.97632083798E+02  0.97632083928E+02  0.50400000000E-02 0.  1.
          1   -1    0    0  501    0  0.00000000000E+00 -0.00000000000E+00 -0.21123600601E+02  0.21123601202E+02  0.50400000000E-02 0. -1.
         23    2    1    2    0    0 -0.35527136788E-14  0.00000000000E+00  0.76508483197E+02  0.11875568513E+03  0.90826013618E+02 0.  0.
    9000005    2    3    3    0    0 -0.22867435278E+02 -0.23912985881E+02  0.77731303410E+02  0.85646082608E+02  0.14083516832E+02 0.  0.
         22    1    3    3    0    0  0.22867435278E+02  0.23912985881E+02 -0.12228202126E+01  0.33109602523E+02  0.00000000000E+00 0. -1.
         22    1    4    4    0    0 -0.86926076494E+01 -0.71023050088E+00  0.20831638681E+02  0.22583689363E+02  0.00000000000E+00 0. -1.
         22    1    4    4    0    0 -0.14174827629E+02 -0.23202755380E+02  0.56899664729E+02  0.63062393245E+02  0.00000000000E+00 0. -1.
<mgrwt>
<rscale>  0 0.90826014E+02</rscale>
<asrwt>0</asrwt>
<pdfrwt beam="2">  1        1 0.32497848E-02 0.90826014E+02</pdfrwt>
<pdfrwt beam="1">  1       -1 0.15020320E-01 0.90826014E+02</pdfrwt>
<totfact> 0.82546759E+04</totfact>
</mgrwt>
</event>
<event>
 7    1  0.2787125E-009  0.9178369E+02  0.7818608E-02  0.1298589E+00
          1   -1    0    0  501    0  0.00000000000E+00  0.00000000000E+00  0.38411969092E+03  0.38411969095E+03  0.50400000000E-02 0. -1.
         -1   -1    0    0    0  501 -0.00000000000E+00 -0.00000000000E+00 -0.54828246782E+01  0.54828269946E+01  0.50400000000E-02 0.  1.
         23    2    1    2    0    0  0.71054273576E-14  0.00000000000E+00  0.37863686624E+03  0.38960251795E+03  0.91783688713E+02 0.  0.
    9000005    2    3    3    0    0  0.39346647284E+02 -0.22059809341E+01  0.28789463323E+03  0.29067235138E+03  0.73532994036E+01 0.  0.
         22    1    3    3    0    0 -0.39346647284E+02  0.22059809341E+01  0.90742233013E+02  0.98930166564E+02  0.00000000000E+00 0.  1.
         22    1    4    4    0    0  0.15872367785E+02 -0.30615936164E+01  0.96966457974E+02  0.98304625459E+02  0.00000000000E+00 0. -1.
         22    1    4    4    0    0  0.23474279499E+02  0.85561268229E+00  0.19092817525E+03  0.19236772592E+03  0.00000000000E+00 0. -1.
<mgrwt>
<rscale>  0 0.91783689E+02</rscale>
<asrwt>0</asrwt>
<pdfrwt beam="1">  1        1 0.59095325E-01 0.91783689E+02</pdfrwt>
<pdfrwt beam="2">  1       -1 0.84351185E-03 0.91783689E+02</pdfrwt>
<totfact> 0.13164144E+05</totfact>
</mgrwt>
</event>
<event>
 7    1  0.2787125E-009  0.8836630E+02  0.7818608E-02  0.1306857E+00
          1   -1    0    0  501    0  0.00000000000E+00  0.00000000000E+00  0.30442113538E+02  0.30442113955E+02  0.50400000000E-02 0. -1.
         -1   -1    0    0    0  501 -0.00000000000E+00 -0.00000000000E+00 -0.64126648528E+02  0.64126648726E+02  0.50400000000E-02 0.  1.
         23    2    1    2    0    0  0.00000000000E+00  0.00000000000E+00 -0.33684534990E+02  0.94568762681E+02  0.88366300011E+02 0.  0.
    9000005    2    3    3    0    0 -0.42195996477E+02  0.47248509194E+01 -0.10830308200E+02  0.46349036251E+02  0.15103352304E+02 0.  0.
         22    1    3    3    0    0  0.42195996477E+02 -0.47248509194E+01 -0.22854226790E+02  0.48219726430E+02  0.00000000000E+00 0. -1.
         22    1    4    4    0    0 -0.17590888549E+02 -0.53382885307E+01 -0.29188994404E+01  0.18613346242E+02  0.00000000000E+00 0.  1.
         22    1    4    4    0    0 -0.24605107928E+02  0.10063139450E+02 -0.79114087596E+01  0.27735690009E+02  0.00000000000E+00 0.  1.
<mgrwt>
<rscale>  0 0.88366300E+02</rscale>
<asrwt>0</asrwt>
<pdfrwt beam="1">  1        1 0.46834021E-02 0.88366300E+02</pdfrwt>
<pdfrwt beam="2">  1       -1 0.98656382E-02 0.88366300E+02</pdfrwt>
<totfact> 0.95021078E+04</totfact>
</mgrwt>
</event>
<event>
 7    1  0.2787125E-009  0.9185066E+02  0.7818608E-02  0.1298431E+00
          1   -1    0    0  501    0  0.00000000000E+00  0.00000000000E+00  0.88998354801E+03  0.88998354802E+03  0.50400000000E-02 0. -1.
         -1   -1    0    0    0  501 -0.00000000000E+00 -0.00000000000E+00 -0.23698566686E+01  0.23698620279E+01  0.50400000000E-02 0.  1.
         23    2    1    2    0    0 -0.17763568394E-14  0.00000000000E+00  0.88761369134E+03  0.89235341005E+03  0.91850658001E+02 0.  0.
    9000005    2    3    3    0    0 -0.13062988967E+02  0.57981656631E+01  0.86761649698E+03  0.86777398394E+03  0.83090890010E+01 0.  0.
         22    1    3    3    0    0  0.13062988967E+02 -0.57981656631E+01  0.19997194357E+02  0.24579426111E+02  0.00000000000E+00 0.  1.
         22    1    4    4    0    0  0.97505955344E+00  0.53291338724E+00  0.13220814230E+03  0.13221281189E+03  0.00000000000E+00 0.  1.
         22    1    4    4    0    0 -0.14038048520E+02  0.52652522758E+01  0.73540835468E+03  0.73556117205E+03  0.00000000000E+00 0.  1.
<mgrwt>
<rscale>  0 0.91850658E+02</rscale>
<asrwt>0</asrwt>
<pdfrwt beam="1">  1        1 0.13692038E+00 0.91850658E+02</pdfrwt>
<pdfrwt beam="2">  1       -1 0.36459418E-03 0.91850658E+02</pdfrwt>
<totfact> 0.13675046E+05</totfact>
</mgrwt>
</event>
<event>
 7    1  0.2787125E-009  0.8990959E+02  0.7818608E-02  0.1303071E+00
          1   -1    0    0  501    0  0.00000000000E+00  0.00000000000E+00  0.27278341056E+03  0.27278341061E+03  0.50400000000E-02 0. -1.
         -1   -1    0    0    0  501 -0.00000000000E+00 -0.00000000000E+00 -0.74085645056E+01  0.74085662200E+01  0.50400000000E-02 0.  1.
         23    2    1    2    0    0  0.00000000000E+00  0.00000000000E+00  0.26537484606E+03  0.28019197683E+03  0.89909593257E+02 0.  0.
    9000005    2    3    3    0    0  0.41052608530E+02  0.14617873750E+01  0.18938536478E+03  0.19380994887E+03  0.28330899824E+01 0.  0.
         22    1    3    3    0    0 -0.41052608530E+02 -0.14617873750E+01  0.75989481276E+02  0.86382027957E+02  0.00000000000E+00 0.  1.
         22    1    4    4    0    0  0.21533250772E+02 -0.43932808959E+00  0.10260787478E+03  0.10484393099E+03  0.00000000000E+00 0.  1.
         22    1    4    4    0    0  0.19519357758E+02  0.19011154646E+01  0.86777489998E+02  0.88966017882E+02  0.00000000000E+00 0.  1.
<mgrwt>
<rscale>  0 0.89909593E+02</rscale>
<asrwt>0</asrwt>
<pdfrwt beam="1">  1        1 0.41966686E-01 0.89909593E+02</pdfrwt>
<pdfrwt beam="2">  1       -1 0.11397791E-02 0.89909593E+02</pdfrwt>
<totfact> 0.13057359E+05</totfact>
</mgrwt>
</event>
<event>
 7    1  0.2787125E-009  0.8937466E+02  0.7818608E-02  0.1304373E+00
          1   -1    0    0  501    0  0.00000000000E+00  0.00000000000E+00  0.99831831850E+02  0.99831831977E+02  0.50400000000E-02 0. -1.
         -1   -1    0    0    0  501 -0.00000000000E+00 -0.00000000000E+00 -0.20003212527E+02  0.20003213162E+02  0.50400000000E-02 0.  1.
         23    2    1    2    0    0  0.00000000000E+00  0.00000000000E+00  0.79828619323E+02  0.11983504514E+03  0.89374658491E+02 0.  0.
    9000005    2    3    3    0    0  0.10234211200E+02 -0.33799229044E+02  0.34481697104E+01  0.35685772736E+02  0.38023070120E+01 0.  0.
         22    1    3    3    0    0 -0.10234211200E+02  0.33799229044E+02  0.76380449613E+02  0.84149272402E+02  0.00000000000E+00 0. -1.
         22    1    4    4    0    0  0.74197439061E+01 -0.18479946725E+02  0.12156092115E+01  0.19950908158E+02  0.00000000000E+00 0.  1.
         22    1    4    4    0    0  0.28144672940E+01 -0.15319282319E+02  0.22325604989E+01  0.15734864578E+02  0.00000000000E+00 0.  1.
<mgrwt>
<rscale>  0 0.89374658E+02</rscale>
<asrwt>0</asrwt>
<pdfrwt beam="1">  1        1 0.15358743E-01 0.89374658E+02</pdfrwt>
<pdfrwt beam="2">  1       -1 0.30774174E-02 0.89374658E+02</pdfrwt>
<totfact> 0.11025075E+05</totfact>
</mgrwt>
</event>
<event>
 7    1  0.2787125E-009  0.9215756E+02  0.7818608E-02  0.1297709E+00
          1   -1    0    0  501    0  0.00000000000E+00  0.00000000000E+00  0.13848176687E+02  0.13848177604E+02  0.50400000000E-02 0. -1.
         -1   -1    0    0    0  501 -0.00000000000E+00 -0.00000000000E+00 -0.15332371563E+03  0.15332371571E+03  0.50400000000E-02 0.  1.
         23    2    1    2    0    0  0.00000000000E+00  0.00000000000E+00 -0.13947553894E+03  0.16717189332E+03  0.92157560470E+02 0.  0.
    9000005    2    3    3    0    0 -0.16580194848E+02 -0.25319160872E+02 -0.13241124359E+03  0.13609349186E+03  0.85286768386E+01 0.  0.
         22    1    3    3    0    0  0.16580194848E+02  0.25319160872E+02 -0.70642953539E+01  0.31078401460E+02  0.00000000000E+00 0. -1.
         22    1    4    4    0    0 -0.80509052683E+01 -0.12388204903E+02 -0.46303628211E+02  0.48603607704E+02  0.00000000000E+00 0.  1.
         22    1    4    4    0    0 -0.85292895797E+01 -0.12930955969E+02 -0.86107615378E+02  0.87489884153E+02  0.00000000000E+00 0.  1.
<mgrwt>
<rscale>  0 0.92157560E+02</rscale>
<asrwt>0</asrwt>
<pdfrwt beam="1">  1        1 0.21304889E-02 0.92157560E+02</pdfrwt>
<pdfrwt beam="2">  1       -1 0.23588263E-01 0.92157560E+02</pdfrwt>
<totfact> 0.72362278E+04</totfact>
</mgrwt>
</event>
<event>
 7    1  0.2787125E-009  0.9143382E+02  0.7818608E-02  0.1299416E+00
          1   -1    0    0  501    0  0.00000000000E+00  0.00000000000E+00  0.14498356667E+03  0.14498356676E+03  0.50400000000E-02 0. -1.
         -1   -1    0    0    0  501 -0.00000000000E+00 -0.00000000000E+00 -0.14415674473E+02  0.14415675354E+02  0.50400000000E-02 0.  1.
         23    2    1    2    0    0  0.00000000000E+00  0.00000000000E+00  0.13056789220E+03  0.15939924211E+03  0.91433822586E+02 0.  0.
    9000005    2    3    3    0    0 -0.38654469096E+02 -0.21533933286E+02  0.45775701714E+02  0.63756187837E+02  0.33997582734E+01 0.  0.
         22    1    3    3    0    0  0.38654469096E+02  0.21533933286E+02  0.84792190482E+02  0.95643054272E+02  0.00000000000E+00 0. -1.
         22    1    4    4    0    0 -0.34332792178E+02 -0.18118133580E+02  0.41043973523E+02  0.56494381541E+02  0.00000000000E+00 0. -1.
         22    1    4    4    0    0 -0.43216769175E+01 -0.34157997057E+01  0.47317281917E+01  0.72618062966E+01  0.00000000000E+00 0. -1.
<mgrwt>
<rscale>  0 0.91433823E+02</rscale>
<asrwt>0</asrwt>
<pdfrwt beam="1">  1        1 0.22305164E-01 0.91433823E+02</pdfrwt>
<pdfrwt beam="2">  1       -1 0.22177962E-02 0.91433823E+02</pdfrwt>
<totfact> 0.11059178E+05</totfact>
</mgrwt>
</event>
<event>
 7    1  0.2787125E-009  0.8826930E+02  0.7818608E-02  0.1307098E+00
          1   -1    0    0  501    0  0.00000000000E+00  0.00000000000E+00  0.39948908218E+02  0.39948908536E+02  0.50400000000E-02 0. -1.
         -1   -1    0    0    0  501 -0.00000000000E+00 -0.00000000000E+00 -0.48758959887E+02  0.48758960147E+02  0.50400000000E-02 0.  1.
         23    2    1    2    0    0  0.00000000000E+00  0.00000000000E+00 -0.88100516686E+01  0.88707868684E+02  0.88269297924E+02 0.  0.
    9000005    2    3    3    0    0 -0.21969154912E+02  0.11568472082E+02 -0.39820846513E+02  0.48982024316E+02  0.14038004676E+02 0.  0.
         22    1    3    3    0    0  0.21969154912E+02 -0.11568472082E+02  0.31010794844E+02  0.39725844367E+02  0.00000000000E+00 0. -1.
         22    1    4    4    0    0  0.68708610494E+00  0.45667379468E+01 -0.87717600059E+01  0.99131708546E+01  0.00000000000E+00 0. -1.
         22    1    4    4    0    0 -0.22656241017E+02  0.70017341351E+01 -0.31049086507E+02  0.39068853462E+02  0.00000000000E+00 0. -1.
<mgrwt>
<rscale>  0 0.88269298E+02</rscale>
<asrwt>0</asrwt>
<pdfrwt beam="1">  1        1 0.61459859E-02 0.88269298E+02</pdfrwt>
<pdfrwt beam="2">  1       -1 0.75013785E-02 0.88269298E+02</pdfrwt>
<totfact> 0.99303843E+04</totfact>
</mgrwt>
</event>
<event>
 7    1  0.2787125E-009  0.9080082E+02  0.7818608E-02  0.1300924E+00
         -1   -1    0    0    0  501 -0.00000000000E+00  0.00000000000E+00  0.47763265579E+03  0.47763265581E+03  0.50400000000E-02 0.  1.
          1   -1    0    0  501    0  0.00000000000E+00 -0.00000000000E+00 -0.43154434743E+01  0.43154464174E+01  0.50400000000E-02 0. -1.
         23    2    1    2    0    0  0.00000000000E+00  0.17763568394E-14  0.47331721231E+03  0.48194810223E+03  0.90800824735E+02 0.  0.
    9000005    2    3    3    0    0 -0.38556358425E+02 -0.15093396609E+02  0.32935401841E+03  0.33214888796E+03  0.11593573087E+02 0.  0.
         22    1    3    3    0    0  0.38556358425E+02  0.15093396609E+02  0.14396319390E+03  0.14979921427E+03  0.00000000000E+00 0. -1.
         22    1    4    4    0    0 -0.39268237236E+02 -0.15110767829E+02  0.31783594503E+03  0.32060882352E+03  0.00000000000E+00 0.  1.
         22    1    4    4    0    0  0.71187881093E+00  0.17371219364E-01  0.11518073374E+02  0.11540064448E+02  0.00000000000E+00 0.  1.
<mgrwt>
<rscale>  0 0.90800825E+02</rscale>
<asrwt>0</asrwt>
<pdfrwt beam="2">  1        1 0.66391453E-03 0.90800825E+02</pdfrwt>
<pdfrwt beam="1">  1       -1 0.73481956E-01 0.90800825E+02</pdfrwt>
<totfact> 0.48888384E+04</totfact>
</mgrwt>
</event>
<event>
 7    1  0.2787125E-009  0.9115640E+02  0.7818608E-02  0.1300075E+00
         -1   -1    0    0    0  501 -0.00000000000E+00  0.00000000000E+00  0.46799109620E+01  0.46799136759E+01  0.50400000000E-02 0.  1.
          1   -1    0    0  501    0  0.00000000000E+00 -0.00000000000E+00 -0.44389131743E+03  0.44389131746E+03  0.50400000000E-02 0. -1.
         23    2    1    2    0    0  0.00000000000E+00 -0.71054273576E-14 -0.43921140647E+03  0.44857123113E+03  0.91156403121E+02 0.  0.
    9000005    2    3    3    0    0 -0.61767941382E+01 -0.35886618312E+02 -0.35164362908E+03  0.35373390834E+03  0.12183344003E+02 0.  0.
         22    1    3    3    0    0  0.61767941382E+01  0.35886618312E+02 -0.87567777382E+02  0.94837322797E+02  0.00000000000E+00 0. -1.
         22    1    4    4    0    0 -0.41965178825E+01 -0.29979195173E+02 -0.32327113896E+03  0.32468537416E+03  0.00000000000E+00 0. -1.
         22    1    4    4    0    0 -0.19802762557E+01 -0.59074231398E+01 -0.28372490124E+02  0.29048534181E+02  0.00000000000E+00 0. -1.
<mgrwt>
<rscale>  0 0.91156403E+02</rscale>
<asrwt>0</asrwt>
<pdfrwt beam="2">  1        1 0.68290939E-01 0.91156403E+02</pdfrwt>
<pdfrwt beam="1">  1       -1 0.71998687E-03 0.91156403E+02</pdfrwt>
<totfact> 0.13716861E+05</totfact>
</mgrwt>
</event>
<event>
 7    1  0.2787125E-009  0.8608161E+02  0.7818608E-02  0.1312628E+00
         -1   -1    0    0    0  501 -0.00000000000E+00  0.00000000000E+00  0.57366885931E+02  0.57366886152E+02  0.50400000000E-02 0.  1.
          1   -1    0    0  501    0  0.00000000000E+00 -0.00000000000E+00 -0.32292339061E+02  0.32292339454E+02  0.50400000000E-02 0. -1.
         23    2    1    2    0    0 -0.17763568394E-14  0.00000000000E+00  0.25074546870E+02  0.89659225607E+02  0.86081611484E+02 0.  0.
    9000005    2    3    3    0    0 -0.95589570626E+01  0.60065155995E+01  0.55331268876E+02  0.57364936385E+02  0.10086363132E+02 0.  0.
         22    1    3    3    0    0  0.95589570626E+01 -0.60065155995E+01 -0.30256722006E+02  0.32294289222E+02  0.00000000000E+00 0. -1.
         22    1    4    4    0    0 -0.85822087835E+01 -0.39710180116E+00  0.28785589399E+02  0.30040342117E+02  0.00000000000E+00 0. -1.
         22    1    4    4    0    0 -0.97674827917E+00  0.64036174007E+01  0.26545679477E+02  0.27324594268E+02  0.00000000000E+00 0. -1.
<mgrwt>
<rscale>  0 0.86081611E+02</rscale>
<asrwt>0</asrwt>
<pdfrwt beam="2">  1        1 0.49680522E-02 0.86081611E+02</pdfrwt>
<pdfrwt beam="1">  1       -1 0.88256748E-02 0.86081611E+02</pdfrwt>
<totfact> 0.10327500E+05</totfact>
</mgrwt>
</event>
<event>
 7    1  0.2787125E-009  0.8652190E+02  0.7818608E-02  0.1311500E+00
          1   -1    0    0  501    0  0.00000000000E+00  0.00000000000E+00  0.15295889878E+03  0.15295889886E+03  0.50400000000E-02 0. -1.
         -1   -1    0    0    0  501 -0.00000000000E+00 -0.00000000000E+00 -0.12235377569E+02  0.12235378607E+02  0.50400000000E-02 0.  1.
         23    2    1    2    0    0  0.00000000000E+00  0.00000000000E+00  0.14072352121E+03  0.16519427747E+03  0.86521904086E+02 0.  0.
    9000005    2    3    3    0    0  0.20323455551E+02 -0.15233501948E+02  0.56018592797E+01  0.27706219988E+02  0.95473227386E+01 0.  0.
         22    1    3    3    0    0 -0.20323455551E+02  0.15233501948E+02  0.13512166193E+03  0.13748805748E+03  0.00000000000E+00 0. -1.
         22    1    4    4    0    0  0.13580342720E+02 -0.14064749345E+02  0.12391520330E+01  0.19590262384E+02  0.00000000000E+00 0.  1.
         22    1    4    4    0    0  0.67431128314E+01 -0.11687526035E+01  0.43627072467E+01  0.81159576037E+01  0.00000000000E+00 0.  1.
<mgrwt>
<rscale>  0 0.86521904E+02</rscale>
<asrwt>0</asrwt>
<pdfrwt beam="1">  1        1 0.23532139E-01 0.86521904E+02</pdfrwt>
<pdfrwt beam="2">  1       -1 0.18823658E-02 0.86521904E+02</pdfrwt>
<totfact> 0.12954820E+05</totfact>
</mgrwt>
</event>
<event>
 7    1  0.2787125E-009  0.7932274E+02  0.7818608E-02  0.1330984E+00
         -1   -1    0    0    0  501 -0.00000000000E+00  0.00000000000E+00  0.13158016973E+02  0.13158017938E+02  0.50400000000E-02 0.  1.
          1   -1    0    0  501    0  0.00000000000E+00 -0.00000000000E+00 -0.11954873146E+03  0.11954873157E+03  0.50400000000E-02 0. -1.
         23    2    1    2    0    0  0.88817841970E-15  0.35527136788E-14 -0.10639071449E+03  0.13270674951E+03  0.79322740971E+02 0.  0.
    9000005    2    3    3    0    0  0.74252077563E+01  0.17801524102E+02  0.11039774922E+01  0.23495317986E+02  0.13370984645E+02 0.  0.
         22    1    3    3    0    0 -0.74252077563E+01 -0.17801524102E+02 -0.10749469198E+03  0.10921143152E+03  0.00000000000E+00 0. -1.
         22    1    4    4    0    0  0.73935028369E+01  0.19128143241E+02 -0.15110075280E+01  0.20562900861E+02  0.00000000000E+00 0. -1.
         22    1    4    4    0    0  0.31704919333E-01 -0.13266191388E+01  0.26149850202E+01  0.29324171254E+01  0.00000000000E+00 0. -1.
<mgrwt>
<rscale>  0 0.79322741E+02</rscale>
<asrwt>0</asrwt>
<pdfrwt beam="2">  1        1 0.18392112E-01 0.79322741E+02</pdfrwt>
<pdfrwt beam="1">  1       -1 0.20243105E-02 0.79322741E+02</pdfrwt>
<totfact> 0.15656025E+05</totfact>
</mgrwt>
</event>
<event>
 7    1  0.4328373E-009  0.9087161E+02  0.7818608E-02  0.1300755E+00
          1   -1    0    0  501    0  0.00000000000E+00  0.00000000000E+00  0.15111292575E+02  0.15111293415E+02  0.50400000000E-02 0. -1.
         -1   -1    0    0    0  501 -0.00000000000E+00 -0.00000000000E+00 -0.13661388953E+03  0.13661388962E+03  0.50400000000E-02 0.  1.
         23    2    1    2    0    0 -0.55511151231E-16  0.00000000000E+00 -0.12150259695E+03  0.15172518304E+03  0.90871613286E+02 0.  0.
    9000005    2    3    3    0    0  0.34205086120E+00  0.24604663023E+02 -0.12364606947E+03  0.12702496207E+03  0.15539757152E+02 0.  0.
         22    1    3    3    0    0 -0.34205086120E+00 -0.24604663023E+02  0.21434725185E+01  0.24700220965E+02  0.00000000000E+00 0. -1.
         22    1    4    4    0    0 -0.53933671622E+00  0.24709671242E+02 -0.89014864556E+02  0.92382383867E+02  0.00000000000E+00 0. -1.
         22    1    4    4    0    0  0.88138757742E+00 -0.10500821934E+00 -0.34631204916E+02  0.34642578206E+02  0.00000000000E+00 0. -1.
<mgrwt>
<rscale>  0 0.90871613E+02</rscale>
<asrwt>0</asrwt>
<pdfrwt beam="1">  1        1 0.23248144E-02 0.90871613E+02</pdfrwt>
<pdfrwt beam="2">  1       -1 0.21017521E-01 0.90871613E+02</pdfrwt>
<totfact> 0.77061905E+04</totfact>
</mgrwt>
</event>
<event>
 7    1  0.2787125E-009  0.9193991E+02  0.7818608E-02  0.1298221E+00
          1   -1    0    0  501    0  0.00000000000E+00  0.00000000000E+00  0.44793024049E+03  0.44793024052E+03  0.50400000000E-02 0. -1.
         -1   -1    0    0    0  501 -0.00000000000E+00 -0.00000000000E+00 -0.47177797064E+01  0.47177823985E+01  0.50400000000E-02 0.  1.
         23    2    1    2    0    0  0.00000000000E+00  0.00000000000E+00  0.44321246079E+03  0.45264802292E+03  0.91939911120E+02 0.  0.
    9000005    2    3    3    0    0 -0.28612102846E+02 -0.32106054215E+02  0.29424514955E+03  0.29759735067E+03  0.11598445954E+02 0.  0.
         22    1    3    3    0    0  0.28612102846E+02  0.32106054215E+02  0.14896731124E+03  0.15505067225E+03  0.00000000000E+00 0.  1.
         22    1    4    4    0    0 -0.20274902095E+02 -0.28810197389E+02  0.24818107745E+03  0.25066899755E+03  0.00000000000E+00 0.  1.
         22    1    4    4    0    0 -0.83372007506E+01 -0.32958568268E+01  0.46064072096E+02  0.46928353121E+02  0.00000000000E+00 0.  1.
<mgrwt>
<rscale>  0 0.91939911E+02</rscale>
<asrwt>0</asrwt>
<pdfrwt beam="1">  1        1 0.68912321E-01 0.91939911E+02</pdfrwt>
<pdfrwt beam="2">  1       -1 0.72581273E-03 0.91939911E+02</pdfrwt>
<totfact> 0.13426300E+05</totfact>
</mgrwt>
</event>
<event>
 7    1  0.2787125E-009  0.9365741E+02  0.7818608E-02  0.1294229E+00
         -1   -1    0    0    0  501 -0.00000000000E+00  0.00000000000E+00  0.35819223785E+01  0.35819259243E+01  0.50400000000E-02 0.  1.
          1   -1    0    0  501    0  0.00000000000E+00 -0.00000000000E+00 -0.61222061103E+03  0.61222061105E+03  0.50400000000E-02 0. -1.
         23    2    1    2    0    0 -0.35527136788E-14  0.00000000000E+00 -0.60863868865E+03  0.61580253698E+03  0.93657414130E+02 0.  0.
    9000005    2    3    3    0    0 -0.20497699091E+02 -0.21855211867E+01 -0.58053085646E+03  0.58094593930E+03  0.75615421051E+01 0.  0.
         22    1    3    3    0    0  0.20497699091E+02  0.21855211867E+01 -0.28107832197E+02  0.34856597678E+02  0.00000000000E+00 0.  1.
         22    1    4    4    0    0 -0.23733729604E+01 -0.26197798339E+01 -0.64596381578E+02  0.64693034080E+02  0.00000000000E+00 0.  1.
         22    1    4    4    0    0 -0.18124326130E+02  0.43425864721E+00 -0.51593447488E+03  0.51625290522E+03  0.00000000000E+00 0.  1.
<mgrwt>
<rscale>  0 0.93657414E+02</rscale>
<asrwt>0</asrwt>
<pdfrwt beam="2">  1        1 0.94187703E-01 0.93657414E+02</pdfrwt>
<pdfrwt beam="1">  1       -1 0.55106574E-03 0.93657414E+02</pdfrwt>
<totfact> 0.13201215E+05</totfact>
</mgrwt>
</event>
<event>
 7    1  0.2787125E-009  0.9098740E+02  0.7818608E-02  0.1300478E+00
          1   -1    0    0  501    0  0.00000000000E+00  0.00000000000E+00  0.32086213934E+03  0.32086213938E+03  0.50400000000E-02 0. -1.
         -1   -1    0    0    0  501 -0.00000000000E+00 -0.00000000000E+00 -0.64503606870E+01  0.64503626560E+01  0.50400000000E-02 0.  1.
         23    2    1    2    0    0  0.00000000000E+00  0.00000000000E+00  0.31441177866E+03  0.32731250204E+03  0.90987402607E+02 0.  0.
    9000005    2    3    3    0    0 -0.13245525487E+01  0.27632106701E+02  0.28649786361E+03  0.28801270034E+03  0.10247045706E+02 0.  0.
         22    1    3    3    0    0  0.13245525487E+01 -0.27632106701E+02  0.27913915049E+02  0.39299801698E+02  0.00000000000E+00 0.  1.
         22    1    4    4    0    0  0.11119197483E+01  0.17661592048E+01  0.68575411684E+01  0.71680928245E+01  0.00000000000E+00 0. -1.
         22    1    4    4    0    0 -0.24364722970E+01  0.25865947496E+02  0.27964032244E+03  0.28084460752E+03  0.00000000000E+00 0. -1.
<mgrwt>
<rscale>  0 0.90987403E+02</rscale>
<asrwt>0</asrwt>
<pdfrwt beam="1">  1        1 0.49363414E-01 0.90987403E+02</pdfrwt>
<pdfrwt beam="2">  1       -1 0.99236319E-03 0.90987403E+02</pdfrwt>
<totfact> 0.13047705E+05</totfact>
</mgrwt>
</event>
<event>
 7    1  0.2787125E-009  0.8924318E+02  0.7818608E-02  0.1304695E+00
          1   -1    0    0  501    0  0.00000000000E+00  0.00000000000E+00  0.35409939823E+03  0.35409939827E+03  0.50400000000E-02 0. -1.
         -1   -1    0    0    0  501 -0.00000000000E+00 -0.00000000000E+00 -0.56229570315E+01  0.56229592902E+01  0.50400000000E-02 0.  1.
         23    2    1    2    0    0  0.00000000000E+00  0.88817841970E-15  0.34847644120E+03  0.35972235756E+03  0.89243175960E+02 0.  0.
    9000005    2    3    3    0    0 -0.40409475827E+02  0.65440399510E+01  0.23900251332E+03  0.24284510964E+03  0.13258797342E+02 0.  0.
         22    1    3    3    0    0  0.40409475827E+02 -0.65440399510E+01  0.10947392788E+03  0.11687724791E+03  0.00000000000E+00 0.  1.
         22    1    4    4    0    0 -0.23072559976E+02 -0.23623550361E+01  0.14500169555E+03  0.14684486868E+03  0.00000000000E+00 0.  1.
         22    1    4    4    0    0 -0.17336915850E+02  0.89063949871E+01  0.94000817774E+02  0.96000240963E+02  0.00000000000E+00 0.  1.
<mgrwt>
<rscale>  0 0.89243176E+02</rscale>
<asrwt>0</asrwt>
<pdfrwt beam="1">  1        1 0.54476830E-01 0.89243176E+02</pdfrwt>
<pdfrwt beam="2">  1       -1 0.86507051E-03 0.89243176E+02</pdfrwt>
<totfact> 0.13984159E+05</totfact>
</mgrwt>
</event>
<event>
 7    1  0.2787125E-009  0.9017940E+02  0.7818608E-02  0.1302418E+00
         -1   -1    0    0    0  501 -0.00000000000E+00  0.00000000000E+00  0.14606533532E+03  0.14606533540E+03  0.50400000000E-02 0.  1.
          1   -1    0    0  501    0  0.00000000000E+00 -0.00000000000E+00 -0.13918982213E+02  0.13918983125E+02  0.50400000000E-02 0. -1.
         23    2    1    2    0    0  0.00000000000E+00  0.00000000000E+00  0.13214635310E+03  0.15998431853E+03  0.90179396408E+02 0.  0.
    9000005    2    3    3    0    0  0.26718540001E+02  0.57962187121E+01  0.12881276807E+03  0.13244181827E+03  0.14164373581E+02 0.  0.
         22    1    3    3    0    0 -0.26718540001E+02 -0.57962187121E+01  0.33335850353E+01  0.27542500256E+02  0.00000000000E+00 0. -1.
         22    1    4    4    0    0  0.93714859686E+01  0.31710679860E+01  0.21035861008E+02  0.23246244208E+02  0.00000000000E+00 0. -1.
         22    1    4    4    0    0  0.17347054032E+02  0.26251507261E+01  0.10777690706E+03  0.10919557407E+03  0.00000000000E+00 0. -1.
<mgrwt>
<rscale>  0 0.90179396E+02</rscale>
<asrwt>0</asrwt>
<pdfrwt beam="2">  1        1 0.21413818E-02 0.90179396E+02</pdfrwt>
<pdfrwt beam="1">  1       -1 0.22471592E-01 0.90179396E+02</pdfrwt>
<totfact> 0.77427868E+04</totfact>
</mgrwt>
</event>
<event>
 7    1  0.2787125E-009  0.9172808E+02  0.7818608E-02  0.1298720E+00
         -1   -1    0    0    0  501 -0.00000000000E+00  0.00000000000E+00  0.92773334755E+02  0.92773334892E+02  0.50400000000E-02 0.  1.
          1   -1    0    0  501    0  0.00000000000E+00 -0.00000000000E+00 -0.22673647928E+02  0.22673648488E+02  0.50400000000E-02 0. -1.
         23    2    1    2    0    0  0.00000000000E+00 -0.88817841970E-15  0.70099686827E+02  0.11544698338E+03  0.91728075736E+02 0.  0.
    9000005    2    3    3    0    0 -0.18349525928E+02  0.64220974318E+01 -0.15394604909E+02  0.27770177116E+02  0.12499617576E+02 0.  0.
         22    1    3    3    0    0  0.18349525928E+02 -0.64220974318E+01  0.85494291736E+02  0.87676806264E+02  0.00000000000E+00 0.  1.
         22    1    4    4    0    0 -0.15079179185E+02  0.40480250183E+01 -0.46501450457E+01  0.16290856343E+02  0.00000000000E+00 0. -1.
         22    1    4    4    0    0 -0.32703467425E+01  0.23740724135E+01 -0.10744459864E+02  0.11479320773E+02  0.00000000000E+00 0. -1.
<mgrwt>
<rscale>  0 0.91728076E+02</rscale>
<asrwt>0</asrwt>
<pdfrwt beam="2">  1        1 0.34882537E-02 0.91728076E+02</pdfrwt>
<pdfrwt beam="1">  1       -1 0.14272820E-01 0.91728076E+02</pdfrwt>
<totfact> 0.81224247E+04</totfact>
</mgrwt>
</event>
<event>
 7    1  0.2787125E-009  0.8772436E+02  0.7818608E-02  0.1308458E+00
          1   -1    0    0  501    0  0.00000000000E+00  0.00000000000E+00  0.17561103122E+02  0.17561103845E+02  0.50400000000E-02 0. -1.
         -1   -1    0    0    0  501 -0.00000000000E+00 -0.00000000000E+00 -0.10955409252E+03  0.10955409264E+03  0.50400000000E-02 0.  1.
         23    2    1    2    0    0 -0.35527136788E-14 -0.17763568394E-14 -0.91992989398E+02  0.12711519648E+03  0.87724358521E+02 0.  0.
    9000005    2    3    3    0    0 -0.18856439477E+02 -0.14591625321E+02  0.50044832292E+01  0.27230310059E+02  0.12164049254E+02 0.  0.
         22    1    3    3    0    0  0.18856439477E+02  0.14591625321E+02 -0.96997472627E+02  0.99884886421E+02  0.00000000000E+00 0.  1.
         22    1    4    4    0    0 -0.97581573785E+01 -0.25613201201E+00  0.12503309546E+01  0.98412685426E+01  0.00000000000E+00 0.  1.
         22    1    4    4    0    0 -0.90982820988E+01 -0.14335493309E+02  0.37541522747E+01  0.17389041517E+02  0.00000000000E+00 0.  1.
<mgrwt>
<rscale>  0 0.87724359E+02</rscale>
<asrwt>0</asrwt>
<pdfrwt beam="1">  1        1 0.27017083E-02 0.87724359E+02</pdfrwt>
<pdfrwt beam="2">  1       -1 0.16854476E-01 0.87724359E+02</pdfrwt>
<totfact> 0.88332075E+04</totfact>
</mgrwt>
</event>
<event>
 7    1  0.2787125E-009  0.8734089E+02  0.7818608E-02  0.1309422E+00
          1   -1    0    0  501    0  0.00000000000E+00  0.00000000000E+00  0.77125588184E+01  0.77125604652E+01  0.50400000000E-02 0. -1.
         -1   -1    0    0    0  501 -0.00000000000E+00 -0.00000000000E+00 -0.24727301680E+03  0.24727301685E+03  0.50400000000E-02 0.  1.
         23    2    1    2    0    0  0.00000000000E+00  0.00000000000E+00 -0.23956045798E+03  0.25498557732E+03  0.87340893121E+02 0.  0.
    9000005    2    3    3    0    0 -0.21897056976E+02 -0.88831757601E+01 -0.22656705375E+03  0.22801855172E+03  0.10071651778E+02 0.  0.
         22    1    3    3    0    0  0.21897056976E+02  0.88831757601E+01 -0.12993404231E+02  0.26967025592E+02  0.00000000000E+00 0. -1.
         22    1    4    4    0    0 -0.18821625101E+02 -0.82977397138E+01 -0.21652427160E+03  0.21749911781E+03  0.00000000000E+00 0.  1.
         22    1    4    4    0    0 -0.30754318748E+01 -0.58543604634E+00 -0.10042782153E+02  0.10519433918E+02  0.00000000000E+00 0.  1.
<mgrwt>
<rscale>  0 0.87340893E+02</rscale>
<asrwt>0</asrwt>
<pdfrwt beam="1">  1        1 0.11865478E-02 0.87340893E+02</pdfrwt>
<pdfrwt beam="2">  1       -1 0.38041997E-01 0.87340893E+02</pdfrwt>
<totfact> 0.72708836E+04</totfact>
</mgrwt>
</event>
<event>
 7    1  0.2787125E-009  0.9118920E+02  0.7818608E-02  0.1299997E+00
         -1   -1    0    0    0  501 -0.00000000000E+00  0.00000000000E+00  0.18726126289E+03  0.18726126296E+03  0.50400000000E-02 0.  1.
          1   -1    0    0  501    0  0.00000000000E+00 -0.00000000000E+00 -0.11101428501E+02  0.11101429645E+02  0.50400000000E-02 0. -1.
         23    2    1    2    0    0  0.00000000000E+00  0.17763568394E-14  0.17615983439E+03  0.19836269261E+03  0.91189202017E+02 0.  0.
    9000005    2    3    3    0    0  0.14229892016E+02 -0.15996030329E+02  0.17494705336E+03  0.17691896040E+03  0.15345496306E+02 0.  0.
         22    1    3    3    0    0 -0.14229892016E+02  0.15996030329E+02  0.12127810330E+01  0.21443732205E+02  0.00000000000E+00 0. -1.
         22    1    4    4    0    0  0.10011632312E+02 -0.88823758441E+01  0.15084246391E+03  0.15143506298E+03  0.00000000000E+00 0.  1.
         22    1    4    4    0    0  0.42182597038E+01 -0.71136544846E+01  0.24104589451E+02  0.25483897419E+02  0.00000000000E+00 0.  1.
<mgrwt>
<rscale>  0 0.91189202E+02</rscale>
<asrwt>0</asrwt>
<pdfrwt beam="2">  1        1 0.17079121E-02 0.91189202E+02</pdfrwt>
<pdfrwt beam="1">  1       -1 0.28809426E-01 0.91189202E+02</pdfrwt>
<totfact> 0.70687895E+04</totfact>
</mgrwt>
</event>
<event>
 7    1  0.2787125E-009  0.8802355E+02  0.7818608E-02  0.1307710E+00
          1   -1    0    0  501    0  0.00000000000E+00  0.00000000000E+00  0.16284346072E+03  0.16284346080E+03  0.50400000000E-02 0. -1.
         -1   -1    0    0    0  501 -0.00000000000E+00 -0.00000000000E+00 -0.11895080995E+02  0.11895082063E+02  0.50400000000E-02 0.  1.
         23    2    1    2    0    0  0.00000000000E+00  0.35527136788E-14  0.15094837973E+03  0.17473854287E+03  0.88023548098E+02 0.  0.
    9000005    2    3    3    0    0 -0.51723680362E+01 -0.25105407829E+02  0.62775775247E+01  0.27814494787E+02  0.87865378451E+01 0.  0.
         22    1    3    3    0    0  0.51723680362E+01  0.25105407829E+02  0.14467080220E+03  0.14692404808E+03  0.00000000000E+00 0. -1.
         22    1    4    4    0    0 -0.53856342003E+01 -0.16663731454E+02  0.38362037326E+00  0.17516625425E+02  0.00000000000E+00 0. -1.
         22    1    4    4    0    0  0.21326616412E+00 -0.84416763750E+01  0.58939571515E+01  0.10297869361E+02  0.00000000000E+00 0. -1.
<mgrwt>
<rscale>  0 0.88023548E+02</rscale>
<asrwt>0</asrwt>
<pdfrwt beam="1">  1        1 0.25052840E-01 0.88023548E+02</pdfrwt>
<pdfrwt beam="2">  1       -1 0.18300125E-02 0.88023548E+02</pdfrwt>
<totfact> 0.12513896E+05</totfact>
</mgrwt>
</event>
<event>
 7    1  0.2787125E-009  0.9083755E+02  0.7818608E-02  0.1300836E+00
         -1   -1    0    0    0  501 -0.00000000000E+00  0.00000000000E+00  0.11127586623E+03  0.11127586634E+03  0.50400000000E-02 0.  1.
          1   -1    0    0  501    0  0.00000000000E+00 -0.00000000000E+00 -0.18538298773E+02  0.18538299458E+02  0.50400000000E-02 0. -1.
         23    2    1    2    0    0  0.00000000000E+00 -0.44408920985E-15  0.92737567454E+02  0.12981416580E+03  0.90837554045E+02 0.  0.
    9000005    2    3    3    0    0  0.35429203089E+02  0.37762221153E+01  0.83936509474E+01  0.38253341553E+02  0.11107496513E+02 0.  0.
         22    1    3    3    0    0 -0.35429203089E+02 -0.37762221153E+01  0.84343916507E+02  0.91560824247E+02  0.00000000000E+00 0.  1.
         22    1    4    4    0    0  0.41619434396E+01 -0.27975678819E+01  0.30195218612E+01  0.58536887105E+01  0.00000000000E+00 0. -1.
         22    1    4    4    0    0  0.31267259649E+02  0.65737899973E+01  0.53741290862E+01  0.32399652843E+02  0.00000000000E+00 0. -1.
<mgrwt>
<rscale>  0 0.90837554E+02</rscale>
<asrwt>0</asrwt>
<pdfrwt beam="2">  1        1 0.28520462E-02 0.90837554E+02</pdfrwt>
<pdfrwt beam="1">  1       -1 0.17119363E-01 0.90837554E+02</pdfrwt>
<totfact> 0.80497939E+04</totfact>
</mgrwt>
</event>
<event>
 7    1  0.2787125E-009  0.9296117E+02  0.7818608E-02  0.1295835E+00
          1   -1    0    0  501    0  0.00000000000E+00  0.00000000000E+00  0.10724646370E+03  0.10724646382E+03  0.50400000000E-02 0. -1.
         -1   -1    0    0    0  501 -0.00000000000E+00 -0.00000000000E+00 -0.20144672786E+02  0.20144673416E+02  0.50400000000E-02 0.  1.
         23    2    1    2    0    0  0.71054273576E-14  0.00000000000E+00  0.87101790915E+02  0.12739113724E+03  0.92961173968E+02 0.  0.
    9000005    2    3    3    0    0 -0.34165240584E+02  0.25869545340E+02  0.67653384770E+02  0.80330139139E+02  0.62812214529E+01 0.  0.
         22    1    3    3    0    0  0.34165240584E+02 -0.25869545340E+02  0.19448406145E+02  0.47060998096E+02  0.00000000000E+00 0.  1.
         22    1    4    4    0    0 -0.30434383081E+02  0.22761664127E+02  0.55720796220E+02  0.67447402906E+02  0.00000000000E+00 0. -1.
         22    1    4    4    0    0 -0.37308575025E+01  0.31078812136E+01  0.11932588550E+02  0.12882736233E+02  0.00000000000E+00 0. -1.
<mgrwt>
<rscale>  0 0.92961174E+02</rscale>
<asrwt>0</asrwt>
<pdfrwt beam="1">  1        1 0.16499456E-01 0.92961174E+02</pdfrwt>
<pdfrwt beam="2">  1       -1 0.30991805E-02 0.92961174E+02</pdfrwt>
<totfact> 0.10024470E+05</totfact>
</mgrwt>
</event>
<event>
 7    1  0.2787125E-009  0.8736912E+02  0.7818608E-02  0.1309351E+00
         -1   -1    0    0    0  501 -0.00000000000E+00  0.00000000000E+00  0.28166456676E+01  0.28166501768E+01  0.50400000000E-02 0.  1.
          1   -1    0    0  501    0  0.00000000000E+00 -0.00000000000E+00 -0.67752190974E+03  0.67752190976E+03  0.50400000000E-02 0. -1.
         23    2    1    2    0    0  0.00000000000E+00  0.00000000000E+00 -0.67470526408E+03  0.68033855994E+03  0.87369117932E+02 0.  0.
    9000005    2    3    3    0    0 -0.22028485901E+02 -0.19823736908E+02 -0.58331245355E+03  0.58426108832E+03  0.15144838303E+02 0.  0.
         22    1    3    3    0    0  0.22028485901E+02  0.19823736908E+02 -0.91392810527E+02  0.96077471616E+02  0.00000000000E+00 0.  1.
         22    1    4    4    0    0 -0.23631101265E+02 -0.19728503666E+02 -0.57281449967E+03  0.57364108451E+03  0.00000000000E+00 0. -1.
         22    1    4    4    0    0  0.16026153648E+01 -0.95233242020E-01 -0.10497953876E+02  0.10620003811E+02  0.00000000000E+00 0. -1.
<mgrwt>
<rscale>  0 0.87369118E+02</rscale>
<asrwt>0</asrwt>
<pdfrwt beam="2">  1        1 0.10423401E+00 0.87369118E+02</pdfrwt>
<pdfrwt beam="1">  1       -1 0.43333099E-03 0.87369118E+02</pdfrwt>
<totfact> 0.15912398E+05</totfact>
</mgrwt>
</event>
<event>
 7    1  0.2787125E-009  0.9080554E+02  0.7818608E-02  0.1300913E+00
          1   -1    0    0  501    0  0.00000000000E+00  0.00000000000E+00  0.91885058892E+01  0.91885072715E+01  0.50400000000E-02 0. -1.
         -1   -1    0    0    0  501 -0.00000000000E+00 -0.00000000000E+00 -0.22434673094E+03  0.22434673100E+03  0.50400000000E-02 0.  1.
         23    2    1    2    0    0  0.00000000000E+00  0.00000000000E+00 -0.21515822505E+03  0.23353523827E+03  0.90805537860E+02 0.  0.
    9000005    2    3    3    0    0 -0.30054105539E+02  0.50201765426E+00 -0.19412113683E+03  0.19684654298E+03  0.12729667574E+02 0.  0.
         22    1    3    3    0    0  0.30054105539E+02 -0.50201765426E+00 -0.21037088225E+02  0.36688695295E+02  0.00000000000E+00 0. -1.
         22    1    4    4    0    0 -0.73720821955E+01 -0.20771576094E+01 -0.23791395490E+02  0.24993852824E+02  0.00000000000E+00 0.  1.
         22    1    4    4    0    0 -0.22682023343E+02  0.25791752637E+01 -0.17032974134E+03  0.17185269015E+03  0.00000000000E+00 0.  1.
<mgrwt>
<rscale>  0 0.90805538E+02</rscale>
<asrwt>0</asrwt>
<pdfrwt beam="1">  1        1 0.14136166E-02 0.90805538E+02</pdfrwt>
<pdfrwt beam="2">  1       -1 0.34514878E-01 0.90805538E+02</pdfrwt>
<totfact> 0.67801819E+04</totfact>
</mgrwt>
</event>
<event>
 7    1  0.2787125E-009  0.9153632E+02  0.7818608E-02  0.1299173E+00
         -1   -1    0    0    0  501 -0.00000000000E+00  0.00000000000E+00  0.18080959969E+03  0.18080959976E+03  0.50400000000E-02 0.  1.
          1   -1    0    0  501    0  0.00000000000E+00 -0.00000000000E+00 -0.11585250898E+02  0.11585251995E+02  0.50400000000E-02 0. -1.
         23    2    1    2    0    0  0.00000000000E+00  0.00000000000E+00  0.16922434880E+03  0.19239485176E+03  0.91536324801E+02 0.  0.
    9000005    2    3    3    0    0 -0.39997101065E+02  0.78890979784E+01  0.12658702694E+03  0.13340377468E+03  0.10501702121E+02 0.  0.
         22    1    3    3    0    0  0.39997101065E+02 -0.78890979784E+01  0.42637321856E+02  0.58991077084E+02  0.00000000000E+00 0. -1.
         22    1    4    4    0    0 -0.31736689782E+02  0.10241255421E+02  0.95652437544E+02  0.10129901085E+03  0.00000000000E+00 0. -1.
         22    1    4    4    0    0 -0.82604112837E+01 -0.23521574424E+01  0.30934589396E+02  0.32104763826E+02  0.00000000000E+00 0. -1.
<mgrwt>
<rscale>  0 0.91536325E+02</rscale>
<asrwt>0</asrwt>
<pdfrwt beam="2">  1        1 0.17823465E-02 0.91536325E+02</pdfrwt>
<pdfrwt beam="1">  1       -1 0.27816860E-01 0.91536325E+02</pdfrwt>
<totfact> 0.70656223E+04</totfact>
</mgrwt>
</event>
<event>
 7    1  0.2787125E-009  0.8768496E+02  0.7818608E-02  0.1308557E+00
          1   -1    0    0  501    0  0.00000000000E+00  0.00000000000E+00  0.21773976550E+02  0.21773977133E+02  0.50400000000E-02 0. -1.
         -1   -1    0    0    0  501 -0.00000000000E+00 -0.00000000000E+00 -0.88278005582E+02  0.88278005726E+02  0.50400000000E-02 0.  1.
         23    2    1    2    0    0  0.35527136788E-14  0.00000000000E+00 -0.66504029032E+02  0.11005198286E+03  0.87684964810E+02 0.  0.
    9000005    2    3    3    0    0  0.17971523441E+02 -0.20652115105E+01 -0.82866038312E+02  0.85660260881E+02  0.11985793058E+02 0.  0.
         22    1    3    3    0    0 -0.17971523441E+02  0.20652115105E+01  0.16362009281E+02  0.24391721978E+02  0.00000000000E+00 0. -1.
         22    1    4    4    0    0  0.26873842365E+01 -0.42298274388E+01 -0.10100454931E+02  0.11275312147E+02  0.00000000000E+00 0. -1.
         22    1    4    4    0    0  0.15284139204E+02  0.21646159283E+01 -0.72765583381E+02  0.74384948734E+02  0.00000000000E+00 0. -1.
<mgrwt>
<rscale>  0 0.87684965E+02</rscale>
<asrwt>0</asrwt>
<pdfrwt beam="1">  1        1 0.33498426E-02 0.87684965E+02</pdfrwt>
<pdfrwt beam="2">  1       -1 0.13581232E-01 0.87684965E+02</pdfrwt>
<totfact> 0.91987676E+04</totfact>
</mgrwt>
</event>
<event>
 7    1  0.2787125E-009  0.8937899E+02  0.7818608E-02  0.1304363E+00
         -1   -1    0    0    0  501 -0.00000000000E+00  0.00000000000E+00  0.38682952211E+03  0.38682952215E+03  0.50400000000E-02 0.  1.
          1   -1    0    0  501    0  0.00000000000E+00 -0.00000000000E+00 -0.51628704123E+01  0.51628728723E+01  0.50400000000E-02 0. -1.
         23    2    1    2    0    0 -0.17763568394E-14 -0.17763568394E-14  0.38166665170E+03  0.39199239502E+03  0.89378994913E+02 0.  0.
    9000005    2    3    3    0    0 -0.11188446051E+02 -0.99930611359E+01  0.37499490693E+03  0.37557427167E+03  0.14484844559E+02 0.  0.
         22    1    3    3    0    0  0.11188446051E+02  0.99930611359E+01  0.66717447681E+01  0.16418123345E+02  0.00000000000E+00 0. -1.
         22    1    4    4    0    0 -0.98640585575E+01 -0.77668341863E+01  0.13917303720E+03  0.13973817534E+03  0.00000000000E+00 0.  1.
         22    1    4    4    0    0 -0.13243874937E+01 -0.22262269496E+01  0.23582186973E+03  0.23583609633E+03  0.00000000000E+00 0.  1.
<mgrwt>
<rscale>  0 0.89378995E+02</rscale>
<asrwt>0</asrwt>
<pdfrwt beam="2">  1        1 0.79428785E-03 0.89378995E+02</pdfrwt>
<pdfrwt beam="1">  1       -1 0.59512241E-01 0.89378995E+02</pdfrwt>
<totfact> 0.57083660E+04</totfact>
</mgrwt>
</event>
<event>
 7    1  0.2787125E-009  0.9012870E+02  0.7818608E-02  0.1302540E+00
         -1   -1    0    0    0  501 -0.00000000000E+00  0.00000000000E+00  0.69431051466E+01  0.69431069759E+01  0.50400000000E-02 0.  1.
          1   -1    0    0  501    0  0.00000000000E+00 -0.00000000000E+00 -0.29249091353E+03  0.29249091357E+03  0.50400000000E-02 0. -1.
         23    2    1    2    0    0  0.35527136788E-14  0.00000000000E+00 -0.28554780838E+03  0.29943402055E+03  0.90128695706E+02 0.  0.
    9000005    2    3    3    0    0 -0.21102988371E+02  0.23891128802E+02 -0.24649509815E+03  0.24902334380E+03  0.15384088939E+02 0.  0.
         22    1    3    3    0    0  0.21102988371E+02 -0.23891128802E+02 -0.39052710234E+02  0.50410676748E+02  0.00000000000E+00 0.  1.
         22    1    4    4    0    0  0.17540451778E+00  0.56761916329E+01 -0.78867062718E+02  0.79071255839E+02  0.00000000000E+00 0. -1.
         22    1    4    4    0    0 -0.21278392889E+02  0.18214937169E+02 -0.16762803543E+03  0.16995208796E+03  0.00000000000E+00 0. -1.
<mgrwt>
<rscale>  0 0.90128696E+02</rscale>
<asrwt>0</asrwt>
<pdfrwt beam="2">  1        1 0.44998593E-01 0.90128696E+02</pdfrwt>
<pdfrwt beam="1">  1       -1 0.10681704E-02 0.90128696E+02</pdfrwt>
<totfact> 0.13148838E+05</totfact>
</mgrwt>
</event>
<event>
 7    1  0.2787125E-009  0.9129049E+02  0.7818608E-02  0.1299756E+00
         -1   -1    0    0    0  501 -0.00000000000E+00  0.00000000000E+00  0.94119251108E+01  0.94119264603E+01  0.50400000000E-02 0.  1.
          1   -1    0    0  501    0  0.00000000000E+00 -0.00000000000E+00 -0.22136686196E+03  0.22136686202E+03  0.50400000000E-02 0. -1.
         23    2    1    2    0    0  0.00000000000E+00  0.00000000000E+00 -0.21195493685E+03  0.23077878848E+03  0.91290492147E+02 0.  0.
    9000005    2    3    3    0    0  0.33984909424E+02  0.11576770635E+02 -0.41671067504E+02  0.56751227885E+02  0.13972412553E+02 0.  0.
         22    1    3    3    0    0 -0.33984909424E+02 -0.11576770635E+02 -0.17028386934E+03  0.17402756059E+03  0.00000000000E+00 0.  1.
         22    1    4    4    0    0 -0.38770722891E+00 -0.41162543664E+00 -0.51671845922E+01  0.51980331862E+01  0.00000000000E+00 0.  1.
         22    1    4    4    0    0  0.34372616653E+02  0.11988396072E+02 -0.36503882912E+02  0.51553194698E+02  0.00000000000E+00 0.  1.
<mgrwt>
<rscale>  0 0.91290492E+02</rscale>
<asrwt>0</asrwt>
<pdfrwt beam="2">  1        1 0.34056436E-01 0.91290492E+02</pdfrwt>
<pdfrwt beam="1">  1       -1 0.14479888E-02 0.91290492E+02</pdfrwt>
<totfact> 0.12036680E+05</totfact>
</mgrwt>
</event>
<event>
 7    1  0.2787125E-009  0.9288622E+02  0.7818608E-02  0.1296009E+00
         -1   -1    0    0    0  501 -0.00000000000E+00  0.00000000000E+00  0.11217771640E+03  0.11217771651E+03  0.50400000000E-02 0.  1.
          1   -1    0    0  501    0  0.00000000000E+00 -0.00000000000E+00 -0.19228084252E+02  0.19228084912E+02  0.50400000000E-02 0. -1.
         23    2    1    2    0    0  0.00000000000E+00  0.17763568394E-14  0.92949632146E+02  0.13140580142E+03  0.92886223584E+02 0.  0.
    9000005    2    3    3    0    0 -0.39822148582E+02  0.11544256624E+02  0.73981167031E+02  0.85811108229E+02  0.13086628344E+02 0.  0.
         22    1    3    3    0    0  0.39822148582E+02 -0.11544256624E+02  0.18968465115E+02  0.45594693195E+02  0.00000000000E+00 0. -1.
         22    1    4    4    0    0 -0.69729247509E+01  0.47558673265E+01  0.72620517462E+01  0.11134511627E+02  0.00000000000E+00 0.  1.
         22    1    4    4    0    0 -0.32849223831E+02  0.67883892980E+01  0.66719115285E+02  0.74676596602E+02  0.00000000000E+00 0.  1.
<mgrwt>
<rscale>  0 0.92886224E+02</rscale>
<asrwt>0</asrwt>
<pdfrwt beam="2">  1        1 0.29581669E-02 0.92886224E+02</pdfrwt>
<pdfrwt beam="1">  1       -1 0.17258110E-01 0.92886224E+02</pdfrwt>
<totfact> 0.75868931E+04</totfact>
</mgrwt>
</event>
<event>
 7    1  0.2787125E-009  0.8977554E+02  0.7818608E-02  0.1303396E+00
          1   -1    0    0  501    0  0.00000000000E+00  0.00000000000E+00  0.88033137274E+02  0.88033137419E+02  0.50400000000E-02 0. -1.
         -1   -1    0    0    0  501 -0.00000000000E+00 -0.00000000000E+00 -0.22888106751E+02  0.22888107305E+02  0.50400000000E-02 0.  1.
         23    2    1    2    0    0  0.35527136788E-14  0.00000000000E+00  0.65145030524E+02  0.11092124472E+03  0.89775539704E+02 0.  0.
    9000005    2    3    3    0    0  0.17075468164E+02  0.29677058304E+02 -0.16047145519E+00  0.37184496821E+02  0.14503849495E+02 0.  0.
         22    1    3    3    0    0 -0.17075468164E+02 -0.29677058304E+02  0.65305501979E+02  0.73736747903E+02  0.00000000000E+00 0. -1.
         22    1    4    4    0    0 -0.21809216521E+01  0.34163260768E+01  0.20561501334E+01  0.45448274430E+01  0.00000000000E+00 0. -1.
         22    1    4    4    0    0  0.19256389816E+02  0.26260732227E+02 -0.22166215886E+01  0.32639669378E+02  0.00000000000E+00 0. -1.
<mgrwt>
<rscale>  0 0.89775540E+02</rscale>
<asrwt>0</asrwt>
<pdfrwt beam="1">  1        1 0.13543560E-01 0.89775540E+02</pdfrwt>
<pdfrwt beam="2">  1       -1 0.35212472E-02 0.89775540E+02</pdfrwt>
<totfact> 0.10671464E+05</totfact>
</mgrwt>
</event>
<event>
 7    1  0.2787125E-009  0.9054889E+02  0.7818608E-02  0.1301528E+00
          1   -1    0    0  501    0  0.00000000000E+00  0.00000000000E+00  0.82852442739E+03  0.82852442740E+03  0.50400000000E-02 0. -1.
         -1   -1    0    0    0  501 -0.00000000000E+00 -0.00000000000E+00 -0.24740047614E+01  0.24740098951E+01  0.50400000000E-02 0.  1.
         23    2    1    2    0    0  0.00000000000E+00  0.00000000000E+00  0.82605042263E+03  0.83099843730E+03  0.90548893262E+02 0.  0.
    9000005    2    3    3    0    0  0.65008695213E+01  0.14795346945E+02  0.80113723394E+03  0.80130280519E+03  0.20382362736E+01 0.  0.
         22    1    3    3    0    0 -0.65008695213E+01 -0.14795346945E+02  0.24913188692E+02  0.29695632112E+02  0.00000000000E+00 0.  1.
         22    1    4    4    0    0  0.20412743384E+01  0.65491369670E+01  0.37108428600E+03  0.37114768666E+03  0.00000000000E+00 0. -1.
         22    1    4    4    0    0  0.44595951829E+01  0.82462099776E+01  0.43005294793E+03  0.43015511853E+03  0.00000000000E+00 0. -1.
<mgrwt>
<rscale>  0 0.90548893E+02</rscale>
<asrwt>0</asrwt>
<pdfrwt beam="1">  1        1 0.12746526E+00 0.90548893E+02</pdfrwt>
<pdfrwt beam="2">  1       -1 0.38061662E-03 0.90548893E+02</pdfrwt>
<totfact> 0.14340508E+05</totfact>
</mgrwt>
</event>
<event>
 7    1  0.2999727E-009  0.9219891E+02  0.7818608E-02  0.1297612E+00
          1   -1    0    0  501    0  0.00000000000E+00  0.00000000000E+00  0.87002745058E+01  0.87002759656E+01  0.50400000000E-02 0. -1.
         -1   -1    0    0    0  501 -0.00000000000E+00 -0.00000000000E+00 -0.24426348249E+03  0.24426348254E+03  0.50400000000E-02 0.  1.
         23    2    1    2    0    0 -0.11102230246E-15  0.00000000000E+00 -0.23556320798E+03  0.25296375851E+03  0.92198905430E+02 0.  0.
    9000005    2    3    3    0    0  0.61828021630E+00 -0.12546994008E+02 -0.23926547757E+03  0.23986734185E+03  0.11426443104E+02 0.  0.
         22    1    3    3    0    0 -0.61828021630E+00  0.12546994008E+02  0.37022695867E+01  0.13096416653E+02  0.00000000000E+00 0. -1.
         22    1    4    4    0    0 -0.62500297279E+00 -0.41775377971E+01 -0.17454570036E+03  0.17459680399E+03  0.00000000000E+00 0.  1.
         22    1    4    4    0    0  0.12432831891E+01 -0.83694562109E+01 -0.64719777211E+02  0.65270537860E+02  0.00000000000E+00 0.  1.
<mgrwt>
<rscale>  0 0.92198905E+02</rscale>
<asrwt>0</asrwt>
<pdfrwt beam="1">  1        1 0.13385041E-02 0.92198905E+02</pdfrwt>
<pdfrwt beam="2">  1       -1 0.37578992E-01 0.92198905E+02</pdfrwt>
<totfact> 0.63397587E+04</totfact>
</mgrwt>
</event>
<event>
 7    1  0.2787125E-009  0.9291871E+02  0.7818608E-02  0.1295934E+00
          1   -1    0    0  501    0  0.00000000000E+00  0.00000000000E+00  0.81559485143E+02  0.81559485298E+02  0.50400000000E-02 0. -1.
         -1   -1    0    0    0  501 -0.00000000000E+00 -0.00000000000E+00 -0.26464998362E+02  0.26464998842E+02  0.50400000000E-02 0.  1.
         23    2    1    2    0    0 -0.35527136788E-14  0.00000000000E+00  0.55094486781E+02  0.10802448414E+03  0.92918710172E+02 0.  0.
    9000005    2    3    3    0    0 -0.20708733763E+02  0.25580179145E+02 -0.75941834486E+01  0.37221471533E+02  0.15638705243E+02 0.  0.
         22    1    3    3    0    0  0.20708733763E+02 -0.25580179145E+02  0.62688670230E+02  0.70803012607E+02  0.00000000000E+00 0. -1.
         22    1    4    4    0    0 -0.38293394291E+01  0.12542184615E+02  0.29311316166E+01  0.13437327410E+02  0.00000000000E+00 0. -1.
         22    1    4    4    0    0 -0.16879394333E+02  0.13037994530E+02 -0.10525315065E+02  0.23784144123E+02  0.00000000000E+00 0. -1.
<mgrwt>
<rscale>  0 0.92918710E+02</rscale>
<asrwt>0</asrwt>
<pdfrwt beam="1">  1        1 0.12547613E-01 0.92918710E+02</pdfrwt>
<pdfrwt beam="2">  1       -1 0.40715383E-02 0.92918710E+02</pdfrwt>
<totfact> 0.95929356E+04</totfact>
</mgrwt>
</event>
<event>
 7    1  0.2787125E-009  0.9351702E+02  0.7818608E-02  0.1294551E+00
         -1   -1    0    0    0  501 -0.00000000000E+00  0.00000000000E+00  0.15452484154E+03  0.15452484162E+03  0.50400000000E-02 0.  1.
          1   -1    0    0  501    0  0.00000000000E+00 -0.00000000000E+00 -0.14148909130E+02  0.14148910028E+02  0.50400000000E-02 0. -1.
         23    2    1    2    0    0  0.00000000000E+00  0.00000000000E+00  0.14037593241E+03  0.16867375165E+03  0.93517015007E+02 0.  0.
    9000005    2    3    3    0    0 -0.25936199553E+02  0.35712777549E+02  0.93396147880E+02  0.10421299551E+03  0.13762959967E+02 0.  0.
         22    1    3    3    0    0  0.25936199553E+02 -0.35712777549E+02  0.46979784529E+02  0.64460756138E+02  0.00000000000E+00 0. -1.
         22    1    4    4    0    0 -0.23204266150E+02  0.30345197898E+02  0.88698433474E+02  0.96574743612E+02  0.00000000000E+00 0. -1.
         22    1    4    4    0    0 -0.27319334037E+01  0.53675796510E+01  0.46977144060E+01  0.76382518990E+01  0.00000000000E+00 0. -1.
<mgrwt>
<rscale>  0 0.93517015E+02</rscale>
<asrwt>0</asrwt>
<pdfrwt beam="2">  1        1 0.21767554E-02 0.93517015E+02</pdfrwt>
<pdfrwt beam="1">  1       -1 0.23773052E-01 0.93517015E+02</pdfrwt>
<totfact> 0.69528271E+04</totfact>
</mgrwt>
</event>
<event>
 7    1  0.2787125E-009  0.9199526E+02  0.7818608E-02  0.1298091E+00
         -1   -1    0    0    0  501 -0.00000000000E+00  0.00000000000E+00  0.29355706896E+01  0.29355750161E+01  0.50400000000E-02 0.  1.
          1   -1    0    0  501    0  0.00000000000E+00 -0.00000000000E+00 -0.72073907380E+03  0.72073907382E+03  0.50400000000E-02 0. -1.
         23    2    1    2    0    0  0.00000000000E+00  0.00000000000E+00 -0.71780350311E+03  0.72367464884E+03  0.91995262308E+02 0.  0.
    9000005    2    3    3    0    0 -0.11013966354E+02 -0.18800264969E+02 -0.67720340274E+03  0.67759726211E+03  0.76709523791E+01 0.  0.
         22    1    3    3    0    0  0.11013966354E+02  0.18800264969E+02 -0.40600100371E+02  0.46077386730E+02  0.00000000000E+00 0.  1.
         22    1    4    4    0    0 -0.20824767480E+01 -0.72523846901E+01 -0.33131992906E+03  0.33140583759E+03  0.00000000000E+00 0. -1.
         22    1    4    4    0    0 -0.89314896058E+01 -0.11547880279E+02 -0.34588347368E+03  0.34619142452E+03  0.00000000000E+00 0. -1.
<mgrwt>
<rscale>  0 0.91995262E+02</rscale>
<asrwt>0</asrwt>
<pdfrwt beam="2">  1        1 0.11088279E+00 0.91995262E+02</pdfrwt>
<pdfrwt beam="1">  1       -1 0.45162717E-03 0.91995262E+02</pdfrwt>
<totfact> 0.13878529E+05</totfact>
</mgrwt>
</event>
<event>
 6    1  0.2787125E-009  0.2065005E+03  0.7818608E-02  0.1144368E+00
          1   -1    0    0  501    0  0.00000000000E+00  0.00000000000E+00  0.84107701493E+02  0.84107701644E+02  0.50400000000E-02 0. -1.
         -1   -1    0    0    0  501 -0.00000000000E+00 -0.00000000000E+00 -0.12674960251E+03  0.12674960261E+03  0.50400000000E-02 0.  1.
    9000005    2    1    2    0    0  0.23494183569E+02 -0.28792538176E+02  0.76362924955E+02  0.86185192214E+02  0.14683464613E+02 0.  0.
         22    1    1    2    0    0 -0.23494183569E+02  0.28792538176E+02 -0.11900482598E+03  0.12467211205E+03  0.00000000000E+00 0.  1.
         22    1    3    3    0    0  0.13157576034E+02 -0.53725473178E+01  0.30862102818E+02  0.33977278616E+02  0.00000000000E+00 0.  1.
         22    1    3    3    0    0  0.10336607536E+02 -0.23419990858E+02  0.45500822137E+02  0.52207913598E+02  0.00000000000E+00 0.  1.
<mgrwt>
<rscale>  0 0.20650054E+03</rscale>
<asrwt>0</asrwt>
<pdfrwt beam="1">  1        1 0.12939646E-01 0.20650054E+03</pdfrwt>
<pdfrwt beam="2">  1       -1 0.19499939E-01 0.20650054E+03</pdfrwt>
<totfact> 0.92626870E+03</totfact>
</mgrwt>
</event>
<event>
 7    1  0.2787125E-009  0.9032863E+02  0.7818608E-02  0.1302058E+00
          1   -1    0    0  501    0  0.00000000000E+00  0.00000000000E+00  0.19359199453E+03  0.19359199460E+03  0.50400000000E-02 0. -1.
         -1   -1    0    0    0  501 -0.00000000000E+00 -0.00000000000E+00 -0.10536672038E+02  0.10536673243E+02  0.50400000000E-02 0.  1.
         23    2    1    2    0    0 -0.71054273576E-14  0.00000000000E+00  0.18305532249E+03  0.20412866784E+03  0.90328633007E+02 0.  0.
    9000005    2    3    3    0    0 -0.43218777491E+02 -0.21763748890E+01  0.71841242523E+02  0.84792290657E+02  0.12488758630E+02 0.  0.
         22    1    3    3    0    0  0.43218777491E+02  0.21763748890E+01  0.11121407997E+03  0.11933637718E+03  0.00000000000E+00 0. -1.
         22    1    4    4    0    0 -0.88288647108E+01  0.15935093240E+01  0.73108461252E+01  0.11573097905E+02  0.00000000000E+00 0.  1.
         22    1    4    4    0    0 -0.34389912780E+02 -0.37698842130E+01  0.64530396398E+02  0.73219192752E+02  0.00000000000E+00 0.  1.
<mgrwt>
<rscale>  0 0.90328633E+02</rscale>
<asrwt>0</asrwt>
<pdfrwt beam="1">  1        1 0.29783384E-01 0.90328633E+02</pdfrwt>
<pdfrwt beam="2">  1       -1 0.16210265E-02 0.90328633E+02</pdfrwt>
<totfact> 0.12064706E+05</totfact>
</mgrwt>
</event>
<event>
 7    1  0.2787125E-009  0.9129957E+02  0.7818608E-02  0.1299735E+00
         -1   -1    0    0    0  501 -0.00000000000E+00  0.00000000000E+00  0.14627167832E+03  0.14627167840E+03  0.50400000000E-02 0.  1.
          1   -1    0    0  501    0  0.00000000000E+00 -0.00000000000E+00 -0.14246796151E+02  0.14246797043E+02  0.50400000000E-02 0. -1.
         23    2    1    2    0    0  0.00000000000E+00  0.00000000000E+00  0.13202488216E+03  0.16051847544E+03  0.91299569817E+02 0.  0.
    9000005    2    3    3    0    0  0.13782224899E+02  0.27930967845E+02  0.12395241849E+03  0.12834312218E+03  0.11733127186E+02 0.  0.
         22    1    3    3    0    0 -0.13782224899E+02 -0.27930967845E+02  0.80724636734E+01  0.32175353264E+02  0.00000000000E+00 0. -1.
         22    1    4    4    0    0  0.74463485817E+01  0.45415779029E+01  0.41337713465E+02  0.42247847183E+02  0.00000000000E+00 0.  1.
         22    1    4    4    0    0  0.63358763169E+01  0.23389389942E+02  0.82614705025E+02  0.86095274998E+02  0.00000000000E+00 0.  1.
<mgrwt>
<rscale>  0 0.91299570E+02</rscale>
<asrwt>0</asrwt>
<pdfrwt beam="2">  1        1 0.21918148E-02 0.91299570E+02</pdfrwt>
<pdfrwt beam="1">  1       -1 0.22503335E-01 0.91299570E+02</pdfrwt>
<totfact> 0.74964667E+04</totfact>
</mgrwt>
</event>
<event>
 7    1  0.2787125E-009  0.9197991E+02  0.7818608E-02  0.1298127E+00
         -1   -1    0    0    0  501 -0.00000000000E+00  0.00000000000E+00  0.11748277723E+02  0.11748278804E+02  0.50400000000E-02 0. -1.
          1   -1    0    0  501    0  0.00000000000E+00 -0.00000000000E+00 -0.18003286290E+03  0.18003286297E+03  0.50400000000E-02 0.  1.
         23    2    1    2    0    0  0.00000000000E+00  0.00000000000E+00 -0.16828458518E+03  0.19178114177E+03  0.91979914829E+02 0.  0.
    9000005    2    3    3    0    0 -0.27252107190E+02  0.35936919327E+02 -0.10015710076E+03  0.11007744755E+03  0.71735701992E+01 0.  0.
         22    1    3    3    0    0  0.27252107190E+02 -0.35936919327E+02 -0.68127484421E+02  0.81703694228E+02  0.00000000000E+00 0. -1.
         22    1    4    4    0    0 -0.15748775382E+02  0.15517059425E+02 -0.52650926511E+02  0.57104493008E+02  0.00000000000E+00 0. -1.
         22    1    4    4    0    0 -0.11503331808E+02  0.20419859902E+02 -0.47506174244E+02  0.52972954537E+02  0.00000000000E+00 0. -1.
<mgrwt>
<rscale>  0 0.91979915E+02</rscale>
<asrwt>0</asrwt>
<pdfrwt beam="2">  1        1 0.27697362E-01 0.91979915E+02</pdfrwt>
<pdfrwt beam="1">  1       -1 0.18074276E-02 0.91979915E+02</pdfrwt>
<totfact> 0.11332449E+05</totfact>
</mgrwt>
</event>
<event>
 7    1  0.2787125E-009  0.9218522E+02  0.7818608E-02  0.1297645E+00
          1   -1    0    0  501    0  0.00000000000E+00  0.00000000000E+00  0.11755384375E+02  0.11755385456E+02  0.50400000000E-02 0. -1.
         -1   -1    0    0    0  501 -0.00000000000E+00 -0.00000000000E+00 -0.18072811641E+03  0.18072811648E+03  0.50400000000E-02 0.  1.
         23    2    1    2    0    0  0.00000000000E+00  0.00000000000E+00 -0.16897273203E+03  0.19248350193E+03  0.92185217612E+02 0.  0.
    9000005    2    3    3    0    0  0.28088956582E+02  0.21038221290E+02 -0.14546923636E+03  0.15024595293E+03  0.13451817991E+02 0.  0.
         22    1    3    3    0    0 -0.28088956582E+02 -0.21038221290E+02 -0.23503495666E+02  0.42237548999E+02  0.00000000000E+00 0. -1.
         22    1    4    4    0    0  0.13957110739E+02  0.79557266381E+01 -0.41358995092E+02  0.44369595463E+02  0.00000000000E+00 0.  1.
         22    1    4    4    0    0  0.14131845843E+02  0.13082494652E+02 -0.10411024127E+03  0.10587635747E+03  0.00000000000E+00 0.  1.
<mgrwt>
<rscale>  0 0.92185218E+02</rscale>
<asrwt>0</asrwt>
<pdfrwt beam="1">  1        1 0.18085209E-02 0.92185218E+02</pdfrwt>
<pdfrwt beam="2">  1       -1 0.27804324E-01 0.92185218E+02</pdfrwt>
<totfact> 0.69376038E+04</totfact>
</mgrwt>
</event>
<event>
 7    1  0.2787125E-009  0.8170386E+02  0.7818608E-02  0.1324285E+00
         -1   -1    0    0    0  501 -0.00000000000E+00  0.00000000000E+00  0.38074298800E+02  0.38074299134E+02  0.50400000000E-02 0.  1.
          1   -1    0    0  501    0  0.00000000000E+00 -0.00000000000E+00 -0.43832197486E+02  0.43832197776E+02  0.50400000000E-02 0. -1.
         23    2    1    2    0    0  0.35527136788E-14  0.00000000000E+00 -0.57578986856E+01  0.81906496910E+02  0.81703860611E+02 0.  0.
    9000005    2    3    3    0    0  0.26881527013E+02 -0.27706479428E+02 -0.12430591430E+02  0.42730096803E+02  0.13456450968E+02 0.  0.
         22    1    3    3    0    0 -0.26881527013E+02  0.27706479428E+02  0.66726927446E+01  0.39176400107E+02  0.00000000000E+00 0.  1.
         22    1    4    4    0    0  0.20722544634E+02 -0.22524997262E+02 -0.36585254990E+01  0.30825057446E+02  0.00000000000E+00 0.  1.
         22    1    4    4    0    0  0.61589823796E+01 -0.51814821660E+01 -0.87720659312E+01  0.11905039357E+02  0.00000000000E+00 0.  1.
<mgrwt>
<rscale>  0 0.81703861E+02</rscale>
<asrwt>0</asrwt>
<pdfrwt beam="2">  1        1 0.67434151E-02 0.81703861E+02</pdfrwt>
<pdfrwt beam="1">  1       -1 0.58575845E-02 0.81703861E+02</pdfrwt>
<totfact> 0.12477595E+05</totfact>
</mgrwt>
</event>
<event>
 7    1  0.2787125E-009  0.9751001E+02  0.7818608E-02  0.1285621E+00
         -1   -1    0    0    0  501 -0.00000000000E+00  0.00000000000E+00  0.15259148813E+02  0.15259149645E+02  0.50400000000E-02 0.  1.
          1   -1    0    0  501    0  0.00000000000E+00 -0.00000000000E+00 -0.15577869105E+03  0.15577869113E+03  0.50400000000E-02 0. -1.
         23    2    1    2    0    0  0.00000000000E+00  0.00000000000E+00 -0.14051954224E+03  0.17103784078E+03  0.97510005778E+02 0.  0.
    9000005    2    3    3    0    0  0.33271783560E+02  0.22758326811E+02 -0.11724702117E+03  0.12449148477E+03  0.11238896138E+02 0.  0.
         22    1    3    3    0    0 -0.33271783560E+02 -0.22758326811E+02 -0.23272521063E+02  0.46546356003E+02  0.00000000000E+00 0. -1.
         22    1    4    4    0    0  0.28861898566E+02  0.15208077559E+02 -0.99418013030E+02  0.10463381923E+03  0.00000000000E+00 0.  1.
         22    1    4    4    0    0  0.44098849942E+01  0.75502492513E+01 -0.17829008143E+02  0.19857665542E+02  0.00000000000E+00 0.  1.
<mgrwt>
<rscale>  0 0.97510006E+02</rscale>
<asrwt>0</asrwt>
<pdfrwt beam="2">  1        1 0.23965951E-01 0.97510006E+02</pdfrwt>
<pdfrwt beam="1">  1       -1 0.23475615E-02 0.97510006E+02</pdfrwt>
<totfact> 0.94142494E+04</totfact>
</mgrwt>
</event>
<event>
 7    1  0.2787125E-009  0.8179851E+02  0.7818608E-02  0.1324024E+00
          1   -1    0    0  501    0  0.00000000000E+00  0.00000000000E+00  0.65077934108E+02  0.65077934303E+02  0.50400000000E-02 0. -1.
         -1   -1    0    0    0  501 -0.00000000000E+00 -0.00000000000E+00 -0.25703780501E+02  0.25703780996E+02  0.50400000000E-02 0.  1.
         23    2    1    2    0    0  0.00000000000E+00 -0.17763568394E-14  0.39374153606E+02  0.90781715298E+02  0.81798507690E+02 0.  0.
    9000005    2    3    3    0    0  0.32273872845E+02  0.11089625122E+02  0.43146742814E+02  0.56447838688E+02  0.12654423077E+02 0.  0.
         22    1    3    3    0    0 -0.32273872845E+02 -0.11089625122E+02 -0.37725892077E+01  0.34333876610E+02  0.00000000000E+00 0. -1.
         22    1    4    4    0    0  0.56559621149E+01 -0.27589521531E+01  0.59806056146E+01  0.86815533141E+01  0.00000000000E+00 0.  1.
         22    1    4    4    0    0  0.26617910730E+02  0.13848577275E+02  0.37166137199E+02  0.47766285374E+02  0.00000000000E+00 0.  1.
<mgrwt>
<rscale>  0 0.81798508E+02</rscale>
<asrwt>0</asrwt>
<pdfrwt beam="1">  1        1 0.10011990E-01 0.81798508E+02</pdfrwt>
<pdfrwt beam="2">  1       -1 0.39544279E-02 0.81798508E+02</pdfrwt>
<totfact> 0.13138695E+05</totfact>
</mgrwt>
</event>
<event>
 7    1  0.2787125E-009  0.9127543E+02  0.7818608E-02  0.1299792E+00
          1   -1    0    0  501    0  0.00000000000E+00  0.00000000000E+00  0.12125113647E+02  0.12125114695E+02  0.50400000000E-02 0. -1.
         -1   -1    0    0    0  501 -0.00000000000E+00 -0.00000000000E+00 -0.17177578475E+03  0.17177578483E+03  0.50400000000E-02 0.  1.
         23    2    1    2    0    0  0.00000000000E+00  0.00000000000E+00 -0.15965067110E+03  0.18390089952E+03  0.91275429663E+02 0.  0.
    9000005    2    3    3    0    0  0.34362190380E+02 -0.27856661222E+02 -0.96063542788E+02  0.10644073821E+03  0.12028000515E+02 0.  0.
         22    1    3    3    0    0 -0.34362190380E+02  0.27856661222E+02 -0.63587128317E+02  0.77460161307E+02  0.00000000000E+00 0.  1.
         22    1    4    4    0    0  0.28714171190E+01 -0.29325832981E+01 -0.20096150767E+02  0.20510981369E+02  0.00000000000E+00 0. -1.
         22    1    4    4    0    0  0.31490773261E+02 -0.24924077923E+02 -0.75967392020E+02  0.85929756844E+02  0.00000000000E+00 0. -1.
<mgrwt>
<rscale>  0 0.91275430E+02</rscale>
<asrwt>0</asrwt>
<pdfrwt beam="1">  1        1 0.18654023E-02 0.91275430E+02</pdfrwt>
<pdfrwt beam="2">  1       -1 0.26427042E-01 0.91275430E+02</pdfrwt>
<totfact> 0.72142876E+04</totfact>
</mgrwt>
</event>
<event>
 6    1  0.2787125E-009  0.1355887E+03  0.7818608E-02  0.1219391E+00
          1   -1    0    0  501    0  0.00000000000E+00  0.00000000000E+00  0.31329587944E+03  0.31329587948E+03  0.50400000000E-02 0. -1.
         -1   -1    0    0    0  501 -0.00000000000E+00 -0.00000000000E+00 -0.14670079762E+02  0.14670080628E+02  0.50400000000E-02 0.  1.
    9000005    2    1    2    0    0  0.34870825796E+02  0.47883001038E+02  0.75727133203E+02  0.97330811451E+02  0.15163504688E+02 0.  0.
         22    1    1    2    0    0 -0.34870825796E+02 -0.47883001038E+02  0.22289866647E+03  0.23063514865E+03  0.00000000000E+00 0. -1.
         22    1    3    3    0    0  0.76252514106E-01  0.17490336834E+01  0.85192331397E+01  0.86972562662E+01  0.00000000000E+00 0.  1.
         22    1    3    3    0    0  0.34794573282E+02  0.46133967355E+02  0.67207900063E+02  0.88633555185E+02  0.00000000000E+00 0.  1.
<mgrwt>
<rscale>  0 0.13558873E+03</rscale>
<asrwt>0</asrwt>
<pdfrwt beam="1">  1        1 0.48199367E-01 0.13558873E+03</pdfrwt>
<pdfrwt beam="2">  1       -1 0.22569354E-02 0.13558873E+03</pdfrwt>
<totfact> 0.43896307E+04</totfact>
</mgrwt>
</event>
<event>
 7    1  0.2787125E-009  0.9424148E+02  0.7818608E-02  0.1292894E+00
          1   -1    0    0  501    0  0.00000000000E+00  0.00000000000E+00  0.85382507778E+03  0.85382507779E+03  0.50400000000E-02 0. -1.
         -1   -1    0    0    0  501 -0.00000000000E+00 -0.00000000000E+00 -0.26004884156E+01  0.26004932996E+01  0.50400000000E-02 0.  1.
         23    2    1    2    0    0  0.17763568394E-14  0.00000000000E+00  0.85122458936E+03  0.85642557109E+03  0.94241483890E+02 0.  0.
    9000005    2    3    3    0    0  0.14720743400E+02  0.23758961521E+01  0.83129407164E+03  0.83153439383E+03  0.13314255923E+02 0.  0.
         22    1    3    3    0    0 -0.14720743400E+02 -0.23758961521E+01  0.19930517722E+02  0.24891177261E+02  0.00000000000E+00 0.  1.
         22    1    4    4    0    0  0.14715543390E+02  0.14092504522E+01  0.82703064725E+03  0.82716275587E+03  0.00000000000E+00 0. -1.
         22    1    4    4    0    0  0.52000108383E-02  0.96664569996E+00  0.42634243907E+01  0.43716379636E+01  0.00000000000E+00 0. -1.
<mgrwt>
<rscale>  0 0.94241484E+02</rscale>
<asrwt>0</asrwt>
<pdfrwt beam="1">  1        1 0.13135775E+00 0.94241484E+02</pdfrwt>
<pdfrwt beam="2">  1       -1 0.40007539E-03 0.94241484E+02</pdfrwt>
<totfact> 0.12853767E+05</totfact>
</mgrwt>
</event>
<event>
 7    1  0.2787125E-009  0.8834138E+02  0.7818608E-02  0.1306919E+00
          1   -1    0    0  501    0  0.00000000000E+00  0.00000000000E+00  0.72300975556E+02  0.72300975732E+02  0.50400000000E-02 0. -1.
         -1   -1    0    0    0  501 -0.00000000000E+00 -0.00000000000E+00 -0.26985107620E+02  0.26985108091E+02  0.50400000000E-02 0.  1.
         23    2    1    2    0    0  0.00000000000E+00  0.00000000000E+00  0.45315867936E+02  0.99286083823E+02  0.88341375097E+02 0.  0.
    9000005    2    3    3    0    0  0.38966357541E+02 -0.20374095122E+02  0.26042618020E+02  0.51276304252E+02  0.41905432056E+01 0.  0.
         22    1    3    3    0    0 -0.38966357541E+02  0.20374095122E+02  0.19273249916E+02  0.48009779570E+02  0.00000000000E+00 0.  1.
         22    1    4    4    0    0  0.15437500315E+02 -0.68824640981E+01  0.79930129774E+01  0.18696870981E+02  0.00000000000E+00 0.  1.
         22    1    4    4    0    0  0.23528857227E+02 -0.13491631024E+02  0.18049605043E+02  0.32579433271E+02  0.00000000000E+00 0.  1.
<mgrwt>
<rscale>  0 0.88341375E+02</rscale>
<asrwt>0</asrwt>
<pdfrwt beam="1">  1        1 0.11123227E-01 0.88341375E+02</pdfrwt>
<pdfrwt beam="2">  1       -1 0.41515551E-02 0.88341375E+02</pdfrwt>
<totfact> 0.10814914E+05</totfact>
</mgrwt>
</event>
<event>
 7    1  0.2787125E-009  0.9207686E+02  0.7818608E-02  0.1297899E+00
         -1   -1    0    0    0  501 -0.00000000000E+00  0.00000000000E+00  0.11180191444E+03  0.11180191456E+03  0.50400000000E-02 0.  1.
          1   -1    0    0  501    0  0.00000000000E+00 -0.00000000000E+00 -0.18957967592E+02  0.18957968262E+02  0.50400000000E-02 0. -1.
         23    2    1    2    0    0  0.35527136788E-14  0.00000000000E+00  0.92843946851E+02  0.13075988282E+03  0.92076861848E+02 0.  0.
    9000005    2    3    3    0    0 -0.19872473077E+02  0.37495634866E+02  0.24567151895E+02  0.50369842703E+02  0.11521210071E+02 0.  0.
         22    1    3    3    0    0  0.19872473077E+02 -0.37495634866E+02  0.68276794956E+02  0.80390040115E+02  0.00000000000E+00 0. -1.
         22    1    4    4    0    0 -0.50643892742E+01  0.18788876901E+02  0.15380842731E+02  0.24804037112E+02  0.00000000000E+00 0. -1.
         22    1    4    4    0    0 -0.14808083803E+02  0.18706757965E+02  0.91863091638E+01  0.25565805591E+02  0.00000000000E+00 0. -1.
<mgrwt>
<rscale>  0 0.92076862E+02</rscale>
<asrwt>0</asrwt>
<pdfrwt beam="2">  1        1 0.29166104E-02 0.92076862E+02</pdfrwt>
<pdfrwt beam="1">  1       -1 0.17200295E-01 0.92076862E+02</pdfrwt>
<totfact> 0.77656694E+04</totfact>
</mgrwt>
</event>
<event>
 7    1  0.2787125E-009  0.9397799E+02  0.7818608E-02  0.1293495E+00
         -1   -1    0    0    0  501 -0.00000000000E+00  0.00000000000E+00  0.15334637547E+02  0.15334638375E+02  0.50400000000E-02 0.  1.
          1   -1    0    0  501    0  0.00000000000E+00 -0.00000000000E+00 -0.14398550154E+03  0.14398550163E+03  0.50400000000E-02 0. -1.
         23    2    1    2    0    0 -0.17763568394E-14  0.71054273576E-14 -0.12865086400E+03  0.15932014001E+03  0.93977987873E+02 0.  0.
    9000005    2    3    3    0    0  0.84007331080E+01 -0.40666051516E+02 -0.10155475458E+03  0.10973688469E+03  0.21249988605E+01 0.  0.
         22    1    3    3    0    0 -0.84007331080E+01  0.40666051516E+02 -0.27096109415E+02  0.49583255320E+02  0.00000000000E+00 0.  1.
         22    1    4    4    0    0  0.57072732665E+01 -0.22945379183E+02 -0.56551393976E+02  0.61295379553E+02  0.00000000000E+00 0. -1.
         22    1    4    4    0    0  0.26934598415E+01 -0.17720672333E+02 -0.45003360604E+02  0.48441505133E+02  0.00000000000E+00 0. -1.
<mgrwt>
<rscale>  0 0.93977988E+02</rscale>
<asrwt>0</asrwt>
<pdfrwt beam="2">  1        1 0.22151615E-01 0.93977988E+02</pdfrwt>
<pdfrwt beam="1">  1       -1 0.23591752E-02 0.93977988E+02</pdfrwt>
<totfact> 0.10254193E+05</totfact>
</mgrwt>
</event>
<event>
 7    1  0.2787125E-009  0.9003927E+02  0.7818608E-02  0.1302757E+00
         -1   -1    0    0    0  501 -0.00000000000E+00  0.00000000000E+00  0.13365926092E+03  0.13365926101E+03  0.50400000000E-02 0.  1.
          1   -1    0    0  501    0  0.00000000000E+00 -0.00000000000E+00 -0.15163689048E+02  0.15163689886E+02  0.50400000000E-02 0. -1.
         23    2    1    2    0    0  0.00000000000E+00  0.00000000000E+00  0.11849557187E+03  0.14882295090E+03  0.90039270108E+02 0.  0.
    9000005    2    3    3    0    0  0.10156337569E+02 -0.29200788106E+02  0.92435640930E+01  0.35280719011E+02  0.14263535254E+02 0.  0.
         22    1    3    3    0    0 -0.10156337569E+02  0.29200788106E+02  0.10925200778E+03  0.11354223189E+03  0.00000000000E+00 0.  1.
         22    1    4    4    0    0  0.10298565645E+02 -0.11063731336E+02  0.79971657920E+01  0.17100329416E+02  0.00000000000E+00 0.  1.
         22    1    4    4    0    0 -0.14222807561E+00 -0.18137056770E+02  0.12463983011E+01  0.18180389595E+02  0.00000000000E+00 0.  1.
<mgrwt>
<rscale>  0 0.90039270E+02</rscale>
<asrwt>0</asrwt>
<pdfrwt beam="2">  1        1 0.23328753E-02 0.90039270E+02</pdfrwt>
<pdfrwt beam="1">  1       -1 0.20562964E-01 0.90039270E+02</pdfrwt>
<totfact> 0.79297680E+04</totfact>
</mgrwt>
</event>
<event>
 7    1  0.2787125E-009  0.9113366E+02  0.7818608E-02  0.1300129E+00
          1   -1    0    0  501    0  0.00000000000E+00  0.00000000000E+00  0.55658375777E+03  0.55658375779E+03  0.50400000000E-02 0. -1.
         -1   -1    0    0    0  501 -0.00000000000E+00 -0.00000000000E+00 -0.37304988329E+01  0.37305022375E+01  0.50400000000E-02 0.  1.
         23    2    1    2    0    0 -0.44408920985E-15  0.00000000000E+00  0.55285325893E+03  0.56031426003E+03  0.91133660499E+02 0.  0.
    9000005    2    3    3    0    0 -0.21733961404E+01 -0.32951703580E+02  0.46539361253E+03  0.46682774673E+03  0.15696882248E+02 0.  0.
         22    1    3    3    0    0  0.21733961404E+01  0.32951703580E+02  0.87459646399E+02  0.93486513293E+02  0.00000000000E+00 0.  1.
         22    1    4    4    0    0  0.18252272725E+01 -0.18477459500E+02  0.34531819680E+03  0.34581701087E+03  0.00000000000E+00 0. -1.
         22    1    4    4    0    0 -0.39986234130E+01 -0.14474244080E+02  0.12007541573E+03  0.12101073586E+03  0.00000000000E+00 0. -1.
<mgrwt>
<rscale>  0 0.91133660E+02</rscale>
<asrwt>0</asrwt>
<pdfrwt beam="1">  1        1 0.85628253E-01 0.91133660E+02</pdfrwt>
<pdfrwt beam="2">  1       -1 0.57392328E-03 0.91133660E+02</pdfrwt>
<totfact> 0.14098536E+05</totfact>
</mgrwt>
</event>
<event>
 7    1  0.2787125E-009  0.9131696E+02  0.7818608E-02  0.1299693E+00
          1   -1    0    0  501    0  0.00000000000E+00  0.00000000000E+00  0.65995689782E+02  0.65995689975E+02  0.50400000000E-02 0. -1.
         -1   -1    0    0    0  501 -0.00000000000E+00 -0.00000000000E+00 -0.31588381012E+02  0.31588381414E+02  0.50400000000E-02 0.  1.
         23    2    1    2    0    0 -0.35527136788E-14  0.00000000000E+00  0.34407308771E+02  0.97584071389E+02  0.91316964973E+02 0.  0.
    9000005    2    3    3    0    0  0.16941084680E+02 -0.58137939881E+01  0.61860587340E+02  0.64804763054E+02  0.72197297493E+01 0.  0.
         22    1    3    3    0    0 -0.16941084680E+02  0.58137939881E+01 -0.27453278570E+02  0.32779308335E+02  0.00000000000E+00 0.  1.
         22    1    4    4    0    0  0.16848563776E+01  0.35740249374E+00  0.15778167675E+02  0.15871895059E+02  0.00000000000E+00 0. -1.
         22    1    4    4    0    0  0.15256228303E+02 -0.61711964819E+01  0.46082419665E+02  0.48932867995E+02  0.00000000000E+00 0. -1.
<mgrwt>
<rscale>  0 0.91316965E+02</rscale>
<asrwt>0</asrwt>
<pdfrwt beam="1">  1        1 0.10153183E-01 0.91316965E+02</pdfrwt>
<pdfrwt beam="2">  1       -1 0.48597510E-02 0.91316965E+02</pdfrwt>
<totfact> 0.97363288E+04</totfact>
</mgrwt>
</event>
<event>
 7    1  0.2787125E-009  0.8915060E+02  0.7818608E-02  0.1304922E+00
          1   -1    0    0  501    0  0.00000000000E+00  0.00000000000E+00  0.13623075157E+03  0.13623075166E+03  0.50400000000E-02 0. -1.
         -1   -1    0    0    0  501 -0.00000000000E+00 -0.00000000000E+00 -0.14585233540E+02  0.14585234410E+02  0.50400000000E-02 0.  1.
         23    2    1    2    0    0  0.00000000000E+00  0.00000000000E+00  0.12164551803E+03  0.15081598607E+03  0.89150600662E+02 0.  0.
    9000005    2    3    3    0    0 -0.21966935014E+02 -0.27909814589E+02  0.10561229271E+03  0.11184717420E+03  0.97123643716E+01 0.  0.
         22    1    3    3    0    0  0.21966935014E+02  0.27909814589E+02  0.16033225319E+02  0.38968811868E+02  0.00000000000E+00 0.  1.
         22    1    4    4    0    0 -0.13691478711E+01 -0.64586946824E+01  0.27061423099E+02  0.27855159721E+02  0.00000000000E+00 0.  1.
         22    1    4    4    0    0 -0.20597787143E+02 -0.21451119906E+02  0.78550869611E+02  0.83992014484E+02  0.00000000000E+00 0.  1.
<mgrwt>
<rscale>  0 0.89150601E+02</rscale>
<asrwt>0</asrwt>
<pdfrwt beam="1">  1        1 0.20958576E-01 0.89150601E+02</pdfrwt>
<pdfrwt beam="2">  1       -1 0.22438823E-02 0.89150601E+02</pdfrwt>
<totfact> 0.11707402E+05</totfact>
</mgrwt>
</event>
<event>
 6    1  0.2787125E-009  0.3716478E+02  0.7818608E-02  0.1530176E+00
          1   -1    0    0  501    0  0.00000000000E+00  0.00000000000E+00  0.60478807485E+01  0.60478828485E+01  0.50400000000E-02 0. -1.
         -1   -1    0    0    0  501 -0.00000000000E+00 -0.00000000000E+00 -0.57095225524E+02  0.57095225746E+02  0.50400000000E-02 0.  1.
    9000005    2    1    2    0    0 -0.74314879914E+01  0.12793561988E+02 -0.18453304520E+02  0.27348224851E+02  0.13729483336E+02 0.  0.
         22    1    1    2    0    0  0.74314879914E+01 -0.12793561988E+02 -0.32594040255E+02  0.35794883744E+02  0.00000000000E+00 0.  1.
         22    1    3    3    0    0  0.29183764223E+01  0.60553902952E+01 -0.24967697164E+01  0.71706716273E+01  0.00000000000E+00 0. -1.
         22    1    3    3    0    0 -0.10349864414E+02  0.67381716925E+01 -0.15956534804E+02  0.20177553223E+02  0.00000000000E+00 0. -1.
<mgrwt>
<rscale>  0 0.37164778E+02</rscale>
<asrwt>0</asrwt>
<pdfrwt beam="1">  1        1 0.93044341E-03 0.37164778E+02</pdfrwt>
<pdfrwt beam="2">  1       -1 0.87838807E-02 0.37164778E+02</pdfrwt>
<totfact> 0.82739494E+05</totfact>
</mgrwt>
</event>
<event>
 7    1  0.2787125E-009  0.7840437E+02  0.7818608E-02  0.1333642E+00
          1   -1    0    0  501    0  0.00000000000E+00  0.00000000000E+00  0.12258079202E+02  0.12258080239E+02  0.50400000000E-02 0. -1.
         -1   -1    0    0    0  501 -0.00000000000E+00 -0.00000000000E+00 -0.12537129169E+03  0.12537129179E+03  0.50400000000E-02 0.  1.
         23    2    1    2    0    0  0.00000000000E+00  0.77715611724E-15 -0.11311321249E+03  0.13762937203E+03  0.78404369815E+02 0.  0.
    9000005    2    3    3    0    0 -0.37489478184E+02  0.46124934335E+00 -0.67886525646E+02  0.78883079142E+02  0.14432119914E+02 0.  0.
         22    1    3    3    0    0  0.37489478184E+02 -0.46124934335E+00 -0.45226686843E+02  0.58746292889E+02  0.00000000000E+00 0. -1.
         22    1    4    4    0    0 -0.19676011836E+02 -0.65381429165E+01 -0.40095800257E+02  0.45139405765E+02  0.00000000000E+00 0.  1.
         22    1    4    4    0    0 -0.17813466348E+02  0.69993922599E+01 -0.27790725389E+02  0.33743673377E+02  0.00000000000E+00 0.  1.
<mgrwt>
<rscale>  0 0.78404370E+02</rscale>
<asrwt>0</asrwt>
<pdfrwt beam="1">  1        1 0.18858585E-02 0.78404370E+02</pdfrwt>
<pdfrwt beam="2">  1       -1 0.19287890E-01 0.78404370E+02</pdfrwt>
<totfact> 0.11481580E+05</totfact>
</mgrwt>
</event>
<event>
 7    1  0.3317816E-009  0.9220172E+02  0.7818608E-02  0.1297606E+00
         -1   -1    0    0    0  501 -0.00000000000E+00  0.00000000000E+00  0.66513473943E+01  0.66513493038E+01  0.50400000000E-02 0.  1.
          1   -1    0    0  501    0  0.00000000000E+00 -0.00000000000E+00 -0.31952760982E+03  0.31952760986E+03  0.50400000000E-02 0. -1.
         23    2    1    2    0    0  0.00000000000E+00  0.00000000000E+00 -0.31287626243E+03  0.32617895916E+03  0.92201723474E+02 0.  0.
    9000005    2    3    3    0    0 -0.22312887911E+02 -0.37695121107E+02 -0.12712887158E+03  0.13533640540E+03  0.15342930436E+02 0.  0.
         22    1    3    3    0    0  0.22312887911E+02  0.37695121107E+02 -0.18574739085E+03  0.19084255377E+03  0.00000000000E+00 0.  1.
         22    1    4    4    0    0 -0.14411120630E+02 -0.14766933725E+02 -0.75941106994E+02  0.78694310220E+02  0.00000000000E+00 0. -1.
         22    1    4    4    0    0 -0.79017672813E+01 -0.22928187381E+02 -0.51187764586E+02  0.56642095178E+02  0.00000000000E+00 0. -1.
<mgrwt>
<rscale>  0 0.92201723E+02</rscale>
<asrwt>0</asrwt>
<pdfrwt beam="2">  1        1 0.49158082E-01 0.92201723E+02</pdfrwt>
<pdfrwt beam="1">  1       -1 0.10232846E-02 0.92201723E+02</pdfrwt>
<totfact> 0.12584960E+05</totfact>
</mgrwt>
</event>
<event>
 7    1  0.2787125E-009  0.9195977E+02  0.7818608E-02  0.1298174E+00
         -1   -1    0    0    0  501 -0.00000000000E+00  0.00000000000E+00  0.14531141005E+02  0.14531141879E+02  0.50400000000E-02 0.  1.
          1   -1    0    0  501    0  0.00000000000E+00 -0.00000000000E+00 -0.14549096747E+03  0.14549096756E+03  0.50400000000E-02 0. -1.
         23    2    1    2    0    0  0.71054273576E-14 -0.55511151231E-16 -0.13095982646E+03  0.16002210943E+03  0.91959770338E+02 0.  0.
    9000005    2    3    3    0    0  0.39917854609E+02  0.22677628380E+00 -0.10292492642E+03  0.11124258335E+03  0.13707126945E+02 0.  0.
         22    1    3    3    0    0 -0.39917854609E+02 -0.22677628380E+00 -0.28034900044E+02  0.48779526080E+02  0.00000000000E+00 0.  1.
         22    1    4    4    0    0  0.35748476832E+02  0.31721831721E+01 -0.96974760808E+02  0.10340271068E+03  0.00000000000E+00 0.  1.
         22    1    4    4    0    0  0.41693777772E+01 -0.29454068883E+01 -0.59501656102E+01  0.78398726759E+01  0.00000000000E+00 0.  1.
<mgrwt>
<rscale>  0 0.91959770E+02</rscale>
<asrwt>0</asrwt>
<pdfrwt beam="2">  1        1 0.22383225E-01 0.91959770E+02</pdfrwt>
<pdfrwt beam="1">  1       -1 0.22355603E-02 0.91959770E+02</pdfrwt>
<totfact> 0.10895949E+05</totfact>
</mgrwt>
</event>
<event>
 7    1  0.2787125E-009  0.9291641E+02  0.7818608E-02  0.1295939E+00
         -1   -1    0    0    0  501 -0.00000000000E+00  0.00000000000E+00  0.77277943580E+02  0.77277943744E+02  0.50400000000E-02 0.  1.
          1   -1    0    0  501    0  0.00000000000E+00 -0.00000000000E+00 -0.27929895344E+02  0.27929895799E+02  0.50400000000E-02 0. -1.
         23    2    1    2    0    0  0.00000000000E+00  0.00000000000E+00  0.49348048236E+02  0.10520783954E+03  0.92916412096E+02 0.  0.
    9000005    2    3    3    0    0  0.10066447417E+02  0.69446171638E+01 -0.23930430883E+02  0.30915871114E+02  0.15282816930E+02 0.  0.
         22    1    3    3    0    0 -0.10066447417E+02 -0.69446171638E+01  0.73278479119E+02  0.74291968430E+02  0.00000000000E+00 0.  1.
         22    1    4    4    0    0  0.47890249615E+01  0.81246161193E+01 -0.23695145973E+02  0.25503021190E+02  0.00000000000E+00 0. -1.
         22    1    4    4    0    0  0.52774224552E+01 -0.11799989555E+01 -0.23528491078E+00  0.54128499236E+01  0.00000000000E+00 0. -1.
<mgrwt>
<rscale>  0 0.92916412E+02</rscale>
<asrwt>0</asrwt>
<pdfrwt beam="2">  1        1 0.42969071E-02 0.92916412E+02</pdfrwt>
<pdfrwt beam="1">  1       -1 0.11888914E-01 0.92916412E+02</pdfrwt>
<totfact> 0.81122616E+04</totfact>
</mgrwt>
</event>
<event>
 7    1  0.2787125E-009  0.1090149E+03  0.7818608E-02  0.1262405E+00
          1   -1    0    0  501    0  0.00000000000E+00  0.00000000000E+00  0.89109003512E+02  0.89109003654E+02  0.50400000000E-02 0. -1.
         -1   -1    0    0    0  501 -0.00000000000E+00 -0.00000000000E+00 -0.33341907684E+02  0.33341908065E+02  0.50400000000E-02 0.  1.
         23    2    1    2    0    0  0.00000000000E+00  0.00000000000E+00  0.55767095828E+02  0.12245091172E+03  0.10901493844E+03 0.  0.
    9000005    2    3    3    0    0 -0.16837805556E+02  0.73376322469E+01 -0.29546165817E+02  0.35182904091E+02  0.52448339228E+01 0.  0.
         22    1    3    3    0    0  0.16837805556E+02 -0.73376322469E+01  0.85313261645E+02  0.87268007628E+02  0.00000000000E+00 0. -1.
         22    1    4    4    0    0 -0.20846413022E+01  0.94629983047E+00 -0.11765331084E+01  0.25739935670E+01  0.00000000000E+00 0.  1.
         22    1    4    4    0    0 -0.14753164253E+02  0.63913324164E+01 -0.28369632709E+02  0.32608910524E+02  0.00000000000E+00 0.  1.
<mgrwt>
<rscale>  0 0.10901494E+03</rscale>
<asrwt>0</asrwt>
<pdfrwt beam="1">  1        1 0.13709077E-01 0.10901494E+03</pdfrwt>
<pdfrwt beam="2">  1       -1 0.51295244E-02 0.10901494E+03</pdfrwt>
<totfact> 0.62476907E+04</totfact>
</mgrwt>
</event>
<event>
 7    1  0.2787125E-009  0.8523622E+02  0.7818608E-02  0.1314816E+00
         -1   -1    0    0    0  501 -0.00000000000E+00  0.00000000000E+00  0.91796093436E+01  0.91796107272E+01  0.50400000000E-02 0.  1.
          1   -1    0    0  501    0  0.00000000000E+00 -0.00000000000E+00 -0.19786277257E+03  0.19786277264E+03  0.50400000000E-02 0. -1.
         23    2    1    2    0    0  0.44408920985E-15  0.71054273576E-14 -0.18868316323E+03  0.20704238336E+03  0.85236215442E+02 0.  0.
    9000005    2    3    3    0    0  0.26531471513E+01 -0.41954951428E+02 -0.87601673732E+02  0.97567616143E+02  0.88390802770E+01 0.  0.
         22    1    3    3    0    0 -0.26531471513E+01  0.41954951428E+02 -0.10108148950E+03  0.10947476722E+03  0.00000000000E+00 0. -1.
         22    1    4    4    0    0  0.45881760825E+01 -0.33746408363E+02 -0.75403755927E+02  0.82738128121E+02  0.00000000000E+00 0.  1.
         22    1    4    4    0    0 -0.19350289312E+01 -0.82085430650E+01 -0.12197917805E+02  0.14829488022E+02  0.00000000000E+00 0.  1.
<mgrwt>
<rscale>  0 0.85236215E+02</rscale>
<asrwt>0</asrwt>
<pdfrwt beam="2">  1        1 0.30440424E-01 0.85236215E+02</pdfrwt>
<pdfrwt beam="1">  1       -1 0.14122478E-02 0.85236215E+02</pdfrwt>
<totfact> 0.14145532E+05</totfact>
</mgrwt>
</event>
<event>
 7    1  0.2787125E-009  0.1004615E+03  0.7818608E-02  0.1279328E+00
         -1   -1    0    0    0  501 -0.00000000000E+00  0.00000000000E+00  0.15762883633E+03  0.15762883641E+03  0.50400000000E-02 0.  1.
          1   -1    0    0  501    0  0.00000000000E+00 -0.00000000000E+00 -0.16006768175E+02  0.16006768968E+02  0.50400000000E-02 0. -1.
         23    2    1    2    0    0  0.00000000000E+00  0.00000000000E+00  0.14162206815E+03  0.17363560538E+03  0.10046150142E+03 0.  0.
    9000005    2    3    3    0    0 -0.10464934996E+02 -0.47519091423E+02  0.90351245179E+02  0.10295126339E+03  0.82484067225E+01 0.  0.
         22    1    3    3    0    0  0.10464934996E+02  0.47519091423E+02  0.51270822976E+02  0.70684341992E+02  0.00000000000E+00 0.  1.
         22    1    4    4    0    0 -0.20423991507E+01 -0.24690141589E+02  0.40461581461E+02  0.47443798966E+02  0.00000000000E+00 0. -1.
         22    1    4    4    0    0 -0.84225358453E+01 -0.22828949834E+02  0.49889663718E+02  0.55507464421E+02  0.00000000000E+00 0. -1.
<mgrwt>
<rscale>  0 0.10046150E+03</rscale>
<asrwt>0</asrwt>
<pdfrwt beam="2">  1        1 0.24625797E-02 0.10046150E+03</pdfrwt>
<pdfrwt beam="1">  1       -1 0.24250591E-01 0.10046150E+03</pdfrwt>
<totfact> 0.57411066E+04</totfact>
</mgrwt>
</event>
<event>
 7    1  0.2787125E-009  0.9169742E+02  0.7818608E-02  0.1298792E+00
          1   -1    0    0  501    0  0.00000000000E+00  0.00000000000E+00  0.22601262769E+03  0.22601262775E+03  0.50400000000E-02 0. -1.
         -1   -1    0    0    0  501 -0.00000000000E+00 -0.00000000000E+00 -0.93008247930E+01  0.93008261585E+01  0.50400000000E-02 0.  1.
         23    2    1    2    0    0  0.00000000000E+00  0.00000000000E+00  0.21671180290E+03  0.23531345391E+03  0.91697415852E+02 0.  0.
    9000005    2    3    3    0    0 -0.23360930672E+02  0.26220309482E+02  0.18304005989E+03  0.18666138315E+03  0.10274761614E+02 0.  0.
         22    1    3    3    0    0  0.23360930672E+02 -0.26220309482E+02  0.33671743015E+02  0.48652070756E+02  0.00000000000E+00 0.  1.
         22    1    4    4    0    0 -0.60043135500E+01  0.14262791092E+02  0.73334412184E+02  0.74949416284E+02  0.00000000000E+00 0. -1.
         22    1    4    4    0    0 -0.17356617122E+02  0.11957518390E+02  0.10970564770E+03  0.11171196687E+03  0.00000000000E+00 0. -1.
<mgrwt>
<rscale>  0 0.91697416E+02</rscale>
<asrwt>0</asrwt>
<pdfrwt beam="1">  1        1 0.34771173E-01 0.91697416E+02</pdfrwt>
<pdfrwt beam="2">  1       -1 0.14308962E-02 0.91697416E+02</pdfrwt>
<totfact> 0.11942458E+05</totfact>
</mgrwt>
</event>
<event>
 7    1  0.2787125E-009  0.9122342E+02  0.7818608E-02  0.1299916E+00
          1   -1    0    0  501    0  0.00000000000E+00  0.00000000000E+00  0.55916697827E+02  0.55916698054E+02  0.50400000000E-02 0. -1.
         -1   -1    0    0    0  501 -0.00000000000E+00 -0.00000000000E+00 -0.37205847664E+02  0.37205848005E+02  0.50400000000E-02 0.  1.
         23    2    1    2    0    0  0.00000000000E+00  0.00000000000E+00  0.18710850163E+02  0.93122546060E+02  0.91223421723E+02 0.  0.
    9000005    2    3    3    0    0  0.81454914358E+01  0.19142272131E+02  0.49957433963E+02  0.55584237464E+02  0.12691990907E+02 0.  0.
         22    1    3    3    0    0 -0.81454914358E+01 -0.19142272131E+02 -0.31246583800E+02  0.37538308596E+02  0.00000000000E+00 0.  1.
         22    1    4    4    0    0 -0.28274541693E+01  0.26978129698E+01  0.41901636444E+01  0.57297611875E+01  0.00000000000E+00 0. -1.
         22    1    4    4    0    0  0.10972945605E+02  0.16444459162E+02  0.45767270319E+02  0.49854476276E+02  0.00000000000E+00 0. -1.
<mgrwt>
<rscale>  0 0.91223422E+02</rscale>
<asrwt>0</asrwt>
<pdfrwt beam="1">  1        1 0.86025689E-02 0.91223422E+02</pdfrwt>
<pdfrwt beam="2">  1       -1 0.57239766E-02 0.91223422E+02</pdfrwt>
<totfact> 0.95216389E+04</totfact>
</mgrwt>
</event>
<event>
 7    1  0.2787125E-009  0.9261645E+02  0.7818608E-02  0.1296636E+00
         -1   -1    0    0    0  501 -0.00000000000E+00  0.00000000000E+00  0.12043441317E+02  0.12043442372E+02  0.50400000000E-02 0.  1.
          1   -1    0    0  501    0  0.00000000000E+00 -0.00000000000E+00 -0.17805969163E+03  0.17805969170E+03  0.50400000000E-02 0. -1.
         23    2    1    2    0    0  0.00000000000E+00  0.00000000000E+00 -0.16601625031E+03  0.19010313407E+03  0.92616446793E+02 0.  0.
    9000005    2    3    3    0    0  0.24732926592E+02 -0.38546803769E+02 -0.91448595450E+02  0.10259365521E+03  0.80646600402E+01 0.  0.
         22    1    3    3    0    0 -0.24732926592E+02  0.38546803769E+02 -0.74567654860E+02  0.87509478858E+02  0.00000000000E+00 0. -1.
         22    1    4    4    0    0  0.12863023963E+02 -0.14709364498E+02 -0.44872568755E+02  0.48942519511E+02  0.00000000000E+00 0.  1.
         22    1    4    4    0    0  0.11869902629E+02 -0.23837439271E+02 -0.46576026695E+02  0.53651135702E+02  0.00000000000E+00 0.  1.
<mgrwt>
<rscale>  0 0.92616447E+02</rscale>
<asrwt>0</asrwt>
<pdfrwt beam="2">  1        1 0.27393797E-01 0.92616447E+02</pdfrwt>
<pdfrwt beam="1">  1       -1 0.18528373E-02 0.92616447E+02</pdfrwt>
<totfact> 0.11100422E+05</totfact>
</mgrwt>
</event>
<event>
 6    1  0.2787125E-009  0.1339726E+03  0.7818608E-02  0.1221677E+00
          1   -1    0    0  501    0  0.00000000000E+00  0.00000000000E+00  0.36205178812E+03  0.36205178815E+03  0.50400000000E-02 0. -1.
         -1   -1    0    0    0  501 -0.00000000000E+00 -0.00000000000E+00 -0.12393706356E+02  0.12393707381E+02  0.50400000000E-02 0.  1.
    9000005    2    1    2    0    0 -0.34471611674E+02 -0.54808097791E+02  0.21719936898E+03  0.22700896619E+03  0.12856331038E+02 0.  0.
         22    1    1    2    0    0  0.34471611674E+02  0.54808097791E+02  0.13245871278E+03  0.14743652935E+03  0.00000000000E+00 0.  1.
         22    1    3    3    0    0 -0.27509457400E+02 -0.49655092784E+02  0.19735212675E+03  0.20535398808E+03  0.00000000000E+00 0.  1.
         22    1    3    3    0    0 -0.69621542745E+01 -0.51530050065E+01  0.19847242232E+02  0.21654978110E+02  0.00000000000E+00 0.  1.
<mgrwt>
<rscale>  0 0.13397259E+03</rscale>
<asrwt>0</asrwt>
<pdfrwt beam="1">  1        1 0.55700268E-01 0.13397259E+03</pdfrwt>
<pdfrwt beam="2">  1       -1 0.19067244E-02 0.13397259E+03</pdfrwt>
<totfact> 0.46706570E+04</totfact>
</mgrwt>
</event>
<event>
 7    1  0.2787125E-009  0.9191729E+02  0.7818608E-02  0.1298274E+00
          1   -1    0    0  501    0  0.00000000000E+00  0.00000000000E+00  0.64567934411E+02  0.64567934607E+02  0.50400000000E-02 0. -1.
         -1   -1    0    0    0  501 -0.00000000000E+00 -0.00000000000E+00 -0.32712782647E+02  0.32712783035E+02  0.50400000000E-02 0.  1.
         23    2    1    2    0    0  0.00000000000E+00  0.00000000000E+00  0.31855151764E+02  0.97280717642E+02  0.91917285268E+02 0.  0.
    9000005    2    3    3    0    0 -0.26093730206E+02 -0.30637476870E+02 -0.74524990794E+01  0.41025680891E+02  0.28335499081E+01 0.  0.
         22    1    3    3    0    0  0.26093730206E+02  0.30637476870E+02  0.39307650843E+02  0.56255036751E+02  0.00000000000E+00 0. -1.
         22    1    4    4    0    0 -0.21892991367E+02 -0.26697942000E+02 -0.71474319227E+01  0.35258601236E+02  0.00000000000E+00 0. -1.
         22    1    4    4    0    0 -0.42007388391E+01 -0.39395348699E+01 -0.30506715664E+00  0.57670796557E+01  0.00000000000E+00 0. -1.
<mgrwt>
<rscale>  0 0.91917285E+02</rscale>
<asrwt>0</asrwt>
<pdfrwt beam="1">  1        1 0.99335283E-02 0.91917285E+02</pdfrwt>
<pdfrwt beam="2">  1       -1 0.50327359E-02 0.91917285E+02</pdfrwt>
<totfact> 0.95292267E+04</totfact>
</mgrwt>
</event>
<event>
 7    1  0.2787125E-009  0.9039754E+02  0.7818608E-02  0.1301892E+00
         -1   -1    0    0    0  501 -0.00000000000E+00  0.00000000000E+00  0.69176426940E+02  0.69176427123E+02  0.50400000000E-02 0.  1.
          1   -1    0    0  501    0  0.00000000000E+00 -0.00000000000E+00 -0.29532149880E+02  0.29532150310E+02  0.50400000000E-02 0. -1.
         23    2    1    2    0    0  0.00000000000E+00  0.00000000000E+00  0.39644277060E+02  0.98708577433E+02  0.90397536223E+02 0.  0.
    9000005    2    3    3    0    0 -0.36404105760E+02  0.98386735081E+01  0.46027742126E+02  0.60461916940E+02  0.10725294507E+02 0.  0.
         22    1    3    3    0    0  0.36404105760E+02 -0.98386735081E+01 -0.63834650665E+01  0.38246660493E+02  0.00000000000E+00 0. -1.
         22    1    4    4    0    0 -0.15152381483E+02 -0.12638815686E+01  0.18890288592E+02  0.24249434309E+02  0.00000000000E+00 0.  1.
         22    1    4    4    0    0 -0.21251724277E+02  0.11102555077E+02  0.27137453534E+02  0.36212482631E+02  0.00000000000E+00 0.  1.
<mgrwt>
<rscale>  0 0.90397536E+02</rscale>
<asrwt>0</asrwt>
<pdfrwt beam="2">  1        1 0.45434078E-02 0.90397536E+02</pdfrwt>
<pdfrwt beam="1">  1       -1 0.10642527E-01 0.90397536E+02</pdfrwt>
<totfact> 0.88620897E+04</totfact>
</mgrwt>
</event>
<event>
 7    1  0.2787125E-009  0.8263571E+02  0.7818608E-02  0.1321734E+00
          1   -1    0    0  501    0  0.00000000000E+00  0.00000000000E+00  0.32455614910E+02  0.32455615301E+02  0.50400000000E-02 0. -1.
         -1   -1    0    0    0  501 -0.00000000000E+00 -0.00000000000E+00 -0.52599992738E+02  0.52599992979E+02  0.50400000000E-02 0.  1.
         23    2    1    2    0    0  0.00000000000E+00  0.00000000000E+00 -0.20144377828E+02  0.85055608281E+02  0.82635709847E+02 0.  0.
    9000005    2    3    3    0    0 -0.21945013183E+02  0.15841530697E+02 -0.41535575762E+02  0.50557477209E+02  0.99154802918E+01 0.  0.
         22    1    3    3    0    0  0.21945013183E+02 -0.15841530697E+02  0.21391197934E+02  0.34498131072E+02  0.00000000000E+00 0. -1.
         22    1    4    4    0    0 -0.12950931679E+02  0.89312921176E+01 -0.15164824248E+02  0.21851006949E+02  0.00000000000E+00 0.  1.
         22    1    4    4    0    0 -0.89940815039E+01  0.69102385796E+01 -0.26370751514E+02  0.28706470259E+02  0.00000000000E+00 0.  1.
<mgrwt>
<rscale>  0 0.82635710E+02</rscale>
<asrwt>0</asrwt>
<pdfrwt beam="1">  1        1 0.49931716E-02 0.82635710E+02</pdfrwt>
<pdfrwt beam="2">  1       -1 0.80923066E-02 0.82635710E+02</pdfrwt>
<totfact> 0.11594973E+05</totfact>
</mgrwt>
</event>
<event>
 7    1  0.2787125E-009  0.9054849E+02  0.7818608E-02  0.1301529E+00
          1   -1    0    0  501    0  0.00000000000E+00  0.00000000000E+00  0.22192090098E+02  0.22192090670E+02  0.50400000000E-02 0.  1.
         -1   -1    0    0    0  501 -0.00000000000E+00 -0.00000000000E+00 -0.92364320616E+02  0.92364320753E+02  0.50400000000E-02 0. -1.
         23    2    1    2    0    0  0.17763568394E-14  0.71054273576E-14 -0.70172230518E+02  0.11455641142E+03  0.90548492325E+02 0.  0.
    9000005    2    3    3    0    0  0.10878615144E+02  0.43806850548E+02 -0.38702280594E+02  0.59531488246E+02  0.29575576451E+01 0.  0.
         22    1    3    3    0    0 -0.10878615144E+02 -0.43806850548E+02 -0.31469949924E+02  0.55024923177E+02  0.00000000000E+00 0. -1.
         22    1    4    4    0    0  0.69377002056E+00  0.21502684233E+01 -0.11763679890E+01  0.25473148174E+01  0.00000000000E+00 0. -1.
         22    1    4    4    0    0  0.10184845123E+02  0.41656582125E+02 -0.37525912605E+02  0.56984173429E+02  0.00000000000E+00 0. -1.
<mgrwt>
<rscale>  0 0.90548492E+02</rscale>
<asrwt>0</asrwt>
<pdfrwt beam="1">  1        1 0.34141678E-02 0.90548492E+02</pdfrwt>
<pdfrwt beam="2">  1       -1 0.14209895E-01 0.90548492E+02</pdfrwt>
<totfact> 0.84038791E+04</totfact>
</mgrwt>
</event>
<event>
 7    1  0.2787125E-009  0.9050500E+02  0.7818608E-02  0.1301633E+00
         -1   -1    0    0    0  501 -0.00000000000E+00  0.00000000000E+00  0.10682162188E+02  0.10682163377E+02  0.50400000000E-02 0.  1.
          1   -1    0    0  501    0  0.00000000000E+00 -0.00000000000E+00 -0.19170171271E+03  0.19170171278E+03  0.50400000000E-02 0. -1.
         23    2    1    2    0    0  0.17763568394E-14  0.00000000000E+00 -0.18101955052E+03  0.20238387616E+03  0.90505003485E+02 0.  0.
    9000005    2    3    3    0    0  0.11930068360E+02 -0.43001955541E+02 -0.85674555865E+02  0.97112024657E+02  0.99559579556E+01 0.  0.
         22    1    3    3    0    0 -0.11930068360E+02  0.43001955541E+02 -0.95344994659E+02  0.10527185150E+03  0.00000000000E+00 0. -1.
         22    1    4    4    0    0  0.95150634133E+01 -0.40966366943E+02 -0.82669069687E+02  0.92752114451E+02  0.00000000000E+00 0. -1.
         22    1    4    4    0    0  0.24150049467E+01 -0.20355885984E+01 -0.30054861785E+01  0.43599102059E+01  0.00000000000E+00 0. -1.
<mgrwt>
<rscale>  0 0.90505003E+02</rscale>
<asrwt>0</asrwt>
<pdfrwt beam="2">  1        1 0.29492569E-01 0.90505003E+02</pdfrwt>
<pdfrwt beam="1">  1       -1 0.16434098E-02 0.90505003E+02</pdfrwt>
<totfact> 0.11979146E+05</totfact>
</mgrwt>
</event>
<event>
 7    1  0.2787125E-009  0.9311153E+02  0.7818608E-02  0.1295487E+00
          1   -1    0    0  501    0  0.00000000000E+00  0.00000000000E+00  0.10142317699E+02  0.10142318952E+02  0.50400000000E-02 0. -1.
         -1   -1    0    0    0  501 -0.00000000000E+00 -0.00000000000E+00 -0.21370254638E+03  0.21370254644E+03  0.50400000000E-02 0.  1.
         23    2    1    2    0    0 -0.35527136788E-14  0.00000000000E+00 -0.20356022868E+03  0.22384486539E+03  0.93111530228E+02 0.  0.
    9000005    2    3    3    0    0 -0.23210258962E+02  0.36652701358E+02 -0.64609023515E+02  0.78278474851E+02  0.84295354283E+01 0.  0.
         22    1    3    3    0    0  0.23210258962E+02 -0.36652701358E+02 -0.13895120516E+03  0.14556639054E+03  0.00000000000E+00 0.  1.
         22    1    4    4    0    0 -0.10344054652E+01  0.39916686097E+01 -0.10644765965E+02  0.11415535704E+02  0.00000000000E+00 0.  1.
         22    1    4    4    0    0 -0.22175853497E+02  0.32661032748E+02 -0.53964257550E+02  0.66862939147E+02  0.00000000000E+00 0.  1.
<mgrwt>
<rscale>  0 0.93111530E+02</rscale>
<asrwt>0</asrwt>
<pdfrwt beam="1">  1        1 0.15603568E-02 0.93111530E+02</pdfrwt>
<pdfrwt beam="2">  1       -1 0.32877312E-01 0.93111530E+02</pdfrwt>
<totfact> 0.64456541E+04</totfact>
</mgrwt>
</event>
<event>
 7    1  0.2787125E-009  0.8746103E+02  0.7818608E-02  0.1309119E+00
         -1   -1    0    0    0  501 -0.00000000000E+00  0.00000000000E+00  0.22500683566E+02  0.22500684131E+02  0.50400000000E-02 0.  1.
          1   -1    0    0  501    0  0.00000000000E+00 -0.00000000000E+00 -0.84991107989E+02  0.84991108138E+02  0.50400000000E-02 0. -1.
         23    2    1    2    0    0  0.00000000000E+00 -0.17763568394E-14 -0.62490424423E+02  0.10749179227E+03  0.87461032813E+02 0.  0.
    9000005    2    3    3    0    0 -0.64552949141E+01  0.13265892490E+02 -0.81248218698E+02  0.83627392381E+02  0.13214120434E+02 0.  0.
         22    1    3    3    0    0  0.64552949141E+01 -0.13265892490E+02  0.18757794275E+02  0.23864399889E+02  0.00000000000E+00 0.  1.
         22    1    4    4    0    0 -0.18700273768E+01  0.97105522385E+01 -0.72230604950E+02  0.72904403973E+02  0.00000000000E+00 0. -1.
         22    1    4    4    0    0 -0.45852675373E+01  0.35553402514E+01 -0.90176137474E+01  0.10722988408E+02  0.00000000000E+00 0. -1.
<mgrwt>
<rscale>  0 0.87461033E+02</rscale>
<asrwt>0</asrwt>
<pdfrwt beam="2">  1        1 0.13075555E-01 0.87461033E+02</pdfrwt>
<pdfrwt beam="1">  1       -1 0.34616437E-02 0.87461033E+02</pdfrwt>
<totfact> 0.11395111E+05</totfact>
</mgrwt>
</event>
<event>
 7    1  0.2787125E-009  0.9105209E+02  0.7818608E-02  0.1300324E+00
          1   -1    0    0  501    0  0.00000000000E+00  0.00000000000E+00  0.20085837719E+02  0.20085838352E+02  0.50400000000E-02 0. -1.
         -1   -1    0    0    0  501 -0.00000000000E+00 -0.00000000000E+00 -0.10318816710E+03  0.10318816723E+03  0.50400000000E-02 0.  1.
         23    2    1    2    0    0  0.00000000000E+00  0.00000000000E+00 -0.83102329385E+02  0.12327400558E+03  0.91052091147E+02 0.  0.
    9000005    2    3    3    0    0  0.29111243667E+02 -0.23758946576E+02 -0.75256883816E+02  0.84887770202E+02  0.11418533964E+02 0.  0.
         22    1    3    3    0    0 -0.29111243667E+02  0.23758946576E+02 -0.78454455688E+01  0.38386235377E+02  0.00000000000E+00 0. -1.
         22    1    4    4    0    0  0.23283641911E+02 -0.12104055194E+02 -0.50356893430E+02  0.56784265855E+02  0.00000000000E+00 0.  1.
         22    1    4    4    0    0  0.58276017565E+01 -0.11654891381E+02 -0.24899990386E+02  0.28103504346E+02  0.00000000000E+00 0.  1.
<mgrwt>
<rscale>  0 0.91052091E+02</rscale>
<asrwt>0</asrwt>
<pdfrwt beam="1">  1        1 0.30901290E-02 0.91052091E+02</pdfrwt>
<pdfrwt beam="2">  1       -1 0.15875102E-01 0.91052091E+02</pdfrwt>
<totfact> 0.81179699E+04</totfact>
</mgrwt>
</event>
<event>
 7    1  0.2787125E-009  0.9187142E+02  0.7818608E-02  0.1298382E+00
          1   -1    0    0  501    0  0.00000000000E+00  0.00000000000E+00  0.70756703013E+02  0.70756703193E+02  0.50400000000E-02 0. -1.
         -1   -1    0    0    0  501 -0.00000000000E+00 -0.00000000000E+00 -0.29821758960E+02  0.29821759386E+02  0.50400000000E-02 0.  1.
         23    2    1    2    0    0 -0.35527136788E-14  0.35527136788E-14  0.40934944054E+02  0.10057846258E+03  0.91871418243E+02 0.  0.
    9000005    2    3    3    0    0 -0.31880833907E+02  0.30935268727E+02  0.14067909626E+02  0.48662993201E+02  0.14028628023E+02 0.  0.
         22    1    3    3    0    0  0.31880833907E+02 -0.30935268727E+02  0.26867034428E+02  0.51915469378E+02  0.00000000000E+00 0.  1.
         22    1    4    4    0    0 -0.43377309605E+01  0.18128948929E+01  0.62546203411E+01  0.78244982835E+01  0.00000000000E+00 0. -1.
         22    1    4    4    0    0 -0.27543102946E+02  0.29122373834E+02  0.78132892847E+01  0.40838494917E+02  0.00000000000E+00 0. -1.
<mgrwt>
<rscale>  0 0.91871418E+02</rscale>
<asrwt>0</asrwt>
<pdfrwt beam="1">  1        1 0.10885647E-01 0.91871418E+02</pdfrwt>
<pdfrwt beam="2">  1       -1 0.45879630E-02 0.91871418E+02</pdfrwt>
<totfact> 0.96781660E+04</totfact>
</mgrwt>
</event>
<event>
 7    1  0.2787125E-009  0.1081287E+03  0.7818608E-02  0.1264075E+00
         -1   -1    0    0    0  501 -0.00000000000E+00  0.00000000000E+00  0.34700787676E+02  0.34700788042E+02  0.50400000000E-02 0.  1.
          1   -1    0    0  501    0  0.00000000000E+00 -0.00000000000E+00 -0.84233089482E+02  0.84233089633E+02  0.50400000000E-02 0. -1.
         23    2    1    2    0    0  0.00000000000E+00 -0.88817841970E-15 -0.49532301807E+02  0.11893387767E+03  0.10812871190E+03 0.  0.
    9000005    2    3    3    0    0 -0.15106011052E+02 -0.71464333859E+01  0.31027644679E+02  0.36658923662E+02  0.10094497001E+02 0.  0.
         22    1    3    3    0    0  0.15106011052E+02  0.71464333859E+01 -0.80559946486E+02  0.82274954013E+02  0.00000000000E+00 0. -1.
         22    1    4    4    0    0 -0.13880582368E+02 -0.93371599457E+01  0.24511697426E+02  0.29676193041E+02  0.00000000000E+00 0.  1.
         22    1    4    4    0    0 -0.12254286845E+01  0.21907265598E+01  0.65159472530E+01  0.69827306209E+01  0.00000000000E+00 0.  1.
<mgrwt>
<rscale>  0 0.10812871E+03</rscale>
<asrwt>0</asrwt>
<pdfrwt beam="2">  1        1 0.12958937E-01 0.10812871E+03</pdfrwt>
<pdfrwt beam="1">  1       -1 0.53385828E-02 0.10812871E+03</pdfrwt>
<totfact> 0.63287253E+04</totfact>
</mgrwt>
</event>
<event>
 7    1  0.2787125E-009  0.9361523E+02  0.7818608E-02  0.1294326E+00
          1   -1    0    0  501    0  0.00000000000E+00  0.00000000000E+00  0.23218706649E+03  0.23218706655E+03  0.50400000000E-02 0. -1.
         -1   -1    0    0    0  501 -0.00000000000E+00 -0.00000000000E+00 -0.94361526404E+01  0.94361539864E+01  0.50400000000E-02 0.  1.
         23    2    1    2    0    0  0.00000000000E+00 -0.35527136788E-14  0.22275091385E+03  0.24162322053E+03  0.93615228884E+02 0.  0.
    9000005    2    3    3    0    0  0.41578004815E+02 -0.17491874463E+02  0.13906955887E+03  0.14655868809E+03  0.10218155137E+02 0.  0.
         22    1    3    3    0    0 -0.41578004815E+02  0.17491874463E+02  0.83681354978E+02  0.95064532437E+02  0.00000000000E+00 0.  1.
         22    1    4    4    0    0  0.12926197339E+02 -0.49846883636E+00  0.39583836037E+02  0.41643908609E+02  0.00000000000E+00 0. -1.
         22    1    4    4    0    0  0.28651807476E+02 -0.16993405626E+02  0.99485722836E+02  0.10491477949E+03  0.00000000000E+00 0. -1.
<mgrwt>
<rscale>  0 0.93615229E+02</rscale>
<asrwt>0</asrwt>
<pdfrwt beam="1">  1        1 0.35721085E-01 0.93615229E+02</pdfrwt>
<pdfrwt beam="2">  1       -1 0.14517160E-02 0.93615229E+02</pdfrwt>
<totfact> 0.11357414E+05</totfact>
</mgrwt>
</event>
<event>
 7    1  0.2787125E-009  0.9074309E+02  0.7818608E-02  0.1301062E+00
          1   -1    0    0  501    0  0.00000000000E+00  0.00000000000E+00  0.29468413524E+02  0.29468413955E+02  0.50400000000E-02 0. -1.
         -1   -1    0    0    0  501 -0.00000000000E+00 -0.00000000000E+00 -0.69857071611E+02  0.69857071793E+02  0.50400000000E-02 0.  1.
         23    2    1    2    0    0  0.00000000000E+00  0.00000000000E+00 -0.40388658087E+02  0.99325485748E+02  0.90743090189E+02 0.  0.
    9000005    2    3    3    0    0 -0.42814292114E+02  0.14336566266E+02 -0.21000982228E+02  0.50188099608E+02  0.62612575580E+01 0.  0.
         22    1    3    3    0    0  0.42814292114E+02 -0.14336566266E+02 -0.19387675859E+02  0.49137386140E+02  0.00000000000E+00 0. -1.
         22    1    4    4    0    0 -0.15056601122E+02  0.57933187300E+01 -0.10764284337E+02  0.19394163982E+02  0.00000000000E+00 0.  1.
         22    1    4    4    0    0 -0.27757690992E+02  0.85432475355E+01 -0.10236697892E+02  0.30793935626E+02  0.00000000000E+00 0.  1.
<mgrwt>
<rscale>  0 0.90743090E+02</rscale>
<asrwt>0</asrwt>
<pdfrwt beam="1">  1        1 0.45336021E-02 0.90743090E+02</pdfrwt>
<pdfrwt beam="2">  1       -1 0.10747242E-01 0.90743090E+02</pdfrwt>
<totfact> 0.87626197E+04</totfact>
</mgrwt>
</event>
<event>
 7    1  0.2787125E-009  0.9139090E+02  0.7818608E-02  0.1299518E+00
         -1   -1    0    0    0  501 -0.00000000000E+00  0.00000000000E+00  0.27294595028E+01  0.27294641561E+01  0.50400000000E-02 0.  1.
          1   -1    0    0  501    0  0.00000000000E+00 -0.00000000000E+00 -0.76501306006E+03  0.76501306008E+03  0.50400000000E-02 0. -1.
         23    2    1    2    0    0  0.00000000000E+00  0.35527136788E-14 -0.76228360056E+03  0.76774252424E+03  0.91390895809E+02 0.  0.
    9000005    2    3    3    0    0  0.16189526437E+02  0.17267697546E+02 -0.70771914163E+03  0.70826518130E+03  0.14591417405E+02 0.  0.
         22    1    3    3    0    0 -0.16189526437E+02 -0.17267697546E+02 -0.54564458926E+02  0.59477342935E+02  0.00000000000E+00 0.  1.
         22    1    4    4    0    0  0.15972199889E+02  0.16302596621E+02 -0.47856764235E+03  0.47911154665E+03  0.00000000000E+00 0.  1.
         22    1    4    4    0    0  0.21732654825E+00  0.96510092429E+00 -0.22915149928E+03  0.22915363465E+03  0.00000000000E+00 0.  1.
<mgrwt>
<rscale>  0 0.91390896E+02</rscale>
<asrwt>0</asrwt>
<pdfrwt beam="2">  1        1 0.11769415E+00 0.91390896E+02</pdfrwt>
<pdfrwt beam="1">  1       -1 0.41991782E-03 0.91390896E+02</pdfrwt>
<totfact> 0.14088380E+05</totfact>
</mgrwt>
</event>
<event>
 7    1  0.2787125E-009  0.9358197E+02  0.7818608E-02  0.1294402E+00
         -1   -1    0    0    0  501 -0.00000000000E+00  0.00000000000E+00  0.30474003483E+02  0.30474003899E+02  0.50400000000E-02 0.  1.
          1   -1    0    0  501    0  0.00000000000E+00 -0.00000000000E+00 -0.71844718411E+02  0.71844718588E+02  0.50400000000E-02 0. -1.
         23    2    1    2    0    0  0.71054273576E-14  0.00000000000E+00 -0.41370714928E+02  0.10231872249E+03  0.93581968978E+02 0.  0.
    9000005    2    3    3    0    0  0.35185854400E+02 -0.49327033445E+01  0.11621966974E+02  0.38517466643E+02  0.92816597722E+01 0.  0.
         22    1    3    3    0    0 -0.35185854400E+02  0.49327033445E+01 -0.52992681902E+02  0.63801255844E+02  0.00000000000E+00 0. -1.
         22    1    4    4    0    0  0.17690073707E+02  0.17552121746E+01  0.35813997590E+01  0.18134108795E+02  0.00000000000E+00 0. -1.
         22    1    4    4    0    0  0.17495780692E+02 -0.66879155191E+01  0.80405672150E+01  0.20383357848E+02  0.00000000000E+00 0. -1.
<mgrwt>
<rscale>  0 0.93581969E+02</rscale>
<asrwt>0</asrwt>
<pdfrwt beam="2">  1        1 0.11053034E-01 0.93581969E+02</pdfrwt>
<pdfrwt beam="1">  1       -1 0.46883083E-02 0.93581969E+02</pdfrwt>
<totfact> 0.92188369E+04</totfact>
</mgrwt>
</event>
<event>
 7    1  0.2787125E-009  0.9131243E+02  0.7818608E-02  0.1299704E+00
         -1   -1    0    0    0  501 -0.00000000000E+00  0.00000000000E+00  0.18420158390E+02  0.18420159079E+02  0.50400000000E-02 0.  1.
          1   -1    0    0  501    0  0.00000000000E+00 -0.00000000000E+00 -0.11316352483E+03  0.11316352495E+03  0.50400000000E-02 0. -1.
         23    2    1    2    0    0 -0.24980018054E-15  0.00000000000E+00 -0.94743366444E+02  0.13158368403E+03  0.91312432979E+02 0.  0.
    9000005    2    3    3    0    0 -0.56479799535E-01  0.21769350590E+02 -0.10455193777E+03  0.10770658440E+03  0.13989024883E+02 0.  0.
         22    1    3    3    0    0  0.56479799535E-01 -0.21769350590E+02  0.98085713233E+01  0.23877099625E+02  0.00000000000E+00 0.  1.
         22    1    4    4    0    0  0.69597421871E+01  0.10411801681E+02 -0.49792140378E+02  0.51342972927E+02  0.00000000000E+00 0.  1.
         22    1    4    4    0    0 -0.70162219866E+01  0.11357548909E+02 -0.54759797389E+02  0.56363611473E+02  0.00000000000E+00 0.  1.
<mgrwt>
<rscale>  0 0.91312433E+02</rscale>
<asrwt>0</asrwt>
<pdfrwt beam="2">  1        1 0.17409773E-01 0.91312433E+02</pdfrwt>
<pdfrwt beam="1">  1       -1 0.28338706E-02 0.91312433E+02</pdfrwt>
<totfact> 0.10622427E+05</totfact>
</mgrwt>
</event>
<event>
 7    1  0.2787125E-009  0.7959206E+02  0.7818608E-02  0.1330213E+00
          1   -1    0    0  501    0  0.00000000000E+00  0.00000000000E+00  0.41103758327E+02  0.41103758636E+02  0.50400000000E-02 0. -1.
         -1   -1    0    0    0  501 -0.00000000000E+00 -0.00000000000E+00 -0.38529906838E+02  0.38529907167E+02  0.50400000000E-02 0.  1.
         23    2    1    2    0    0 -0.35527136788E-14  0.00000000000E+00  0.25738514894E+01  0.79633665804E+02  0.79592060018E+02 0.  0.
    9000005    2    3    3    0    0  0.19676442144E+02  0.29426643733E+02 -0.15521464157E+02  0.39877783406E+02  0.98097921966E+01 0.  0.
         22    1    3    3    0    0 -0.19676442144E+02 -0.29426643733E+02  0.18095315646E+02  0.39755882398E+02  0.00000000000E+00 0. -1.
         22    1    4    4    0    0  0.18101479414E+01  0.29888193994E+01 -0.53446679139E+01  0.63855424266E+01  0.00000000000E+00 0. -1.
         22    1    4    4    0    0  0.17866294203E+02  0.26437824334E+02 -0.10176796243E+02  0.33492240980E+02  0.00000000000E+00 0. -1.
<mgrwt>
<rscale>  0 0.79592060E+02</rscale>
<asrwt>0</asrwt>
<pdfrwt beam="1">  1        1 0.63236552E-02 0.79592060E+02</pdfrwt>
<pdfrwt beam="2">  1       -1 0.59276780E-02 0.79592060E+02</pdfrwt>
<totfact> 0.13296435E+05</totfact>
</mgrwt>
</event>
<event>
 7    1  0.2787125E-009  0.9016665E+02  0.7818608E-02  0.1302449E+00
         -1   -1    0    0    0  501 -0.00000000000E+00  0.00000000000E+00  0.14767155190E+02  0.14767156050E+02  0.50400000000E-02 0.  1.
          1   -1    0    0  501    0  0.00000000000E+00 -0.00000000000E+00 -0.13763693311E+03  0.13763693320E+03  0.50400000000E-02 0. -1.
         23    2    1    2    0    0  0.00000000000E+00  0.00000000000E+00 -0.12286977791E+03  0.15240408925E+03  0.90166646242E+02 0.  0.
    9000005    2    3    3    0    0 -0.32404866771E+02 -0.28604007642E+02 -0.81795610113E+02  0.92777317540E+02  0.69888606089E+01 0.  0.
         22    1    3    3    0    0  0.32404866771E+02  0.28604007642E+02 -0.41074167802E+02  0.59626771707E+02  0.00000000000E+00 0.  1.
         22    1    4    4    0    0 -0.60683121020E+01 -0.89437444724E+01 -0.23201508657E+02  0.25595409372E+02  0.00000000000E+00 0. -1.
         22    1    4    4    0    0 -0.26336554669E+02 -0.19660263170E+02 -0.58594101456E+02  0.67181908168E+02  0.00000000000E+00 0. -1.
<mgrwt>
<rscale>  0 0.90166646E+02</rscale>
<asrwt>0</asrwt>
<pdfrwt beam="2">  1        1 0.21174912E-01 0.90166646E+02</pdfrwt>
<pdfrwt beam="1">  1       -1 0.22718702E-02 0.90166646E+02</pdfrwt>
<totfact> 0.11376056E+05</totfact>
</mgrwt>
</event>
<event>
 7    1  0.2787125E-009  0.8604067E+02  0.7818608E-02  0.1312733E+00
          1   -1    0    0  501    0  0.00000000000E+00  0.00000000000E+00  0.46935276553E+03  0.46935276556E+03  0.50400000000E-02 0. -1.
         -1   -1    0    0    0  501 -0.00000000000E+00 -0.00000000000E+00 -0.39431930041E+01  0.39431962250E+01  0.50400000000E-02 0.  1.
         23    2    1    2    0    0 -0.17763568394E-14  0.00000000000E+00  0.46540957253E+03  0.47329596178E+03  0.86040672013E+02 0.  0.
    9000005    2    3    3    0    0 -0.14671283871E+02  0.34032021918E+02  0.35169693268E+03  0.35369667438E+03  0.60975343551E+01 0.  0.
         22    1    3    3    0    0  0.14671283871E+02 -0.34032021918E+02  0.11371263985E+03  0.11959928740E+03  0.00000000000E+00 0.  1.
         22    1    4    4    0    0 -0.54838392467E+01  0.20232708244E+02  0.20170093490E+03  0.20278733224E+03  0.00000000000E+00 0.  1.
         22    1    4    4    0    0 -0.91874446248E+01  0.13799313674E+02  0.14999599778E+03  0.15090934214E+03  0.00000000000E+00 0.  1.
<mgrwt>
<rscale>  0 0.86040672E+02</rscale>
<asrwt>0</asrwt>
<pdfrwt beam="1">  1        1 0.72208073E-01 0.86040672E+02</pdfrwt>
<pdfrwt beam="2">  1       -1 0.60664571E-03 0.86040672E+02</pdfrwt>
<totfact> 0.16103858E+05</totfact>
</mgrwt>
</event>
<event>
 7    1  0.2787125E-009  0.9093662E+02  0.7818608E-02  0.1300599E+00
         -1   -1    0    0    0  501 -0.00000000000E+00  0.00000000000E+00  0.25323695615E+02  0.25323696117E+02  0.50400000000E-02 0.  1.
          1   -1    0    0  501    0  0.00000000000E+00 -0.00000000000E+00 -0.81637665673E+02  0.81637665829E+02  0.50400000000E-02 0. -1.
         23    2    1    2    0    0  0.35527136788E-14 -0.17763568394E-14 -0.56313970058E+02  0.10696136195E+03  0.90936624775E+02 0.  0.
    9000005    2    3    3    0    0 -0.28961123244E+02  0.13765952083E+02  0.76972490223E+01  0.35367477679E+02  0.12781343378E+02 0.  0.
         22    1    3    3    0    0  0.28961123244E+02 -0.13765952083E+02 -0.64011219080E+02  0.71593884267E+02  0.00000000000E+00 0. -1.
         22    1    4    4    0    0 -0.14862826921E+02  0.71685355866E+01  0.10490036567E+02  0.19553321808E+02  0.00000000000E+00 0. -1.
         22    1    4    4    0    0 -0.14098296323E+02  0.65974164967E+01 -0.27927875451E+01  0.15814155871E+02  0.00000000000E+00 0. -1.
<mgrwt>
<rscale>  0 0.90936625E+02</rscale>
<asrwt>0</asrwt>
<pdfrwt beam="2">  1        1 0.12559641E-01 0.90936625E+02</pdfrwt>
<pdfrwt beam="1">  1       -1 0.38959532E-02 0.90936625E+02</pdfrwt>
<totfact> 0.10180160E+05</totfact>
</mgrwt>
</event>
<event>
 7    1  0.2787125E-009  0.9282351E+02  0.7818608E-02  0.1296155E+00
         -1   -1    0    0    0  501 -0.00000000000E+00  0.00000000000E+00  0.13913923805E+03  0.13913923814E+03  0.50400000000E-02 0.  1.
          1   -1    0    0  501    0  0.00000000000E+00 -0.00000000000E+00 -0.15481262448E+02  0.15481263269E+02  0.50400000000E-02 0. -1.
         23    2    1    2    0    0  0.00000000000E+00  0.00000000000E+00  0.12365797561E+03  0.15462050141E+03  0.92823512789E+02 0.  0.
    9000005    2    3    3    0    0  0.23060743433E+02  0.37259274919E+02  0.82023183653E+02  0.94176251430E+02  0.14876566192E+02 0.  0.
         22    1    3    3    0    0 -0.23060743433E+02 -0.37259274919E+02  0.41634791952E+02  0.60444249983E+02  0.00000000000E+00 0. -1.
         22    1    4    4    0    0  0.80763816207E+01  0.52871299810E+01  0.96513483900E+01  0.13650282388E+02  0.00000000000E+00 0.  1.
         22    1    4    4    0    0  0.14984361812E+02  0.31972144938E+02  0.72371835263E+02  0.80525969043E+02  0.00000000000E+00 0.  1.
<mgrwt>
<rscale>  0 0.92823513E+02</rscale>
<asrwt>0</asrwt>
<pdfrwt beam="2">  1        1 0.23817327E-02 0.92823513E+02</pdfrwt>
<pdfrwt beam="1">  1       -1 0.21406038E-01 0.92823513E+02</pdfrwt>
<totfact> 0.72630890E+04</totfact>
</mgrwt>
</event>
<event>
 7    1  0.2787125E-009  0.9125024E+02  0.7818608E-02  0.1299852E+00
         -1   -1    0    0    0  501 -0.00000000000E+00  0.00000000000E+00  0.30908889924E+02  0.30908890335E+02  0.50400000000E-02 0.  1.
          1   -1    0    0  501    0  0.00000000000E+00 -0.00000000000E+00 -0.67347990922E+02  0.67347991111E+02  0.50400000000E-02 0. -1.
         23    2    1    2    0    0 -0.17763568394E-14  0.00000000000E+00 -0.36439100999E+02  0.98256881446E+02  0.91250242026E+02 0.  0.
    9000005    2    3    3    0    0  0.12550616374E+02  0.39864743932E+02 -0.35336467588E+02  0.56448609769E+02  0.13822583811E+02 0.  0.
         22    1    3    3    0    0 -0.12550616374E+02 -0.39864743932E+02 -0.11026334110E+01  0.41808271676E+02  0.00000000000E+00 0.  1.
         22    1    4    4    0    0  0.13561633737E+02  0.28198310020E+02 -0.19934398071E+02  0.37100442370E+02  0.00000000000E+00 0. -1.
         22    1    4    4    0    0 -0.10110173624E+01  0.11666433912E+02 -0.15402069516E+02  0.19348167399E+02  0.00000000000E+00 0. -1.
<mgrwt>
<rscale>  0 0.91250242E+02</rscale>
<asrwt>0</asrwt>
<pdfrwt beam="2">  1        1 0.10361229E-01 0.91250242E+02</pdfrwt>
<pdfrwt beam="1">  1       -1 0.47552139E-02 0.91250242E+02</pdfrwt>
<totfact> 0.97864284E+04</totfact>
</mgrwt>
</event>
<event>
 7    1  0.2787125E-009  0.9155467E+02  0.7818608E-02  0.1299130E+00
         -1   -1    0    0    0  501 -0.00000000000E+00  0.00000000000E+00  0.14971685610E+02  0.14971686459E+02  0.50400000000E-02 0.  1.
          1   -1    0    0  501    0  0.00000000000E+00 -0.00000000000E+00 -0.13996851025E+03  0.13996851034E+03  0.50400000000E-02 0. -1.
         23    2    1    2    0    0  0.00000000000E+00 -0.44408920985E-15 -0.12499682464E+03  0.15494019680E+03  0.91554674452E+02 0.  0.
    9000005    2    3    3    0    0  0.36584755300E+02  0.23812085803E+01 -0.16987299263E+02  0.40878055635E+02  0.61913343990E+01 0.  0.
         22    1    3    3    0    0 -0.36584755300E+02 -0.23812085803E+01 -0.10800952537E+03  0.11406214116E+03  0.00000000000E+00 0. -1.
         22    1    4    4    0    0  0.34031906614E+01  0.17154416266E+01 -0.30534846636E+01  0.48834634475E+01  0.00000000000E+00 0.  1.
         22    1    4    4    0    0  0.33181564638E+02  0.66576695370E+00 -0.13933814599E+02  0.35994592188E+02  0.00000000000E+00 0.  1.
<mgrwt>
<rscale>  0 0.91554674E+02</rscale>
<asrwt>0</asrwt>
<pdfrwt beam="2">  1        1 0.21533616E-01 0.91554674E+02</pdfrwt>
<pdfrwt beam="1">  1       -1 0.23033364E-02 0.91554674E+02</pdfrwt>
<totfact> 0.10949377E+05</totfact>
</mgrwt>
</event>
<event>
 7    1  0.2787125E-009  0.9167575E+02  0.7818608E-02  0.1298844E+00
         -1   -1    0    0    0  501 -0.00000000000E+00  0.00000000000E+00  0.29793723474E+02  0.29793723900E+02  0.50400000000E-02 0.  1.
          1   -1    0    0  501    0  0.00000000000E+00 -0.00000000000E+00 -0.70521918609E+02  0.70521918789E+02  0.50400000000E-02 0. -1.
         23    2    1    2    0    0  0.00000000000E+00  0.00000000000E+00 -0.40728195135E+02  0.10031564269E+03  0.91675745371E+02 0.  0.
    9000005    2    3    3    0    0  0.33195361877E+02  0.80509558561E+01  0.12100543776E+02  0.37405980511E+02  0.92754664566E+01 0.  0.
         22    1    3    3    0    0 -0.33195361877E+02 -0.80509558561E+01 -0.52828738912E+02  0.62909662178E+02  0.00000000000E+00 0. -1.
         22    1    4    4    0    0  0.21657183291E+02  0.96630857012E+01  0.73959470138E+01  0.24841675579E+02  0.00000000000E+00 0. -1.
         22    1    4    4    0    0  0.11538178586E+02 -0.16121298450E+01  0.47045967627E+01  0.12564304932E+02  0.00000000000E+00 0. -1.
<mgrwt>
<rscale>  0 0.91675745E+02</rscale>
<asrwt>0</asrwt>
<pdfrwt beam="2">  1        1 0.10849526E-01 0.91675745E+02</pdfrwt>
<pdfrwt beam="1">  1       -1 0.45836498E-02 0.91675745E+02</pdfrwt>
<totfact> 0.97303118E+04</totfact>
</mgrwt>
</event>
<event>
 7    1  0.2787125E-009  0.9308445E+02  0.7818608E-02  0.1295550E+00
          1   -1    0    0  501    0  0.00000000000E+00  0.00000000000E+00  0.27455035057E+03  0.27455035061E+03  0.50400000000E-02 0. -1.
         -1   -1    0    0    0  501 -0.00000000000E+00 -0.00000000000E+00 -0.78899140894E+01  0.78899156991E+01  0.50400000000E-02 0.  1.
         23    2    1    2    0    0  0.00000000000E+00  0.00000000000E+00  0.26666043648E+03  0.28244026631E+03  0.93084454406E+02 0.  0.
    9000005    2    3    3    0    0 -0.26053028188E+02  0.30444683428E+02  0.70688699797E+02  0.82413866544E+02  0.13766411765E+02 0.  0.
         22    1    3    3    0    0  0.26053028188E+02 -0.30444683428E+02  0.19597173668E+03  0.20002639977E+03  0.00000000000E+00 0. -1.
         22    1    4    4    0    0 -0.48558128950E+01  0.90448033209E+01  0.30560606717E+02  0.32238766553E+02  0.00000000000E+00 0. -1.
         22    1    4    4    0    0 -0.21197215293E+02  0.21399880108E+02  0.40128093080E+02  0.50175099990E+02  0.00000000000E+00 0. -1.
<mgrwt>
<rscale>  0 0.93084454E+02</rscale>
<asrwt>0</asrwt>
<pdfrwt beam="1">  1        1 0.42238508E-01 0.93084454E+02</pdfrwt>
<pdfrwt beam="2">  1       -1 0.12138333E-02 0.93084454E+02</pdfrwt>
<totfact> 0.11917135E+05</totfact>
</mgrwt>
</event>
<event>
 7    1  0.2787125E-009  0.9203332E+02  0.7818608E-02  0.1298001E+00
         -1   -1    0    0    0  501 -0.00000000000E+00  0.00000000000E+00  0.19844480610E+02  0.19844481250E+02  0.50400000000E-02 0.  1.
          1   -1    0    0  501    0  0.00000000000E+00 -0.00000000000E+00 -0.10670638696E+03  0.10670638708E+03  0.50400000000E-02 0. -1.
         23    2    1    2    0    0  0.00000000000E+00  0.00000000000E+00 -0.86861906351E+02  0.12655086833E+03  0.92033317339E+02 0.  0.
    9000005    2    3    3    0    0 -0.26742561966E+02 -0.14765160972E+02 -0.90373330890E+02  0.95801808160E+02  0.88018697819E+01 0.  0.
         22    1    3    3    0    0  0.26742561966E+02  0.14765160972E+02  0.35114245387E+01  0.30749060170E+02  0.00000000000E+00 0.  1.
         22    1    4    4    0    0 -0.10355986232E+02 -0.57902360573E+01 -0.22921396483E+02  0.25810147252E+02  0.00000000000E+00 0. -1.
         22    1    4    4    0    0 -0.16386575734E+02 -0.89749249152E+01 -0.67451934406E+02  0.69991660908E+02  0.00000000000E+00 0. -1.
<mgrwt>
<rscale>  0 0.92033317E+02</rscale>
<asrwt>0</asrwt>
<pdfrwt beam="2">  1        1 0.16416367E-01 0.92033317E+02</pdfrwt>
<pdfrwt beam="1">  1       -1 0.30529971E-02 0.92033317E+02</pdfrwt>
<totfact> 0.10293760E+05</totfact>
</mgrwt>
</event>
<event>
 7    1  0.2787125E-009  0.9148762E+02  0.7818608E-02  0.1299289E+00
          1   -1    0    0  501    0  0.00000000000E+00  0.00000000000E+00  0.89364968357E+02  0.89364968499E+02  0.50400000000E-02 0. -1.
         -1   -1    0    0    0  501 -0.00000000000E+00 -0.00000000000E+00 -0.23415171769E+02  0.23415172311E+02  0.50400000000E-02 0.  1.
         23    2    1    2    0    0  0.00000000000E+00  0.00000000000E+00  0.65949796588E+02  0.11278014081E+03  0.91487619332E+02 0.  0.
    9000005    2    3    3    0    0 -0.41070565908E+02 -0.10980385239E+02  0.51787381910E+02  0.67970161637E+02  0.11430210143E+02 0.  0.
         22    1    3    3    0    0  0.41070565908E+02  0.10980385239E+02  0.14162414679E+02  0.44809979173E+02  0.00000000000E+00 0. -1.
         22    1    4    4    0    0 -0.63796886541E+00 -0.22922824883E+01  0.49224363477E+01  0.54673524558E+01  0.00000000000E+00 0.  1.
         22    1    4    4    0    0 -0.40432597042E+02 -0.86881027505E+01  0.46864945562E+02  0.62502809181E+02  0.00000000000E+00 0.  1.
<mgrwt>
<rscale>  0 0.91487619E+02</rscale>
<asrwt>0</asrwt>
<pdfrwt beam="1">  1        1 0.13748457E-01 0.91487619E+02</pdfrwt>
<pdfrwt beam="2">  1       -1 0.36023342E-02 0.91487619E+02</pdfrwt>
<totfact> 0.10159159E+05</totfact>
</mgrwt>
</event>
<event>
 7    1  0.2787125E-009  0.8927151E+02  0.7818608E-02  0.1304625E+00
         -1   -1    0    0    0  501 -0.00000000000E+00  0.00000000000E+00  0.19763117860E+03  0.19763117866E+03  0.50400000000E-02 0.  1.
          1   -1    0    0  501    0  0.00000000000E+00 -0.00000000000E+00 -0.10081155581E+02  0.10081156841E+02  0.50400000000E-02 0. -1.
         23    2    1    2    0    0  0.35527136788E-14 -0.35527136788E-14  0.18755002302E+03  0.20771233551E+03  0.89271513857E+02 0.  0.
    9000005    2    3    3    0    0 -0.22783859655E+02  0.28700093456E+02  0.37157869137E+02  0.52920218217E+02  0.87773932431E+01 0.  0.
         22    1    3    3    0    0  0.22783859655E+02 -0.28700093456E+02  0.15039215388E+03  0.15479211729E+03  0.00000000000E+00 0.  1.
         22    1    4    4    0    0 -0.88991088536E+01  0.13707681318E+02  0.10884510462E+02  0.19635865998E+02  0.00000000000E+00 0. -1.
         22    1    4    4    0    0 -0.13884750801E+02  0.14992412138E+02  0.26273358675E+02  0.33284352218E+02  0.00000000000E+00 0. -1.
<mgrwt>
<rscale>  0 0.89271514E+02</rscale>
<asrwt>0</asrwt>
<pdfrwt beam="2">  1        1 0.15509473E-02 0.89271514E+02</pdfrwt>
<pdfrwt beam="1">  1       -1 0.30404793E-01 0.89271514E+02</pdfrwt>
<totfact> 0.73595031E+04</totfact>
</mgrwt>
</event>
<event>
 7    1  0.2787125E-009  0.8950927E+02  0.7818608E-02  0.1304044E+00
         -1   -1    0    0    0  501 -0.00000000000E+00  0.00000000000E+00  0.10709552330E+03  0.10709552342E+03  0.50400000000E-02 0.  1.
          1   -1    0    0  501    0  0.00000000000E+00 -0.00000000000E+00 -0.18702715567E+02  0.18702716246E+02  0.50400000000E-02 0. -1.
         23    2    1    2    0    0  0.00000000000E+00  0.88817841970E-15  0.88392807738E+02  0.12579823967E+03  0.89509265689E+02 0.  0.
    9000005    2    3    3    0    0 -0.18558583620E+02  0.55835191330E+01  0.10017353682E+03  0.10311824210E+03  0.14934445507E+02 0.  0.
         22    1    3    3    0    0  0.18558583620E+02 -0.55835191330E+01 -0.11780729086E+02  0.22679997568E+02  0.00000000000E+00 0. -1.
         22    1    4    4    0    0 -0.13730961667E+02 -0.34977594778E+01  0.59682804154E+02  0.61341753654E+02  0.00000000000E+00 0.  1.
         22    1    4    4    0    0 -0.48276219524E+01  0.90812786108E+01  0.40490732670E+02  0.41776488448E+02  0.00000000000E+00 0.  1.
<mgrwt>
<rscale>  0 0.89509266E+02</rscale>
<asrwt>0</asrwt>
<pdfrwt beam="2">  1        1 0.28773409E-02 0.89509266E+02</pdfrwt>
<pdfrwt beam="1">  1       -1 0.16476235E-01 0.89509266E+02</pdfrwt>
<totfact> 0.84234356E+04</totfact>
</mgrwt>
</event>
<event>
 7    1  0.2787125E-009  0.9346020E+02  0.7818608E-02  0.1294682E+00
          1   -1    0    0  501    0  0.00000000000E+00  0.00000000000E+00  0.28904180488E+03  0.28904180493E+03  0.50400000000E-02 0. -1.
         -1   -1    0    0    0  501 -0.00000000000E+00 -0.00000000000E+00 -0.75549694756E+01  0.75549711567E+01  0.50400000000E-02 0.  1.
         23    2    1    2    0    0  0.00000000000E+00  0.00000000000E+00  0.28148683541E+03  0.29659677608E+03  0.93460200489E+02 0.  0.
    9000005    2    3    3    0    0 -0.34246158373E+02 -0.29226790193E+02  0.11610796442E+03  0.12519906432E+03  0.12912849292E+02 0.  0.
         22    1    3    3    0    0  0.34246158373E+02  0.29226790193E+02  0.16537887099E+03  0.17139771177E+03  0.00000000000E+00 0. -1.
         22    1    4    4    0    0 -0.21953875844E+02 -0.26179297518E+02  0.83750392648E+02  0.90451404366E+02  0.00000000000E+00 0. -1.
         22    1    4    4    0    0 -0.12292282529E+02 -0.30474926754E+01  0.32357571768E+02  0.34747659951E+02  0.00000000000E+00 0. -1.
<mgrwt>
<rscale>  0 0.93460200E+02</rscale>
<asrwt>0</asrwt>
<pdfrwt beam="1">  1        1 0.44467969E-01 0.93460200E+02</pdfrwt>
<pdfrwt beam="2">  1       -1 0.11623031E-02 0.93460200E+02</pdfrwt>
<totfact> 0.11907911E+05</totfact>
</mgrwt>
</event>
<event>
 7    1  0.2787125E-009  0.9026200E+02  0.7818608E-02  0.1302218E+00
         -1   -1    0    0    0  501 -0.00000000000E+00  0.00000000000E+00  0.28664511722E+02  0.28664512165E+02  0.50400000000E-02 0.  1.
          1   -1    0    0  501    0  0.00000000000E+00 -0.00000000000E+00 -0.71056755721E+02  0.71056755900E+02  0.50400000000E-02 0. -1.
         23    2    1    2    0    0  0.00000000000E+00 -0.71054273576E-14 -0.42392243999E+02  0.99721268065E+02  0.90262001713E+02 0.  0.
    9000005    2    3    3    0    0  0.22709230321E+02 -0.35747649314E+02 -0.36451091801E+02  0.56955617565E+02  0.11029809857E+02 0.  0.
         22    1    3    3    0    0 -0.22709230321E+02  0.35747649314E+02 -0.59411521983E+01  0.42765650500E+02  0.00000000000E+00 0.  1.
         22    1    4    4    0    0  0.22085301314E+02 -0.36575837485E+02 -0.35618880955E+02  0.55626046978E+02  0.00000000000E+00 0.  1.
         22    1    4    4    0    0  0.62392900736E+00  0.82818817180E+00 -0.83221084578E+00  0.13295705871E+01  0.00000000000E+00 0.  1.
<mgrwt>
<rscale>  0 0.90262002E+02</rscale>
<asrwt>0</asrwt>
<pdfrwt beam="2">  1        1 0.10931809E-01 0.90262002E+02</pdfrwt>
<pdfrwt beam="1">  1       -1 0.44099249E-02 0.90262002E+02</pdfrwt>
<totfact> 0.10167923E+05</totfact>
</mgrwt>
</event>
<event>
 7    1  0.2787125E-009  0.1001853E+03  0.7818608E-02  0.1279907E+00
         -1   -1    0    0    0  501 -0.00000000000E+00  0.00000000000E+00  0.42943135482E+01  0.42943165058E+01  0.50400000000E-02 0.  1.
          1   -1    0    0  501    0  0.00000000000E+00 -0.00000000000E+00 -0.58432415425E+03  0.58432415428E+03  0.50400000000E-02 0. -1.
         23    2    1    2    0    0  0.00000000000E+00  0.00000000000E+00 -0.58002984071E+03  0.58861847078E+03  0.10018526856E+03 0.  0.
    9000005    2    3    3    0    0 -0.48636236577E+02  0.53866227381E+01 -0.35274350492E+03  0.35612421785E+03  0.14067908893E+01 0.  0.
         22    1    3    3    0    0  0.48636236577E+02 -0.53866227381E+01 -0.22728633578E+03  0.23249425293E+03  0.00000000000E+00 0.  1.
         22    1    4    4    0    0 -0.38197937768E+02  0.41679756625E+01 -0.28108408892E+03  0.28369828958E+03  0.00000000000E+00 0. -1.
         22    1    4    4    0    0 -0.10438298809E+02  0.12186470756E+01 -0.71659416008E+02  0.72425928267E+02  0.00000000000E+00 0. -1.
<mgrwt>
<rscale>  0 0.10018527E+03</rscale>
<asrwt>0</asrwt>
<pdfrwt beam="2">  1        1 0.89895961E-01 0.10018527E+03</pdfrwt>
<pdfrwt beam="1">  1       -1 0.66066432E-03 0.10018527E+03</pdfrwt>
<totfact> 0.11001328E+05</totfact>
</mgrwt>
</event>
<event>
 7    1  0.2787125E-009  0.8691848E+02  0.7818608E-02  0.1310490E+00
         -1   -1    0    0    0  501 -0.00000000000E+00  0.00000000000E+00  0.56483418186E+01  0.56483440672E+01  0.50400000000E-02 0.  1.
          1   -1    0    0  501    0  0.00000000000E+00 -0.00000000000E+00 -0.33438226195E+03  0.33438226199E+03  0.50400000000E-02 0. -1.
         23    2    1    2    0    0 -0.35527136788E-14  0.00000000000E+00 -0.32873392013E+03  0.34003060606E+03  0.86918483704E+02 0.  0.
    9000005    2    3    3    0    0  0.21819791259E+02 -0.17432806211E+02 -0.29397658032E+03  0.29544272997E+03  0.91744696675E+01 0.  0.
         22    1    3    3    0    0 -0.21819791259E+02  0.17432806211E+02 -0.34757339818E+02  0.44587876090E+02  0.00000000000E+00 0. -1.
         22    1    4    4    0    0  0.19817833223E+02 -0.14151200846E+02 -0.27528452719E+03  0.27635950121E+03  0.00000000000E+00 0. -1.
         22    1    4    4    0    0  0.20019580352E+01 -0.32816053658E+01 -0.18692053129E+02  0.19083228761E+02  0.00000000000E+00 0. -1.
<mgrwt>
<rscale>  0 0.86918484E+02</rscale>
<asrwt>0</asrwt>
<pdfrwt beam="2">  1        1 0.51443409E-01 0.86918484E+02</pdfrwt>
<pdfrwt beam="1">  1       -1 0.86897611E-03 0.86918484E+02</pdfrwt>
<totfact> 0.14843820E+05</totfact>
</mgrwt>
</event>
<event>
 7    1  0.2787125E-009  0.9311113E+02  0.7818608E-02  0.1295488E+00
         -1   -1    0    0    0  501 -0.00000000000E+00  0.00000000000E+00  0.25445220448E+03  0.25445220453E+03  0.50400000000E-02 0.  1.
          1   -1    0    0  501    0  0.00000000000E+00 -0.00000000000E+00 -0.85179872772E+01  0.85179887682E+01  0.50400000000E-02 0. -1.
         23    2    1    2    0    0 -0.35527136788E-14  0.71054273576E-14  0.24593421720E+03  0.26297019330E+03  0.93111134522E+02 0.  0.
    9000005    2    3    3    0    0 -0.20009820849E+02  0.37483300096E+02  0.81610795174E+02  0.93242241140E+02  0.15113005242E+02 0.  0.
         22    1    3    3    0    0  0.20009820849E+02 -0.37483300096E+02  0.16432342203E+03  0.16972795216E+03  0.00000000000E+00 0.  1.
         22    1    4    4    0    0 -0.17657239358E+02  0.17118136118E+02  0.45137250895E+02  0.51402141047E+02  0.00000000000E+00 0.  1.
         22    1    4    4    0    0 -0.23525814912E+01  0.20365163977E+02  0.36473544279E+02  0.41840100093E+02  0.00000000000E+00 0.  1.
<mgrwt>
<rscale>  0 0.93111135E+02</rscale>
<asrwt>0</asrwt>
<pdfrwt beam="2">  1        1 0.13104595E-02 0.93111135E+02</pdfrwt>
<pdfrwt beam="1">  1       -1 0.39146500E-01 0.93111135E+02</pdfrwt>
<totfact> 0.60937007E+04</totfact>
</mgrwt>
</event>
<event>
 7    1  0.2787125E-009  0.7769702E+02  0.7818608E-02  0.1335717E+00
          1   -1    0    0  501    0  0.00000000000E+00  0.00000000000E+00  0.49024893658E+03  0.49024893660E+03  0.50400000000E-02 0. -1.
         -1   -1    0    0    0  501 -0.00000000000E+00 -0.00000000000E+00 -0.30784478544E+01  0.30784519801E+01  0.50400000000E-02 0.  1.
         23    2    1    2    0    0  0.35527136788E-14  0.00000000000E+00  0.48717048872E+03  0.49332738858E+03  0.77697022104E+02 0.  0.
    9000005    2    3    3    0    0 -0.17267070296E+02  0.30697306580E+02  0.34035825615E+03  0.34234954921E+03  0.10908481522E+02 0.  0.
         22    1    3    3    0    0  0.17267070296E+02 -0.30697306580E+02  0.14681223257E+03  0.15097783937E+03  0.00000000000E+00 0.  1.
         22    1    4    4    0    0 -0.43760714587E+01  0.28746889681E+01  0.84170275345E+02  0.84332965616E+02  0.00000000000E+00 0.  1.
         22    1    4    4    0    0 -0.12890998837E+02  0.27822617611E+02  0.25618798081E+03  0.25801658360E+03  0.00000000000E+00 0.  1.
<mgrwt>
<rscale>  0 0.77697022E+02</rscale>
<asrwt>0</asrwt>
<pdfrwt beam="1">  1        1 0.75422932E-01 0.77697022E+02</pdfrwt>
<pdfrwt beam="2">  1       -1 0.47360756E-03 0.77697022E+02</pdfrwt>
<totfact> 0.21157992E+05</totfact>
</mgrwt>
</event>
<event>
 7    1  0.2787125E-009  0.8946336E+02  0.7818608E-02  0.1304156E+00
          1   -1    0    0  501    0  0.00000000000E+00  0.00000000000E+00  0.10083510260E+04  0.10083510260E+04  0.50400000000E-02 0. -1.
         -1   -1    0    0    0  501 -0.00000000000E+00 -0.00000000000E+00 -0.19843486469E+01  0.19843550474E+01  0.50400000000E-02 0.  1.
         23    2    1    2    0    0  0.00000000000E+00  0.00000000000E+00  0.10063666774E+04  0.10103353811E+04  0.89463360852E+02 0.  0.
    9000005    2    3    3    0    0 -0.55389447718E+01 -0.20412300326E+02  0.94741927133E+03  0.94770840132E+03  0.10029772815E+02 0.  0.
         22    1    3    3    0    0  0.55389447718E+01  0.20412300326E+02  0.58947406030E+02  0.62626979741E+02  0.00000000000E+00 0.  1.
         22    1    4    4    0    0 -0.80355997521E+01 -0.17592663155E+02  0.84139134219E+03  0.84161360693E+03  0.00000000000E+00 0.  1.
         22    1    4    4    0    0  0.24966549803E+01 -0.28196371714E+01  0.10602792914E+03  0.10609479439E+03  0.00000000000E+00 0.  1.
<mgrwt>
<rscale>  0 0.89463361E+02</rscale>
<asrwt>0</asrwt>
<pdfrwt beam="1">  1        1 0.15513076E+00 0.89463361E+02</pdfrwt>
<pdfrwt beam="2">  1       -1 0.30528524E-03 0.89463361E+02</pdfrwt>
<totfact> 0.14268432E+05</totfact>
</mgrwt>
</event>
<event>
 7    1  0.2787125E-009  0.9347671E+02  0.7818608E-02  0.1294644E+00
         -1   -1    0    0    0  501 -0.00000000000E+00  0.00000000000E+00  0.25049811963E+03  0.25049811968E+03  0.50400000000E-02 0.  1.
          1   -1    0    0  501    0  0.00000000000E+00 -0.00000000000E+00 -0.87205186288E+01  0.87205200852E+01  0.50400000000E-02 0. -1.
         23    2    1    2    0    0 -0.35527136788E-14  0.00000000000E+00  0.24177760100E+03  0.25921863977E+03  0.93476707560E+02 0.  0.
    9000005    2    3    3    0    0  0.20419389521E+02 -0.34633424344E+02  0.18462234359E+03  0.18933910771E+03  0.12143410016E+02 0.  0.
         22    1    3    3    0    0 -0.20419389521E+02  0.34633424344E+02  0.57155257413E+02  0.69879532054E+02  0.00000000000E+00 0. -1.
         22    1    4    4    0    0  0.11762389028E+01  0.45666851445E+00  0.18681510775E+01  0.22543452568E+01  0.00000000000E+00 0.  1.
         22    1    4    4    0    0  0.19243150618E+02 -0.35090092858E+02  0.18275419251E+03  0.18708476245E+03  0.00000000000E+00 0.  1.
<mgrwt>
<rscale>  0 0.93476708E+02</rscale>
<asrwt>0</asrwt>
<pdfrwt beam="2">  1        1 0.13416183E-02 0.93476708E+02</pdfrwt>
<pdfrwt beam="1">  1       -1 0.38538173E-01 0.93476708E+02</pdfrwt>
<totfact> 0.60639281E+04</totfact>
</mgrwt>
</event>
<event>
 7    1  0.2787125E-009  0.9129865E+02  0.7818608E-02  0.1299737E+00
          1   -1    0    0  501    0  0.00000000000E+00  0.00000000000E+00  0.51397054370E+01  0.51397079081E+01  0.50400000000E-02 0. -1.
         -1   -1    0    0    0  501 -0.00000000000E+00 -0.00000000000E+00 -0.40544356133E+03  0.40544356136E+03  0.50400000000E-02 0.  1.
         23    2    1    2    0    0  0.44408920985E-15 -0.17763568394E-14 -0.40030385589E+03  0.41058326927E+03  0.91298652570E+02 0.  0.
    9000005    2    3    3    0    0 -0.34375298595E+01  0.12368260221E+02 -0.39713850719E+03  0.39736169958E+03  0.35406117346E+01 0.  0.
         22    1    3    3    0    0  0.34375298595E+01 -0.12368260221E+02 -0.31653486991E+01  0.13221569681E+02  0.00000000000E+00 0. -1.
         22    1    4    4    0    0 -0.34754195579E+01  0.59870091768E+01 -0.19806737660E+03  0.19818831573E+03  0.00000000000E+00 0.  1.
         22    1    4    4    0    0  0.37889698366E-01  0.63812510444E+01 -0.19907113059E+03  0.19917338385E+03  0.00000000000E+00 0.  1.
<mgrwt>
<rscale>  0 0.91298653E+02</rscale>
<asrwt>0</asrwt>
<pdfrwt beam="1">  1        1 0.79072442E-03 0.91298653E+02</pdfrwt>
<pdfrwt beam="2">  1       -1 0.62375908E-01 0.91298653E+02</pdfrwt>
<totfact> 0.52740088E+04</totfact>
</mgrwt>
</event>
<event>
 7    1  0.2787125E-009  0.9080885E+02  0.7818608E-02  0.1300905E+00
         -1   -1    0    0    0  501 -0.00000000000E+00  0.00000000000E+00  0.25762013841E+03  0.25762013846E+03  0.50400000000E-02 0.  1.
          1   -1    0    0  501    0  0.00000000000E+00 -0.00000000000E+00 -0.80023307948E+01  0.80023323820E+01  0.50400000000E-02 0. -1.
         23    2    1    2    0    0  0.00000000000E+00  0.00000000000E+00  0.24961780762E+03  0.26562247084E+03  0.90808849444E+02 0.  0.
    9000005    2    3    3    0    0 -0.36735675212E+02 -0.16893567250E+02  0.70636076869E+02  0.82130339161E+02  0.11001582045E+02 0.  0.
         22    1    3    3    0    0  0.36735675212E+02  0.16893567250E+02  0.17898173075E+03  0.18349213168E+03  0.00000000000E+00 0.  1.
         22    1    4    4    0    0 -0.29337920892E+02 -0.17169320913E+02  0.62385804421E+02  0.71045673873E+02  0.00000000000E+00 0.  1.
         22    1    4    4    0    0 -0.73977543208E+01  0.27575366232E+00  0.82502724480E+01  0.11084665288E+02  0.00000000000E+00 0.  1.
<mgrwt>
<rscale>  0 0.90808849E+02</rscale>
<asrwt>0</asrwt>
<pdfrwt beam="2">  1        1 0.12311282E-02 0.90808849E+02</pdfrwt>
<pdfrwt beam="1">  1       -1 0.39633860E-01 0.90808849E+02</pdfrwt>
<totfact> 0.64781787E+04</totfact>
</mgrwt>
</event>
<event>
 7    1  0.2787125E-009  0.9173416E+02  0.7818608E-02  0.1298706E+00
          1   -1    0    0  501    0  0.00000000000E+00  0.00000000000E+00  0.12173271590E+03  0.12173271601E+03  0.50400000000E-02 0. -1.
         -1   -1    0    0    0  501 -0.00000000000E+00 -0.00000000000E+00 -0.17282035984E+02  0.17282036718E+02  0.50400000000E-02 0.  1.
         23    2    1    2    0    0  0.00000000000E+00  0.00000000000E+00  0.10445067992E+03  0.13901475272E+03  0.91734164517E+02 0.  0.
    9000005    2    3    3    0    0  0.54740514987E+01 -0.40522323897E+02  0.81575549469E+02  0.92160771390E+02  0.12923371782E+02 0.  0.
         22    1    3    3    0    0 -0.54740514987E+01  0.40522323897E+02  0.22875130448E+02  0.46853981334E+02  0.00000000000E+00 0.  1.
         22    1    4    4    0    0  0.26317133195E+01 -0.87292386696E+01  0.87044327008E+01  0.12605263638E+02  0.00000000000E+00 0.  1.
         22    1    4    4    0    0  0.28423381792E+01 -0.31793085227E+02  0.72871116768E+02  0.79555507752E+02  0.00000000000E+00 0.  1.
<mgrwt>
<rscale>  0 0.91734165E+02</rscale>
<asrwt>0</asrwt>
<pdfrwt beam="1">  1        1 0.18728110E-01 0.91734165E+02</pdfrwt>
<pdfrwt beam="2">  1       -1 0.26587749E-02 0.91734165E+02</pdfrwt>
<totfact> 0.10623589E+05</totfact>
</mgrwt>
</event>
<event>
 7    1  0.2787125E-009  0.9024619E+02  0.7818608E-02  0.1302257E+00
          1   -1    0    0  501    0  0.00000000000E+00  0.00000000000E+00  0.85072560711E+01  0.85072575640E+01  0.50400000000E-02 0. -1.
         -1   -1    0    0    0  501 -0.00000000000E+00 -0.00000000000E+00 -0.23933611285E+03  0.23933611290E+03  0.50400000000E-02 0.  1.
         23    2    1    2    0    0 -0.22204460493E-15  0.00000000000E+00 -0.23082885678E+03  0.24784337047E+03  0.90246191957E+02 0.  0.
    9000005    2    3    3    0    0 -0.10853838463E+01  0.23380361725E+02 -0.22090801483E+03  0.22242207079E+03  0.11108878665E+02 0.  0.
         22    1    3    3    0    0  0.10853838463E+01 -0.23380361725E+02 -0.99208419519E+01  0.25421299682E+02  0.00000000000E+00 0. -1.
         22    1    4    4    0    0 -0.42025474966E+01  0.63584716296E+01 -0.98855759232E+02  0.99149143720E+02  0.00000000000E+00 0. -1.
         22    1    4    4    0    0  0.31171636503E+01  0.17021890095E+02 -0.12205225560E+03  0.12327292707E+03  0.00000000000E+00 0. -1.
<mgrwt>
<rscale>  0 0.90246192E+02</rscale>
<asrwt>0</asrwt>
<pdfrwt beam="1">  1        1 0.13088089E-02 0.90246192E+02</pdfrwt>
<pdfrwt beam="2">  1       -1 0.36820936E-01 0.90246192E+02</pdfrwt>
<totfact> 0.67494240E+04</totfact>
</mgrwt>
</event>
<event>
 7    1  0.2787125E-009  0.9216427E+02  0.7818608E-02  0.1297694E+00
          1   -1    0    0  501    0  0.00000000000E+00  0.00000000000E+00  0.84223465777E+02  0.84223465928E+02  0.50400000000E-02 0. -1.
         -1   -1    0    0    0  501 -0.00000000000E+00 -0.00000000000E+00 -0.25213437491E+02  0.25213437994E+02  0.50400000000E-02 0.  1.
         23    2    1    2    0    0 -0.71054273576E-14 -0.35527136788E-14  0.59010028286E+02  0.10943690392E+03  0.92164269116E+02 0.  0.
    9000005    2    3    3    0    0 -0.34610456760E+02 -0.25419827772E+02  0.46078509868E+02  0.64589657299E+02  0.14301866913E+02 0.  0.
         22    1    3    3    0    0  0.34610456760E+02  0.25419827772E+02  0.12931518418E+02  0.44847246623E+02  0.00000000000E+00 0.  1.
         22    1    4    4    0    0  0.11312398819E+01 -0.24550836230E+01  0.19386093079E+01  0.33264613804E+01  0.00000000000E+00 0.  1.
         22    1    4    4    0    0 -0.35741696642E+02 -0.22964744149E+02  0.44139900560E+02  0.61263195918E+02  0.00000000000E+00 0.  1.
<mgrwt>
<rscale>  0 0.92164269E+02</rscale>
<asrwt>0</asrwt>
<pdfrwt beam="1">  1        1 0.12957456E-01 0.92164269E+02</pdfrwt>
<pdfrwt beam="2">  1       -1 0.38789904E-02 0.92164269E+02</pdfrwt>
<totfact> 0.98610963E+04</totfact>
</mgrwt>
</event>
<event>
 7    1  0.2787125E-009  0.9091605E+02  0.7818608E-02  0.1300648E+00
         -1   -1    0    0    0  501 -0.00000000000E+00  0.00000000000E+00  0.83735893967E+01  0.83735909134E+01  0.50400000000E-02 0.  1.
          1   -1    0    0  501    0  0.00000000000E+00 -0.00000000000E+00 -0.24677969180E+03  0.24677969185E+03  0.50400000000E-02 0. -1.
         23    2    1    2    0    0  0.00000000000E+00  0.00000000000E+00 -0.23840610240E+03  0.25515328277E+03  0.90916049422E+02 0.  0.
    9000005    2    3    3    0    0 -0.28904466417E+02 -0.33775658223E+02 -0.13339397169E+03  0.14111902973E+03  0.12015223788E+02 0.  0.
         22    1    3    3    0    0  0.28904466417E+02  0.33775658223E+02 -0.10501213072E+03  0.11403425303E+03  0.00000000000E+00 0. -1.
         22    1    4    4    0    0 -0.15534717081E+02 -0.26775722336E+02 -0.88912068693E+02  0.94146814608E+02  0.00000000000E+00 0.  1.
         22    1    4    4    0    0 -0.13369749336E+02 -0.69999358876E+01 -0.44481902994E+02  0.46972215125E+02  0.00000000000E+00 0.  1.
<mgrwt>
<rscale>  0 0.90916049E+02</rscale>
<asrwt>0</asrwt>
<pdfrwt beam="2">  1        1 0.37966101E-01 0.90916049E+02</pdfrwt>
<pdfrwt beam="1">  1       -1 0.12882448E-02 0.90916049E+02</pdfrwt>
<totfact> 0.12430575E+05</totfact>
</mgrwt>
</event>
<event>
 7    1  0.3354787E-009  0.9265061E+02  0.7818608E-02  0.1296557E+00
         -1   -1    0    0    0  501 -0.00000000000E+00  0.00000000000E+00  0.44461104149E+03  0.44461104152E+03  0.50400000000E-02 0. -1.
          1   -1    0    0  501    0  0.00000000000E+00 -0.00000000000E+00 -0.48267659470E+01  0.48267685783E+01  0.50400000000E-02 0.  1.
         23    2    1    2    0    0 -0.44408920985E-15  0.00000000000E+00  0.43978427554E+03  0.44943781010E+03  0.92650613218E+02 0.  0.
    9000005    2    3    3    0    0 -0.39923329166E+01  0.19182410205E+02  0.42277042186E+03  0.42348834381E+03  0.14954737094E+02 0.  0.
         22    1    3    3    0    0  0.39923329166E+01 -0.19182410205E+02  0.17013853687E+02  0.25949466289E+02  0.00000000000E+00 0.  1.
         22    1    4    4    0    0 -0.97061578957E+01  0.12132385414E+02  0.27785144972E+03  0.27828552314E+03  0.00000000000E+00 0. -1.
         22    1    4    4    0    0  0.57138249790E+01  0.70500247911E+01  0.14491897213E+03  0.14520282067E+03  0.00000000000E+00 0. -1.
<mgrwt>
<rscale>  0 0.92650613E+02</rscale>
<asrwt>0</asrwt>
<pdfrwt beam="2">  1        1 0.74257950E-03 0.92650613E+02</pdfrwt>
<pdfrwt beam="1">  1       -1 0.68401706E-01 0.92650613E+02</pdfrwt>
<totfact> 0.48311766E+04</totfact>
</mgrwt>
</event>
<event>
 7    1  0.2787125E-009  0.9032467E+02  0.7818608E-02  0.1302067E+00
         -1   -1    0    0    0  501 -0.00000000000E+00  0.00000000000E+00  0.43596229309E+02  0.43596229600E+02  0.50400000000E-02 0.  1.
          1   -1    0    0  501    0  0.00000000000E+00 -0.00000000000E+00 -0.46784702173E+02  0.46784702444E+02  0.50400000000E-02 0. -1.
         23    2    1    2    0    0  0.71054273576E-14  0.00000000000E+00 -0.31884728641E+01  0.90380932044E+02  0.90324672808E+02 0.  0.
    9000005    2    3    3    0    0 -0.35918930299E+02  0.25130637889E+02  0.58964856265E+01  0.45612025588E+02  0.11134173563E+02 0.  0.
         22    1    3    3    0    0  0.35918930299E+02 -0.25130637889E+02 -0.90849584906E+01  0.44768906456E+02  0.00000000000E+00 0. -1.
         22    1    4    4    0    0 -0.35242838714E+02  0.22552616991E+02  0.34313479332E+01  0.41981571701E+02  0.00000000000E+00 0.  1.
         22    1    4    4    0    0 -0.67609158450E+00  0.25780208975E+01  0.24651376933E+01  0.36304538870E+01  0.00000000000E+00 0.  1.
<mgrwt>
<rscale>  0 0.90324673E+02</rscale>
<asrwt>0</asrwt>
<pdfrwt beam="2">  1        1 0.71976465E-02 0.90324673E+02</pdfrwt>
<pdfrwt beam="1">  1       -1 0.67071123E-02 0.90324673E+02</pdfrwt>
<totfact> 0.95305742E+04</totfact>
</mgrwt>
</event>
<event>
 7    1  0.2787125E-009  0.9233479E+02  0.7818608E-02  0.1297294E+00
         -1   -1    0    0    0  501 -0.00000000000E+00  0.00000000000E+00  0.42219637634E+02  0.42219637935E+02  0.50400000000E-02 0.  1.
          1   -1    0    0  501    0  0.00000000000E+00 -0.00000000000E+00 -0.50484284187E+02  0.50484284438E+02  0.50400000000E-02 0. -1.
         23    2    1    2    0    0  0.00000000000E+00 -0.17763568394E-14 -0.82646465527E+01  0.92703922373E+02  0.92334786732E+02 0.  0.
    9000005    2    3    3    0    0 -0.33636650401E+02 -0.14507536716E+02 -0.30744673192E+02  0.49724340367E+02  0.13615514073E+02 0.  0.
         22    1    3    3    0    0  0.33636650401E+02  0.14507536716E+02  0.22480026639E+02  0.42979582007E+02  0.00000000000E+00 0.  1.
         22    1    4    4    0    0 -0.28441184461E+02 -0.11668624608E+02 -0.17881617298E+02  0.35564167515E+02  0.00000000000E+00 0. -1.
         22    1    4    4    0    0 -0.51954659398E+01 -0.28389121078E+01 -0.12863055893E+02  0.14160172852E+02  0.00000000000E+00 0. -1.
<mgrwt>
<rscale>  0 0.92334787E+02</rscale>
<asrwt>0</asrwt>
<pdfrwt beam="2">  1        1 0.77668130E-02 0.92334787E+02</pdfrwt>
<pdfrwt beam="1">  1       -1 0.64953289E-02 0.92334787E+02</pdfrwt>
<totfact> 0.90640017E+04</totfact>
</mgrwt>
</event>
<event>
 7    1  0.2787125E-009  0.9435114E+02  0.7818608E-02  0.1292644E+00
         -1   -1    0    0    0  501 -0.00000000000E+00  0.00000000000E+00  0.17221687636E+01  0.17221761385E+01  0.50400000000E-02 0.  1.
          1   -1    0    0  501    0  0.00000000000E+00 -0.00000000000E+00 -0.12922832017E+04  0.12922832017E+04  0.50400000000E-02 0. -1.
         23    2    1    2    0    0  0.00000000000E+00  0.69388939039E-15 -0.12905610329E+04  0.12940053778E+04  0.94351142900E+02 0.  0.
    9000005    2    3    3    0    0 -0.20681073543E+02 -0.12021347747E+00 -0.12254492920E+04  0.12256880297E+04  0.12548209337E+02 0.  0.
         22    1    3    3    0    0  0.20681073543E+02  0.12021347747E+00 -0.65111740894E+02  0.68317348137E+02  0.00000000000E+00 0.  1.
         22    1    4    4    0    0 -0.39755082774E+01 -0.49367162168E+01 -0.23179238518E+03  0.23187903239E+03  0.00000000000E+00 0.  1.
         22    1    4    4    0    0 -0.16705565265E+02  0.48165027393E+01 -0.99365690684E+03  0.99380899730E+03  0.00000000000E+00 0.  1.
<mgrwt>
<rscale>  0 0.94351143E+02</rscale>
<asrwt>0</asrwt>
<pdfrwt beam="2">  1        1 0.19881203E+00 0.94351143E+02</pdfrwt>
<pdfrwt beam="1">  1       -1 0.26495064E-03 0.94351143E+02</pdfrwt>
<totfact> 0.11187235E+05</totfact>
</mgrwt>
</event>
<event>
 7    1  0.2787125E-009  0.9114236E+02  0.7818608E-02  0.1300109E+00
         -1   -1    0    0    0  501 -0.00000000000E+00  0.00000000000E+00  0.53571352602E+02  0.53571352839E+02  0.50400000000E-02 0.  1.
          1   -1    0    0  501    0  0.00000000000E+00 -0.00000000000E+00 -0.38765729622E+02  0.38765729950E+02  0.50400000000E-02 0. -1.
         23    2    1    2    0    0  0.00000000000E+00 -0.22204460493E-15  0.14805622980E+02  0.92337082789E+02  0.91142363290E+02 0.  0.
    9000005    2    3    3    0    0  0.31413380153E+02 -0.14226059428E+01 -0.25538961850E+02  0.41185252075E+02  0.74271229864E+01 0.  0.
         22    1    3    3    0    0 -0.31413380153E+02  0.14226059428E+01  0.40344584830E+02  0.51151830714E+02  0.00000000000E+00 0.  1.
         22    1    4    4    0    0  0.20385302297E+02  0.12550554855E+01 -0.12703561804E+02  0.24052363637E+02  0.00000000000E+00 0.  1.
         22    1    4    4    0    0  0.11028077856E+02 -0.26776614283E+01 -0.12835400045E+02  0.17132888438E+02  0.00000000000E+00 0.  1.
<mgrwt>
<rscale>  0 0.91142363E+02</rscale>
<asrwt>0</asrwt>
<pdfrwt beam="2">  1        1 0.59639585E-02 0.91142363E+02</pdfrwt>
<pdfrwt beam="1">  1       -1 0.82417465E-02 0.91142363E+02</pdfrwt>
<totfact> 0.90328640E+04</totfact>
</mgrwt>
</event>
<event>
 7    1  0.2787125E-009  0.9024481E+02  0.7818608E-02  0.1302260E+00
         -1   -1    0    0    0  501 -0.00000000000E+00  0.00000000000E+00  0.19055005394E+03  0.19055005401E+03  0.50400000000E-02 0.  1.
          1   -1    0    0  501    0  0.00000000000E+00 -0.00000000000E+00 -0.10685021307E+02  0.10685022496E+02  0.50400000000E-02 0. -1.
         23    2    1    2    0    0  0.35527136788E-14  0.35527136788E-14  0.17986503263E+03  0.20123507650E+03  0.90244811768E+02 0.  0.
    9000005    2    3    3    0    0 -0.28175772799E+02 -0.22729723738E+02  0.36112674224E+02  0.52994545398E+02  0.13920563506E+02 0.  0.
         22    1    3    3    0    0  0.28175772799E+02  0.22729723738E+02  0.14375235841E+03  0.14824053110E+03  0.00000000000E+00 0.  1.
         22    1    4    4    0    0 -0.28257200043E+02 -0.17454195155E+02  0.28697121165E+02  0.43893542189E+02  0.00000000000E+00 0. -1.
         22    1    4    4    0    0  0.81427244325E-01 -0.52755285833E+01  0.74155530594E+01  0.91010032088E+01  0.00000000000E+00 0. -1.
<mgrwt>
<rscale>  0 0.90244812E+02</rscale>
<asrwt>0</asrwt>
<pdfrwt beam="2">  1        1 0.16438498E-02 0.90244812E+02</pdfrwt>
<pdfrwt beam="1">  1       -1 0.29315389E-01 0.90244812E+02</pdfrwt>
<totfact> 0.72282250E+04</totfact>
</mgrwt>
</event>
<event>
 7    1  0.2787125E-009  0.9235946E+02  0.7818608E-02  0.1297236E+00
          1   -1    0    0  501    0  0.00000000000E+00  0.00000000000E+00  0.12233495493E+03  0.12233495504E+03  0.50400000000E-02 0. -1.
         -1   -1    0    0    0  501 -0.00000000000E+00 -0.00000000000E+00 -0.17432201033E+02  0.17432201762E+02  0.50400000000E-02 0.  1.
         23    2    1    2    0    0  0.00000000000E+00  0.00000000000E+00  0.10490275390E+03  0.13976715680E+03  0.92359462665E+02 0.  0.
    9000005    2    3    3    0    0  0.12156326496E+02 -0.35549633590E+02  0.93057399755E+02  0.10037343729E+03  0.18959274886E+01 0.  0.
         22    1    3    3    0    0 -0.12156326496E+02  0.35549633590E+02  0.11845354143E+02  0.39393719512E+02  0.00000000000E+00 0.  1.
         22    1    4    4    0    0  0.58720838208E+01 -0.18554362285E+02  0.45957932241E+02  0.49908689264E+02  0.00000000000E+00 0. -1.
         22    1    4    4    0    0  0.62842426754E+01 -0.16995271305E+02  0.47099467513E+02  0.50464748021E+02  0.00000000000E+00 0. -1.
<mgrwt>
<rscale>  0 0.92359463E+02</rscale>
<asrwt>0</asrwt>
<pdfrwt beam="1">  1        1 0.18820762E-01 0.92359463E+02</pdfrwt>
<pdfrwt beam="2">  1       -1 0.26818772E-02 0.92359463E+02</pdfrwt>
<totfact> 0.10438384E+05</totfact>
</mgrwt>
</event>
<event>
 7    1  0.2787125E-009  0.9720252E+02  0.7818608E-02  0.1286291E+00
          1   -1    0    0  501    0  0.00000000000E+00  0.00000000000E+00  0.45466312381E+02  0.45466312660E+02  0.50400000000E-02 0. -1.
         -1   -1    0    0    0  501 -0.00000000000E+00 -0.00000000000E+00 -0.51952366704E+02  0.51952366949E+02  0.50400000000E-02 0.  1.
         23    2    1    2    0    0 -0.35527136788E-14  0.00000000000E+00 -0.64860543234E+01  0.97418679609E+02  0.97202521758E+02 0.  0.
    9000005    2    3    3    0    0 -0.21336467108E+02 -0.43052514179E+02  0.97573230758E+00  0.48793150661E+02  0.84294538434E+01 0.  0.
         22    1    3    3    0    0  0.21336467108E+02  0.43052514179E+02 -0.74617866310E+01  0.48625528948E+02  0.00000000000E+00 0. -1.
         22    1    4    4    0    0 -0.13014270420E+02 -0.28049476816E+02 -0.33416694165E+01  0.31101625982E+02  0.00000000000E+00 0. -1.
         22    1    4    4    0    0 -0.83221966873E+01 -0.15003037363E+02  0.43174017241E+01  0.17691524679E+02  0.00000000000E+00 0. -1.
<mgrwt>
<rscale>  0 0.97202522E+02</rscale>
<asrwt>0</asrwt>
<pdfrwt beam="1">  1        1 0.69948173E-02 0.97202522E+02</pdfrwt>
<pdfrwt beam="2">  1       -1 0.79926718E-02 0.97202522E+02</pdfrwt>
<totfact> 0.77149993E+04</totfact>
</mgrwt>
</event>
<event>
 7    1  0.2787125E-009  0.1019247E+03  0.7818608E-02  0.1276300E+00
          1   -1    0    0  501    0  0.00000000000E+00  0.00000000000E+00  0.28552984410E+03  0.28552984415E+03  0.50400000000E-02 0. -1.
         -1   -1    0    0    0  501 -0.00000000000E+00 -0.00000000000E+00 -0.90959269590E+01  0.90959283554E+01  0.50400000000E-02 0.  1.
         23    2    1    2    0    0  0.00000000000E+00  0.00000000000E+00  0.27643391715E+03  0.29462577250E+03  0.10192465489E+03 0.  0.
    9000005    2    3    3    0    0  0.42574288507E+02 -0.26689182963E+02  0.15533213366E+03  0.16351313203E+03  0.91427604831E+01 0.  0.
         22    1    3    3    0    0 -0.42574288507E+02  0.26689182963E+02  0.12110178348E+03  0.13111264047E+03  0.00000000000E+00 0.  1.
         22    1    4    4    0    0  0.33265858986E+02 -0.16801902374E+02  0.10673284731E+03  0.11305229760E+03  0.00000000000E+00 0.  1.
         22    1    4    4    0    0  0.93084295212E+01 -0.98872805894E+01  0.48599286356E+02  0.50460834436E+02  0.00000000000E+00 0.  1.
<mgrwt>
<rscale>  0 0.10192465E+03</rscale>
<asrwt>0</asrwt>
<pdfrwt beam="1">  1        1 0.43927662E-01 0.10192465E+03</pdfrwt>
<pdfrwt beam="2">  1       -1 0.13993737E-02 0.10192465E+03</pdfrwt>
<totfact> 0.94116207E+04</totfact>
</mgrwt>
</event>
<event>
 7    1  0.2787125E-009  0.9170027E+02  0.7818608E-02  0.1298786E+00
          1   -1    0    0  501    0  0.00000000000E+00  0.00000000000E+00  0.16816515413E+01  0.16816590939E+01  0.50400000000E-02 0. -1.
         -1   -1    0    0    0  501 -0.00000000000E+00 -0.00000000000E+00 -0.12500985755E+04  0.12500985755E+04  0.50400000000E-02 0.  1.
         23    2    1    2    0    0  0.00000000000E+00  0.00000000000E+00 -0.12484169240E+04  0.12517802346E+04  0.91700271095E+02 0.  0.
    9000005    2    3    3    0    0 -0.20131204236E+01  0.30174021767E+02 -0.10908151769E+04  0.10913033362E+04  0.12275879399E+02 0.  0.
         22    1    3    3    0    0  0.20131204236E+01 -0.30174021767E+02 -0.15760174704E+03  0.16047689838E+03  0.00000000000E+00 0. -1.
         22    1    4    4    0    0 -0.24742085288E+01  0.12266024287E+02 -0.65594991618E+03  0.65606925670E+03  0.00000000000E+00 0. -1.
         22    1    4    4    0    0  0.46108810523E+00  0.17907997481E+02 -0.43486526076E+03  0.43523407954E+03  0.00000000000E+00 0. -1.
<mgrwt>
<rscale>  0 0.91700271E+02</rscale>
<asrwt>0</asrwt>
<pdfrwt beam="1">  1        1 0.25871720E-03 0.91700271E+02</pdfrwt>
<pdfrwt beam="2">  1       -1 0.19232212E+00 0.91700271E+02</pdfrwt>
<totfact> 0.18609912E+04</totfact>
</mgrwt>
</event>
<event>
 7    1  0.2787125E-009  0.8960172E+02  0.7818608E-02  0.1303819E+00
          1   -1    0    0  501    0  0.00000000000E+00  0.00000000000E+00  0.67738681166E+03  0.67738681168E+03  0.50400000000E-02 0. -1.
         -1   -1    0    0    0  501 -0.00000000000E+00 -0.00000000000E+00 -0.29630271019E+01  0.29630313883E+01  0.50400000000E-02 0.  1.
         23    2    1    2    0    0  0.00000000000E+00 -0.44408920985E-15  0.67442378456E+03  0.68034984307E+03  0.89601717527E+02 0.  0.
    9000005    2    3    3    0    0 -0.32732047205E+02  0.14277279890E+01  0.56512276882E+03  0.56624402655E+03  0.13968838334E+02 0.  0.
         22    1    3    3    0    0  0.32732047205E+02 -0.14277279890E+01  0.10930101574E+03  0.11410581652E+03  0.00000000000E+00 0.  1.
         22    1    4    4    0    0 -0.25481579973E+02 -0.41290097401E+01  0.36418226918E+03  0.36509599398E+03  0.00000000000E+00 0.  1.
         22    1    4    4    0    0 -0.72504672324E+01  0.55567377291E+01  0.20094049965E+03  0.20114803257E+03  0.00000000000E+00 0.  1.
<mgrwt>
<rscale>  0 0.89601718E+02</rscale>
<asrwt>0</asrwt>
<pdfrwt beam="1">  1        1 0.10421317E+00 0.89601718E+02</pdfrwt>
<pdfrwt beam="2">  1       -1 0.45585148E-03 0.89601718E+02</pdfrwt>
<totfact> 0.14888033E+05</totfact>
</mgrwt>
</event>
<event>
 7    1  0.3142745E-009  0.9201804E+02  0.7818608E-02  0.1298037E+00
          1   -1    0    0  501    0  0.00000000000E+00  0.00000000000E+00  0.40753696944E+02  0.40753697255E+02  0.50400000000E-02 0. -1.
         -1   -1    0    0    0  501 -0.00000000000E+00 -0.00000000000E+00 -0.51942037798E+02  0.51942038043E+02  0.50400000000E-02 0.  1.
         23    2    1    2    0    0  0.88817841970E-15  0.35527136788E-14 -0.11188340854E+02  0.92695735298E+02  0.92018043727E+02 0.  0.
    9000005    2    3    3    0    0 -0.13524522144E+01 -0.23888416335E+02 -0.43944555786E+02  0.52131524735E+02  0.14631689102E+02 0.  0.
         22    1    3    3    0    0  0.13524522144E+01  0.23888416335E+02  0.32756214931E+02  0.40564210563E+02  0.00000000000E+00 0. -1.
         22    1    4    4    0    0 -0.75824150774E+01 -0.82183736335E+01 -0.17312416287E+02  0.20609571594E+02  0.00000000000E+00 0.  1.
         22    1    4    4    0    0  0.62299628630E+01 -0.15670042701E+02 -0.26632139499E+02  0.31521953141E+02  0.00000000000E+00 0.  1.
<mgrwt>
<rscale>  0 0.92018044E+02</rscale>
<asrwt>0</asrwt>
<pdfrwt beam="1">  1        1 0.62697996E-02 0.92018044E+02</pdfrwt>
<pdfrwt beam="2">  1       -1 0.79910827E-02 0.92018044E+02</pdfrwt>
<totfact> 0.88590750E+04</totfact>
</mgrwt>
</event>
<event>
 7    1  0.2787125E-009  0.8810997E+02  0.7818608E-02  0.1307494E+00
          1   -1    0    0  501    0  0.00000000000E+00  0.00000000000E+00  0.33949884146E+03  0.33949884150E+03  0.50400000000E-02 0. -1.
         -1   -1    0    0    0  501 -0.00000000000E+00 -0.00000000000E+00 -0.57167827230E+01  0.57167849447E+01  0.50400000000E-02 0.  1.
         23    2    1    2    0    0  0.00000000000E+00  0.00000000000E+00  0.33378205873E+03  0.34521562644E+03  0.88109965413E+02 0.  0.
    9000005    2    3    3    0    0 -0.37786445656E+02 -0.19826608794E+02  0.16098108079E+03  0.16722380677E+03  0.15099115401E+02 0.  0.
         22    1    3    3    0    0  0.37786445656E+02  0.19826608794E+02  0.17280097794E+03  0.17799181967E+03  0.00000000000E+00 0. -1.
         22    1    4    4    0    0 -0.27682999758E+02 -0.14933952841E+02  0.89493600292E+02  0.94860296839E+02  0.00000000000E+00 0. -1.
         22    1    4    4    0    0 -0.10103445899E+02 -0.48926559533E+01  0.71487480503E+02  0.72363509934E+02  0.00000000000E+00 0. -1.
<mgrwt>
<rscale>  0 0.88109965E+02</rscale>
<asrwt>0</asrwt>
<pdfrwt beam="1">  1        1 0.52230627E-01 0.88109965E+02</pdfrwt>
<pdfrwt beam="2">  1       -1 0.87950461E-03 0.88109965E+02</pdfrwt>
<totfact> 0.14357564E+05</totfact>
</mgrwt>
</event>
<event>
 7    1  0.2787125E-009  0.9016955E+02  0.7818608E-02  0.1302442E+00
          1   -1    0    0  501    0  0.00000000000E+00  0.00000000000E+00  0.34046754462E+02  0.34046754835E+02  0.50400000000E-02 0. -1.
         -1   -1    0    0    0  501 -0.00000000000E+00 -0.00000000000E+00 -0.59701340994E+02  0.59701341207E+02  0.50400000000E-02 0.  1.
         23    2    1    2    0    0 -0.17763568394E-14  0.71054273576E-14 -0.25654586532E+02  0.93748096042E+02  0.90169549746E+02 0.  0.
    9000005    2    3    3    0    0  0.12905865665E+02  0.33133436710E+02  0.14176159427E+02  0.40354516649E+02  0.12772529941E+02 0.  0.
         22    1    3    3    0    0 -0.12905865665E+02 -0.33133436710E+02 -0.39830745958E+02  0.53393579393E+02  0.00000000000E+00 0.  1.
         22    1    4    4    0    0  0.11550282943E+02  0.32860699633E+02  0.10427353876E+02  0.36358827336E+02  0.00000000000E+00 0. -1.
         22    1    4    4    0    0  0.13555827227E+01  0.27273707770E+00  0.37488055506E+01  0.39956893132E+01  0.00000000000E+00 0. -1.
<mgrwt>
<rscale>  0 0.90169550E+02</rscale>
<asrwt>0</asrwt>
<pdfrwt beam="1">  1        1 0.52379623E-02 0.90169550E+02</pdfrwt>
<pdfrwt beam="2">  1       -1 0.91848217E-02 0.90169550E+02</pdfrwt>
<totfact> 0.91282080E+04</totfact>
</mgrwt>
</event>
<event>
 7    1  0.2787125E-009  0.1010878E+03  0.7818608E-02  0.1278025E+00
         -1   -1    0    0    0  501 -0.00000000000E+00  0.00000000000E+00  0.86785984663E+03  0.86785984665E+03  0.50400000000E-02 0.  1.
          1   -1    0    0  501    0  0.00000000000E+00 -0.00000000000E+00 -0.29436567836E+01  0.29436610982E+01  0.50400000000E-02 0. -1.
         23    2    1    2    0    0 -0.17763568394E-14  0.00000000000E+00  0.86491618985E+03  0.87080350775E+03  0.10108775217E+03 0.  0.
    9000005    2    3    3    0    0 -0.88399409113E+01 -0.19214848708E+02  0.82744305732E+03  0.82777339471E+03  0.99712045014E+01 0.  0.
         22    1    3    3    0    0  0.88399409113E+01  0.19214848708E+02  0.37473132529E+02  0.43030113034E+02  0.00000000000E+00 0. -1.
         22    1    4    4    0    0 -0.87483203660E+01 -0.18281677622E+02  0.82202468873E+03  0.82227449293E+03  0.00000000000E+00 0. -1.
         22    1    4    4    0    0 -0.91620545389E-01 -0.93317108574E+00  0.54183685960E+01  0.54989017851E+01  0.00000000000E+00 0. -1.
<mgrwt>
<rscale>  0 0.10108775E+03</rscale>
<asrwt>0</asrwt>
<pdfrwt beam="2">  1        1 0.45287021E-03 0.10108775E+03</pdfrwt>
<pdfrwt beam="1">  1       -1 0.13351702E+00 0.10108775E+03</pdfrwt>
<totfact> 0.22909494E+04</totfact>
</mgrwt>
</event>
<event>
 7    1  0.2787125E-009  0.9241761E+02  0.7818608E-02  0.1297101E+00
         -1   -1    0    0    0  501 -0.00000000000E+00  0.00000000000E+00  0.53639683673E+01  0.53639707351E+01  0.50400000000E-02 0.  1.
          1   -1    0    0  501    0  0.00000000000E+00 -0.00000000000E+00 -0.39807341066E+03  0.39807341069E+03  0.50400000000E-02 0. -1.
         23    2    1    2    0    0  0.00000000000E+00  0.00000000000E+00 -0.39270944229E+03  0.40343738142E+03  0.92417610155E+02 0.  0.
    9000005    2    3    3    0    0 -0.39231266402E+02 -0.22338762945E+02 -0.19758627181E+03  0.20315966361E+03  0.13978609312E+02 0.  0.
         22    1    3    3    0    0  0.39231266402E+02  0.22338762945E+02 -0.19512317048E+03  0.20027771781E+03  0.00000000000E+00 0. -1.
         22    1    4    4    0    0 -0.13249695495E+02 -0.10032154694E+02 -0.10195353119E+03  0.10329918238E+03  0.00000000000E+00 0. -1.
         22    1    4    4    0    0 -0.25981570907E+02 -0.12306608251E+02 -0.95632740622E+02  0.99860481234E+02  0.00000000000E+00 0. -1.
<mgrwt>
<rscale>  0 0.92417610E+02</rscale>
<asrwt>0</asrwt>
<pdfrwt beam="2">  1        1 0.61242040E-01 0.92417610E+02</pdfrwt>
<pdfrwt beam="1">  1       -1 0.82522640E-03 0.92417610E+02</pdfrwt>
<totfact> 0.13002725E+05</totfact>
</mgrwt>
</event>
<event>
 7    1  0.2787125E-009  0.9211397E+02  0.7818608E-02  0.1297812E+00
         -1   -1    0    0    0  501 -0.00000000000E+00  0.00000000000E+00  0.18871646369E+01  0.18871713670E+01  0.50400000000E-02 0.  1.
          1   -1    0    0  501    0  0.00000000000E+00 -0.00000000000E+00 -0.11240365623E+04  0.11240365623E+04  0.50400000000E-02 0. -1.
         23    2    1    2    0    0 -0.35527136788E-14  0.17763568394E-14 -0.11221493977E+04  0.11259237337E+04  0.92113969541E+02 0.  0.
    9000005    2    3    3    0    0  0.31694659599E+02 -0.12455778134E+02 -0.93699882202E+03  0.93766743626E+03  0.96814618360E+01 0.  0.
         22    1    3    3    0    0 -0.31694659599E+02  0.12455778134E+02 -0.18515057566E+03  0.18825629743E+03  0.00000000000E+00 0.  1.
         22    1    4    4    0    0  0.24798556587E+02 -0.77326087350E+01 -0.79377674023E+03  0.79420165889E+03  0.00000000000E+00 0. -1.
         22    1    4    4    0    0  0.68961030116E+01 -0.47231693991E+01 -0.14322208178E+03  0.14346577737E+03  0.00000000000E+00 0. -1.
<mgrwt>
<rscale>  0 0.92113970E+02</rscale>
<asrwt>0</asrwt>
<pdfrwt beam="2">  1        1 0.17292817E+00 0.92113970E+02</pdfrwt>
<pdfrwt beam="1">  1       -1 0.29033444E-03 0.92113970E+02</pdfrwt>
<totfact> 0.12743459E+05</totfact>
</mgrwt>
</event>
<event>
 7    1  0.2787125E-009  0.9206479E+02  0.7818608E-02  0.1297927E+00
         -1   -1    0    0    0  501 -0.00000000000E+00  0.00000000000E+00  0.35347460966E+03  0.35347460969E+03  0.50400000000E-02 0.  1.
          1   -1    0    0  501    0  0.00000000000E+00 -0.00000000000E+00 -0.59947190267E+01  0.59947211454E+01  0.50400000000E-02 0. -1.
         23    2    1    2    0    0  0.00000000000E+00 -0.35527136788E-14  0.34747989063E+03  0.35946933084E+03  0.92064789257E+02 0.  0.
    9000005    2    3    3    0    0 -0.32245811078E+02 -0.24070309963E+02  0.25542850265E+03  0.25900724753E+03  0.14895037848E+02 0.  0.
         22    1    3    3    0    0  0.32245811078E+02  0.24070309963E+02  0.92051387974E+02  0.10046208330E+03  0.00000000000E+00 0. -1.
         22    1    4    4    0    0 -0.44034617375E+00  0.10844878450E+01  0.25746111348E+02  0.25772703936E+02  0.00000000000E+00 0. -1.
         22    1    4    4    0    0 -0.31805464904E+02 -0.25154797808E+02  0.22968239131E+03  0.23323454360E+03  0.00000000000E+00 0. -1.
<mgrwt>
<rscale>  0 0.92064789E+02</rscale>
<asrwt>0</asrwt>
<pdfrwt beam="2">  1        1 0.92226472E-03 0.92064789E+02</pdfrwt>
<pdfrwt beam="1">  1       -1 0.54380704E-01 0.92064789E+02</pdfrwt>
<totfact> 0.55117441E+04</totfact>
</mgrwt>
</event>
<event>
 7    1  0.2787125E-009  0.9631947E+02  0.7818608E-02  0.1288232E+00
         -1   -1    0    0    0  501 -0.00000000000E+00  0.00000000000E+00  0.11924736349E+03  0.11924736360E+03  0.50400000000E-02 0.  1.
          1   -1    0    0  501    0  0.00000000000E+00 -0.00000000000E+00 -0.19449990411E+02  0.19449991064E+02  0.50400000000E-02 0. -1.
         23    2    1    2    0    0  0.00000000000E+00  0.00000000000E+00  0.99797373083E+02  0.13869735466E+03  0.96319471118E+02 0.  0.
    9000005    2    3    3    0    0 -0.44681463215E+01 -0.29055201794E+02  0.10454954691E+03  0.10891896923E+03  0.82803996022E+01 0.  0.
         22    1    3    3    0    0  0.44681463215E+01  0.29055201794E+02 -0.47521738236E+01  0.29778385431E+02  0.00000000000E+00 0. -1.
         22    1    4    4    0    0  0.13163075128E+01 -0.16085264967E+02  0.61783750129E+02  0.63856872727E+02  0.00000000000E+00 0.  1.
         22    1    4    4    0    0 -0.57844538343E+01 -0.12969936827E+02  0.42765796778E+02  0.45062096506E+02  0.00000000000E+00 0.  1.
<mgrwt>
<rscale>  0 0.96319471E+02</rscale>
<asrwt>0</asrwt>
<pdfrwt beam="2">  1        1 0.29923063E-02 0.96319471E+02</pdfrwt>
<pdfrwt beam="1">  1       -1 0.18345748E-01 0.96319471E+02</pdfrwt>
<totfact> 0.68215952E+04</totfact>
</mgrwt>
</event>
<event>
 7    1  0.2787125E-009  0.9121628E+02  0.7818608E-02  0.1299933E+00
          1   -1    0    0  501    0  0.00000000000E+00  0.00000000000E+00  0.66200529015E+02  0.66200529207E+02  0.50400000000E-02 0. -1.
         -1   -1    0    0    0  501 -0.00000000000E+00 -0.00000000000E+00 -0.31421238172E+02  0.31421238576E+02  0.50400000000E-02 0.  1.
         23    2    1    2    0    0  0.00000000000E+00  0.35527136788E-14  0.34779290843E+02  0.97621767783E+02  0.91216284037E+02 0.  0.
    9000005    2    3    3    0    0 -0.29799715178E+02  0.18859866950E+02  0.46511718258E+02  0.60455015717E+02  0.15740120204E+02 0.  0.
         22    1    3    3    0    0  0.29799715178E+02 -0.18859866950E+02 -0.11732427415E+02  0.37166752066E+02  0.00000000000E+00 0.  1.
         22    1    4    4    0    0 -0.20289186365E+02  0.20623636072E+02  0.34090224632E+02  0.44711618888E+02  0.00000000000E+00 0.  1.
         22    1    4    4    0    0 -0.95105288125E+01 -0.17637691219E+01  0.12421493626E+02  0.15743396829E+02  0.00000000000E+00 0.  1.
<mgrwt>
<rscale>  0 0.91216284E+02</rscale>
<asrwt>0</asrwt>
<pdfrwt beam="1">  1        1 0.10184697E-01 0.91216284E+02</pdfrwt>
<pdfrwt beam="2">  1       -1 0.48340367E-02 0.91216284E+02</pdfrwt>
<totfact> 0.97707280E+04</totfact>
</mgrwt>
</event>
<event>
 7    1  0.2787125E-009  0.9092692E+02  0.7818608E-02  0.1300622E+00
         -1   -1    0    0    0  501 -0.00000000000E+00  0.00000000000E+00  0.99995749211E+01  0.99995761912E+01  0.50400000000E-02 0.  1.
          1   -1    0    0  501    0  0.00000000000E+00 -0.00000000000E+00 -0.20670139642E+03  0.20670139649E+03  0.50400000000E-02 0. -1.
         23    2    1    2    0    0  0.00000000000E+00  0.00000000000E+00 -0.19670182150E+03  0.21670097268E+03  0.90926921076E+02 0.  0.
    9000005    2    3    3    0    0  0.23869210964E+02 -0.30824520408E+01 -0.19011416011E+03  0.19174825689E+03  0.66902467066E+01 0.  0.
         22    1    3    3    0    0 -0.23869210964E+02  0.30824520408E+01 -0.65876613882E+01  0.24952715788E+02  0.00000000000E+00 0.  1.
         22    1    4    4    0    0  0.16743009420E+02 -0.33955332198E+01 -0.11019689398E+03  0.11151328824E+03  0.00000000000E+00 0.  1.
         22    1    4    4    0    0  0.71262015441E+01  0.31308117896E+00 -0.79917266132E+02  0.80234968650E+02  0.00000000000E+00 0.  1.
<mgrwt>
<rscale>  0 0.90926921E+02</rscale>
<asrwt>0</asrwt>
<pdfrwt beam="2">  1        1 0.31800212E-01 0.90926921E+02</pdfrwt>
<pdfrwt beam="1">  1       -1 0.15383964E-02 0.90926921E+02</pdfrwt>
<totfact> 0.12004631E+05</totfact>
</mgrwt>
</event>
<event>
 7    1  0.2787125E-009  0.9103222E+02  0.7818608E-02  0.1300371E+00
         -1   -1    0    0    0  501 -0.00000000000E+00  0.00000000000E+00  0.41622791544E+02  0.41622791849E+02  0.50400000000E-02 0.  1.
          1   -1    0    0  501    0  0.00000000000E+00 -0.00000000000E+00 -0.49773598066E+02  0.49773598321E+02  0.50400000000E-02 0. -1.
         23    2    1    2    0    0  0.00000000000E+00 -0.71054273576E-14 -0.81508065214E+01  0.91396390170E+02  0.91032216765E+02 0.  0.
    9000005    2    3    3    0    0  0.22441723053E+01  0.44122718300E+02 -0.86571397555E+01  0.47213735736E+02  0.14224633346E+02 0.  0.
         22    1    3    3    0    0 -0.22441723053E+01 -0.44122718300E+02  0.50633323407E+00  0.44182654434E+02  0.00000000000E+00 0.  1.
         22    1    4    4    0    0  0.78007814065E+01  0.17759317604E+02 -0.23148212928E+01  0.19534685816E+02  0.00000000000E+00 0.  1.
         22    1    4    4    0    0 -0.55566091012E+01  0.26363400696E+02 -0.63423184626E+01  0.27679049920E+02  0.00000000000E+00 0.  1.
<mgrwt>
<rscale>  0 0.91032217E+02</rscale>
<asrwt>0</asrwt>
<pdfrwt beam="2">  1        1 0.76574767E-02 0.91032217E+02</pdfrwt>
<pdfrwt beam="1">  1       -1 0.64035064E-02 0.91032217E+02</pdfrwt>
<totfact> 0.94117208E+04</totfact>
</mgrwt>
</event>
<event>
 7    1  0.2787125E-009  0.9041651E+02  0.7818608E-02  0.1301846E+00
         -1   -1    0    0    0  501 -0.00000000000E+00  0.00000000000E+00  0.12789174497E+03  0.12789174506E+03  0.50400000000E-02 0.  1.
          1   -1    0    0  501    0  0.00000000000E+00 -0.00000000000E+00 -0.15980595168E+02  0.15980595963E+02  0.50400000000E-02 0. -1.
         23    2    1    2    0    0  0.00000000000E+00  0.00000000000E+00  0.11191114980E+03  0.14387234103E+03  0.90416508802E+02 0.  0.
    9000005    2    3    3    0    0 -0.15446824226E+02  0.17332491062E+02  0.11758210928E+03  0.11997298107E+03  0.53799755608E+01 0.  0.
         22    1    3    3    0    0  0.15446824226E+02 -0.17332491062E+02 -0.56709594872E+01  0.23899359962E+02  0.00000000000E+00 0. -1.
         22    1    4    4    0    0 -0.39289118474E+01  0.57648337025E+01  0.47835722211E+02  0.48341762229E+02  0.00000000000E+00 0. -1.
         22    1    4    4    0    0 -0.11517912378E+02  0.11567657360E+02  0.69746387073E+02  0.71631218837E+02  0.00000000000E+00 0. -1.
<mgrwt>
<rscale>  0 0.90416509E+02</rscale>
<asrwt>0</asrwt>
<pdfrwt beam="2">  1        1 0.24585532E-02 0.90416509E+02</pdfrwt>
<pdfrwt beam="1">  1       -1 0.19675653E-01 0.90416509E+02</pdfrwt>
<totfact> 0.79191416E+04</totfact>
</mgrwt>
</event>
<event>
 7    1  0.2787125E-009  0.8938665E+02  0.7818608E-02  0.1304344E+00
          1   -1    0    0  501    0  0.00000000000E+00  0.00000000000E+00  0.40020174557E+02  0.40020174874E+02  0.50400000000E-02 0. -1.
         -1   -1    0    0    0  501 -0.00000000000E+00 -0.00000000000E+00 -0.49912158679E+02  0.49912158933E+02  0.50400000000E-02 0.  1.
         23    2    1    2    0    0  0.17763568394E-14 -0.17763568394E-14 -0.98919841222E+01  0.89932333807E+02  0.89386650649E+02 0.  0.
    9000005    2    3    3    0    0 -0.15806290271E+02  0.14532712804E+02 -0.43796355390E+02  0.49800738466E+02  0.10047599349E+02 0.  0.
         22    1    3    3    0    0  0.15806290271E+02 -0.14532712804E+02  0.33904371268E+02  0.40131595342E+02  0.00000000000E+00 0. -1.
         22    1    4    4    0    0 -0.11374523139E+02  0.71349737793E+01 -0.34977966670E+02  0.37466595520E+02  0.00000000000E+00 0.  1.
         22    1    4    4    0    0 -0.44317671321E+01  0.73977390246E+01 -0.88183887202E+01  0.12334142946E+02  0.00000000000E+00 0.  1.
<mgrwt>
<rscale>  0 0.89386651E+02</rscale>
<asrwt>0</asrwt>
<pdfrwt beam="1">  1        1 0.61569500E-02 0.89386651E+02</pdfrwt>
<pdfrwt beam="2">  1       -1 0.76787937E-02 0.89386651E+02</pdfrwt>
<totfact> 0.95880729E+04</totfact>
</mgrwt>
</event>
<event>
 7    1  0.2787125E-009  0.9139333E+02  0.7818608E-02  0.1299512E+00
          1   -1    0    0  501    0  0.00000000000E+00  0.00000000000E+00  0.26754556958E+03  0.26754556963E+03  0.50400000000E-02 0. -1.
         -1   -1    0    0    0  501 -0.00000000000E+00 -0.00000000000E+00 -0.78049686610E+01  0.78049702883E+01  0.50400000000E-02 0.  1.
         23    2    1    2    0    0  0.00000000000E+00 -0.35527136788E-14  0.25974060092E+03  0.27535053991E+03  0.91393326157E+02 0.  0.
    9000005    2    3    3    0    0 -0.22739333888E+02  0.27304530750E+02  0.21641659684E+03  0.21931854874E+03  0.13666493112E+01 0.  0.
         22    1    3    3    0    0  0.22739333888E+02 -0.27304530750E+02  0.43324004077E+02  0.56031991170E+02  0.00000000000E+00 0.  1.
         22    1    4    4    0    0 -0.77014699903E+01  0.99163018044E+01  0.73429298017E+02  0.74495016536E+02  0.00000000000E+00 0. -1.
         22    1    4    4    0    0 -0.15037863898E+02  0.17388228946E+02  0.14298729882E+03  0.14482353221E+03  0.00000000000E+00 0. -1.
<mgrwt>
<rscale>  0 0.91393326E+02</rscale>
<asrwt>0</asrwt>
<pdfrwt beam="1">  1        1 0.41160848E-01 0.91393326E+02</pdfrwt>
<pdfrwt beam="2">  1       -1 0.12007648E-02 0.91393326E+02</pdfrwt>
<totfact> 0.12452755E+05</totfact>
</mgrwt>
</event>
<event>
 7    1  0.2787125E-009  0.9199564E+02  0.7818608E-02  0.1298090E+00
         -1   -1    0    0    0  501 -0.00000000000E+00  0.00000000000E+00  0.88283925473E+01  0.88283939859E+01  0.50400000000E-02 0.  1.
          1   -1    0    0  501    0  0.00000000000E+00 -0.00000000000E+00 -0.23965851109E+03  0.23965851115E+03  0.50400000000E-02 0. -1.
         23    2    1    2    0    0  0.71054273576E-14  0.00000000000E+00 -0.23083011855E+03  0.24848690513E+03  0.91995643344E+02 0.  0.
    9000005    2    3    3    0    0 -0.39813963676E+02  0.41134100554E+01 -0.17375570184E+03  0.17877635436E+03  0.12956431327E+02 0.  0.
         22    1    3    3    0    0  0.39813963676E+02 -0.41134100554E+01 -0.57074416712E+02  0.69710550772E+02  0.00000000000E+00 0.  1.
         22    1    4    4    0    0 -0.26392260984E+02  0.88199457249E+01 -0.11760716590E+03  0.12085440974E+03  0.00000000000E+00 0. -1.
         22    1    4    4    0    0 -0.13421702692E+02 -0.47065356695E+01 -0.56148535937E+02  0.57921944624E+02  0.00000000000E+00 0. -1.
<mgrwt>
<rscale>  0 0.91995643E+02</rscale>
<asrwt>0</asrwt>
<pdfrwt beam="2">  1        1 0.36870535E-01 0.91995643E+02</pdfrwt>
<pdfrwt beam="1">  1       -1 0.13582145E-02 0.91995643E+02</pdfrwt>
<totfact> 0.11975564E+05</totfact>
</mgrwt>
</event>
<event>
 7    1  0.2787125E-009  0.9036623E+02  0.7818608E-02  0.1301967E+00
         -1   -1    0    0    0  501 -0.00000000000E+00  0.00000000000E+00  0.44126358231E+02  0.44126358519E+02  0.50400000000E-02 0.  1.
          1   -1    0    0  501    0  0.00000000000E+00 -0.00000000000E+00 -0.46265182356E+02  0.46265182631E+02  0.50400000000E-02 0. -1.
         23    2    1    2    0    0  0.00000000000E+00 -0.35527136788E-14 -0.21388241251E+01  0.90391541150E+02  0.90366233421E+02 0.  0.
    9000005    2    3    3    0    0  0.27959526894E+02  0.30508284531E+02 -0.17418314797E+02  0.46278579286E+02  0.11216890890E+02 0.  0.
         22    1    3    3    0    0 -0.27959526894E+02 -0.30508284531E+02  0.15279490672E+02  0.44112961863E+02  0.00000000000E+00 0.  1.
         22    1    4    4    0    0  0.11571319931E+02  0.51885699067E+01 -0.59973209409E+01  0.14027992054E+02  0.00000000000E+00 0.  1.
         22    1    4    4    0    0  0.16388206963E+02  0.25319714625E+02 -0.11420993856E+02  0.32250587232E+02  0.00000000000E+00 0.  1.
<mgrwt>
<rscale>  0 0.90366233E+02</rscale>
<asrwt>0</asrwt>
<pdfrwt beam="2">  1        1 0.71177204E-02 0.90366233E+02</pdfrwt>
<pdfrwt beam="1">  1       -1 0.67886705E-02 0.90366233E+02</pdfrwt>
<totfact> 0.95024869E+04</totfact>
</mgrwt>
</event>
<event>
 7    1  0.2787125E-009  0.9093163E+02  0.7818608E-02  0.1300611E+00
         -1   -1    0    0    0  501 -0.00000000000E+00  0.00000000000E+00  0.57660679622E+03  0.57660679624E+03  0.50400000000E-02 0.  1.
          1   -1    0    0  501    0  0.00000000000E+00 -0.00000000000E+00 -0.35850070134E+01  0.35850105561E+01  0.50400000000E-02 0. -1.
         23    2    1    2    0    0  0.00000000000E+00  0.00000000000E+00  0.57302178920E+03  0.58019180679E+03  0.90931632395E+02 0.  0.
    9000005    2    3    3    0    0  0.28838874532E+02 -0.32419316998E+02  0.34504467125E+03  0.34812229326E+03  0.15830764741E+02 0.  0.
         22    1    3    3    0    0 -0.28838874532E+02  0.32419316998E+02  0.22797711796E+03  0.23206951353E+03  0.00000000000E+00 0.  1.
         22    1    4    4    0    0  0.11130184457E+01 -0.99397108916E+01  0.56522532764E+02  0.57400639132E+02  0.00000000000E+00 0. -1.
         22    1    4    4    0    0  0.27725856086E+02 -0.22479606107E+02  0.28852213848E+03  0.29072165413E+03  0.00000000000E+00 0. -1.
<mgrwt>
<rscale>  0 0.90931632E+02</rscale>
<asrwt>0</asrwt>
<pdfrwt beam="2">  1        1 0.55153962E-03 0.90931632E+02</pdfrwt>
<pdfrwt beam="1">  1       -1 0.88708770E-01 0.90931632E+02</pdfrwt>
<totfact> 0.43124619E+04</totfact>
</mgrwt>
</event>
<event>
 7    1  0.2787125E-009  0.9298635E+02  0.7818608E-02  0.1295777E+00
          1   -1    0    0  501    0  0.00000000000E+00  0.00000000000E+00  0.38570509005E+03  0.38570509008E+03  0.50400000000E-02 0. -1.
         -1   -1    0    0    0  501 -0.00000000000E+00 -0.00000000000E+00 -0.56043198252E+01  0.56043220915E+01  0.50400000000E-02 0.  1.
         23    2    1    2    0    0  0.00000000000E+00  0.00000000000E+00  0.38010077023E+03  0.39130941218E+03  0.92986345938E+02 0.  0.
    9000005    2    3    3    0    0  0.81623972977E+01  0.43459636733E+02  0.23886410506E+03  0.24331224889E+03  0.13763176131E+02 0.  0.
         22    1    3    3    0    0 -0.81623972977E+01 -0.43459636733E+02  0.14123666516E+03  0.14799716329E+03  0.00000000000E+00 0.  1.
         22    1    4    4    0    0 -0.22299617506E+01  0.90898162516E+00  0.92941702658E+01  0.96010717075E+01  0.00000000000E+00 0. -1.
         22    1    4    4    0    0  0.10392359048E+02  0.42550655107E+02  0.22956993480E+03  0.23371117718E+03  0.00000000000E+00 0. -1.
<mgrwt>
<rscale>  0 0.92986346E+02</rscale>
<asrwt>0</asrwt>
<pdfrwt beam="1">  1        1 0.59339250E-01 0.92986346E+02</pdfrwt>
<pdfrwt beam="2">  1       -1 0.86220315E-03 0.92986346E+02</pdfrwt>
<totfact> 0.12724794E+05</totfact>
</mgrwt>
</event>
<event>
 7    1  0.2787125E-009  0.9610968E+02  0.7818608E-02  0.1288696E+00
          1   -1    0    0  501    0  0.00000000000E+00  0.00000000000E+00  0.21909315799E+04  0.21909315799E+04  0.50400000000E-02 0. -1.
         -1   -1    0    0    0  501 -0.00000000000E+00 -0.00000000000E+00 -0.10540057033E+01  0.10540177532E+01  0.50400000000E-02 0.  1.
         23    2    1    2    0    0  0.55511151231E-16  0.35527136788E-14  0.21898775742E+04  0.21919855977E+04  0.96109678882E+02 0.  0.
    9000005    2    3    3    0    0  0.35083850510E+00  0.15237111025E+02  0.21330997648E+04  0.21331977393E+04  0.13627036250E+02 0.  0.
         22    1    3    3    0    0 -0.35083850510E+00 -0.15237111025E+02  0.56777809470E+02  0.58787858340E+02  0.00000000000E+00 0.  1.
         22    1    4    4    0    0 -0.39930206995E+01  0.96923866884E+01  0.17617074087E+04  0.17617385960E+04  0.00000000000E+00 0.  1.
         22    1    4    4    0    0  0.43438592047E+01  0.55447243363E+01  0.37139235602E+03  0.37145914337E+03  0.00000000000E+00 0.  1.
<mgrwt>
<rscale>  0 0.96109679E+02</rscale>
<asrwt>0</asrwt>
<pdfrwt beam="1">  1        1 0.33706642E+00 0.96109679E+02</pdfrwt>
<pdfrwt beam="2">  1       -1 0.16215564E-03 0.96109679E+02</pdfrwt>
<totfact> 0.59614263E+04</totfact>
</mgrwt>
</event>
<event>
 7    1  0.2787125E-009  0.9090874E+02  0.7818608E-02  0.1300666E+00
          1   -1    0    0  501    0  0.00000000000E+00  0.00000000000E+00  0.26132876355E+02  0.26132876841E+02  0.50400000000E-02 0. -1.
         -1   -1    0    0    0  501 -0.00000000000E+00 -0.00000000000E+00 -0.79061324471E+02  0.79061324631E+02  0.50400000000E-02 0.  1.
         23    2    1    2    0    0 -0.35527136788E-14  0.35527136788E-14 -0.52928448116E+02  0.10519420147E+03  0.90908742173E+02 0.  0.
    9000005    2    3    3    0    0 -0.26302787195E+02  0.29610363921E+02 -0.29949985652E+01  0.41460696549E+02  0.11891554825E+02 0.  0.
         22    1    3    3    0    0  0.26302787195E+02 -0.29610363921E+02 -0.49933449551E+02  0.63733504923E+02  0.00000000000E+00 0.  1.
         22    1    4    4    0    0 -0.14360324228E+02  0.22021440778E+02 -0.60679409679E+01  0.26981154043E+02  0.00000000000E+00 0. -1.
         22    1    4    4    0    0 -0.11942462967E+02  0.75889231432E+01  0.30729424027E+01  0.14479542506E+02  0.00000000000E+00 0. -1.
<mgrwt>
<rscale>  0 0.90908742E+02</rscale>
<asrwt>0</asrwt>
<pdfrwt beam="1">  1        1 0.40204426E-02 0.90908742E+02</pdfrwt>
<pdfrwt beam="2">  1       -1 0.12163281E-01 0.90908742E+02</pdfrwt>
<totfact> 0.85460964E+04</totfact>
</mgrwt>
</event>
<event>
 7    1  0.2787125E-009  0.9188765E+02  0.7818608E-02  0.1298344E+00
          1   -1    0    0  501    0  0.00000000000E+00  0.00000000000E+00  0.48223201487E+01  0.48223227824E+01  0.50400000000E-02 0. -1.
         -1   -1    0    0    0  501 -0.00000000000E+00 -0.00000000000E+00 -0.43772177183E+03  0.43772177186E+03  0.50400000000E-02 0.  1.
         23    2    1    2    0    0  0.00000000000E+00  0.00000000000E+00 -0.43289945168E+03  0.44254409464E+03  0.91887651161E+02 0.  0.
    9000005    2    3    3    0    0  0.35223452321E+02 -0.28218881844E+02 -0.19293275507E+03  0.19836995111E+03  0.95180165589E+01 0.  0.
         22    1    3    3    0    0 -0.35223452321E+02  0.28218881844E+02 -0.23996669661E+03  0.24417414353E+03  0.00000000000E+00 0.  1.
         22    1    4    4    0    0  0.15908587628E+02 -0.12476297871E+02 -0.10718746231E+03  0.10907746442E+03  0.00000000000E+00 0. -1.
         22    1    4    4    0    0  0.19314864693E+02 -0.15742583972E+02 -0.85745292765E+02  0.89292486692E+02  0.00000000000E+00 0. -1.
<mgrwt>
<rscale>  0 0.91887651E+02</rscale>
<asrwt>0</asrwt>
<pdfrwt beam="1">  1        1 0.74189596E-03 0.91887651E+02</pdfrwt>
<pdfrwt beam="2">  1       -1 0.67341780E-01 0.91887651E+02</pdfrwt>
<totfact> 0.49798618E+04</totfact>
</mgrwt>
</event>
<event>
 7    1  0.2787125E-009  0.9301785E+02  0.7818608E-02  0.1295704E+00
         -1   -1    0    0    0  501 -0.00000000000E+00  0.00000000000E+00  0.12451024772E+02  0.12451025792E+02  0.50400000000E-02 0.  1.
          1   -1    0    0  501    0  0.00000000000E+00 -0.00000000000E+00 -0.17372706526E+03  0.17372706533E+03  0.50400000000E-02 0. -1.
         23    2    1    2    0    0 -0.17763568394E-14  0.00000000000E+00 -0.16127604048E+03  0.18617809112E+03  0.93017849787E+02 0.  0.
    9000005    2    3    3    0    0  0.13956630591E+02  0.20486155741E+02 -0.15904494210E+03  0.16128938054E+03  0.10222551103E+02 0.  0.
         22    1    3    3    0    0 -0.13956630591E+02 -0.20486155741E+02 -0.22310983808E+01  0.24888710583E+02  0.00000000000E+00 0.  1.
         22    1    4    4    0    0  0.83608694570E+00  0.97571601941E+01 -0.64047384440E+02  0.64791733038E+02  0.00000000000E+00 0.  1.
         22    1    4    4    0    0  0.13120543646E+02  0.10728995547E+02 -0.94997557663E+02  0.96497647500E+02  0.00000000000E+00 0.  1.
<mgrwt>
<rscale>  0 0.93017850E+02</rscale>
<asrwt>0</asrwt>
<pdfrwt beam="2">  1        1 0.26727239E-01 0.93017850E+02</pdfrwt>
<pdfrwt beam="1">  1       -1 0.19155425E-02 0.93017850E+02</pdfrwt>
<totfact> 0.10920327E+05</totfact>
</mgrwt>
</event>
<event>
 7    1  0.2787125E-009  0.9083561E+02  0.7818608E-02  0.1300841E+00
         -1   -1    0    0    0  501 -0.00000000000E+00  0.00000000000E+00  0.19025178569E+03  0.19025178575E+03  0.50400000000E-02 0.  1.
          1   -1    0    0  501    0  0.00000000000E+00 -0.00000000000E+00 -0.10842351241E+02  0.10842352412E+02  0.50400000000E-02 0. -1.
         23    2    1    2    0    0  0.00000000000E+00  0.00000000000E+00  0.17940943445E+03  0.20109413817E+03  0.90835605553E+02 0.  0.
    9000005    2    3    3    0    0  0.40650554354E+02  0.61275757530E+01  0.12981797702E+03  0.13667886511E+03  0.11763938738E+02 0.  0.
         22    1    3    3    0    0 -0.40650554354E+02 -0.61275757530E+01  0.49591457422E+02  0.64415273058E+02  0.00000000000E+00 0.  1.
         22    1    4    4    0    0  0.14618760086E+02  0.73668173530E+01  0.42075598639E+02  0.45147914073E+02  0.00000000000E+00 0. -1.
         22    1    4    4    0    0  0.26031794268E+02 -0.12392415999E+01  0.87742378385E+02  0.91530951034E+02  0.00000000000E+00 0. -1.
<mgrwt>
<rscale>  0 0.90835606E+02</rscale>
<asrwt>0</asrwt>
<pdfrwt beam="2">  1        1 0.16680541E-02 0.90835606E+02</pdfrwt>
<pdfrwt beam="1">  1       -1 0.29269506E-01 0.90835606E+02</pdfrwt>
<totfact> 0.71096732E+04</totfact>
</mgrwt>
</event>
<event>
 7    1  0.2787125E-009  0.9390991E+02  0.7818608E-02  0.1293650E+00
         -1   -1    0    0    0  501 -0.00000000000E+00  0.00000000000E+00  0.54556896669E+02  0.54556896902E+02  0.50400000000E-02 0.  1.
          1   -1    0    0  501    0  0.00000000000E+00 -0.00000000000E+00 -0.40412266541E+02  0.40412266856E+02  0.50400000000E-02 0. -1.
         23    2    1    2    0    0  0.00000000000E+00  0.17763568394E-14  0.14144630128E+02  0.94969163757E+02  0.93909911635E+02 0.  0.
    9000005    2    3    3    0    0 -0.21879956454E+02  0.11263646418E+02 -0.32608857255E+02  0.42134603028E+02  0.10314309273E+02 0.  0.
         22    1    3    3    0    0  0.21879956454E+02 -0.11263646418E+02  0.46753487382E+02  0.52834560730E+02  0.00000000000E+00 0.  1.
         22    1    4    4    0    0 -0.82972267913E+01  0.89482779627E+01 -0.20157001763E+02  0.23563114629E+02  0.00000000000E+00 0. -1.
         22    1    4    4    0    0 -0.13582729663E+02  0.23153684556E+01 -0.12451855491E+02  0.18571488399E+02  0.00000000000E+00 0. -1.
<mgrwt>
<rscale>  0 0.93909912E+02</rscale>
<asrwt>0</asrwt>
<pdfrwt beam="2">  1        1 0.62172718E-02 0.93909912E+02</pdfrwt>
<pdfrwt beam="1">  1       -1 0.83933687E-02 0.93909912E+02</pdfrwt>
<totfact> 0.83516117E+04</totfact>
</mgrwt>
</event>
<event>
 7    1  0.2787125E-009  0.8938219E+02  0.7818608E-02  0.1304355E+00
         -1   -1    0    0    0  501 -0.00000000000E+00  0.00000000000E+00  0.20886418584E+02  0.20886419192E+02  0.50400000000E-02 0.  1.
          1   -1    0    0  501    0  0.00000000000E+00 -0.00000000000E+00 -0.95626443799E+02  0.95626443932E+02  0.50400000000E-02 0. -1.
         23    2    1    2    0    0  0.88817841970E-15  0.00000000000E+00 -0.74740025215E+02  0.11651286312E+03  0.89382190083E+02 0.  0.
    9000005    2    3    3    0    0 -0.68385196941E+01 -0.23865581721E+02  0.10656369575E+02  0.27581003896E+02  0.55517763730E+01 0.  0.
         22    1    3    3    0    0  0.68385196941E+01  0.23865581721E+02 -0.85396394790E+02  0.88931859228E+02  0.00000000000E+00 0. -1.
         22    1    4    4    0    0  0.22771062372E+00 -0.73481123414E+01  0.43422350752E+01  0.85382441145E+01  0.00000000000E+00 0. -1.
         22    1    4    4    0    0 -0.70662303178E+01 -0.16517469379E+02  0.63141344999E+01  0.19042759781E+02  0.00000000000E+00 0. -1.
<mgrwt>
<rscale>  0 0.89382190E+02</rscale>
<asrwt>0</asrwt>
<pdfrwt beam="2">  1        1 0.14711760E-01 0.89382190E+02</pdfrwt>
<pdfrwt beam="1">  1       -1 0.32132953E-02 0.89382190E+02</pdfrwt>
<totfact> 0.10945128E+05</totfact>
</mgrwt>
</event>
<event>
 7    1  0.2787125E-009  0.8765877E+02  0.7818608E-02  0.1308622E+00
          1   -1    0    0  501    0  0.00000000000E+00  0.00000000000E+00  0.35783007603E+01  0.35783043097E+01  0.50400000000E-02 0. -1.
         -1   -1    0    0    0  501 -0.00000000000E+00 -0.00000000000E+00 -0.53685085748E+03  0.53685085751E+03  0.50400000000E-02 0.  1.
         23    2    1    2    0    0  0.35527136788E-14  0.00000000000E+00 -0.53327255672E+03  0.54042916182E+03  0.87658765608E+02 0.  0.
    9000005    2    3    3    0    0 -0.20997501030E+02 -0.17757806394E+02 -0.47688145266E+03  0.47769008823E+03  0.39579996967E+01 0.  0.
         22    1    3    3    0    0  0.20997501030E+02  0.17757806394E+02 -0.56391104060E+02  0.62739073586E+02  0.00000000000E+00 0. -1.
         22    1    4    4    0    0 -0.15602605353E+02 -0.14291450980E+02 -0.38898609795E+03  0.38956112648E+03  0.00000000000E+00 0. -1.
         22    1    4    4    0    0 -0.53948956767E+01 -0.34663554139E+01 -0.87895354713E+02  0.88128961751E+02  0.00000000000E+00 0. -1.
<mgrwt>
<rscale>  0 0.87658766E+02</rscale>
<asrwt>0</asrwt>
<pdfrwt beam="1">  1        1 0.55050851E-03 0.87658766E+02</pdfrwt>
<pdfrwt beam="2">  1       -1 0.82592376E-01 0.87658766E+02</pdfrwt>
<totfact> 0.49837771E+04</totfact>
</mgrwt>
</event>
<event>
 7    1  0.2787125E-009  0.9367306E+02  0.7818608E-02  0.1294193E+00
         -1   -1    0    0    0  501 -0.00000000000E+00  0.00000000000E+00  0.21485378152E+03  0.21485378158E+03  0.50400000000E-02 0.  1.
          1   -1    0    0  501    0  0.00000000000E+00 -0.00000000000E+00 -0.10210016051E+02  0.10210017295E+02  0.50400000000E-02 0. -1.
         23    2    1    2    0    0  0.00000000000E+00  0.17763568394E-14  0.20464376547E+03  0.22506379887E+03  0.93673063461E+02 0.  0.
    9000005    2    3    3    0    0 -0.38070015862E+02  0.13674282722E+02  0.15537304124E+03  0.16131494491E+03  0.15665803245E+02 0.  0.
         22    1    3    3    0    0  0.38070015862E+02 -0.13674282722E+02  0.49270724225E+02  0.63748853961E+02  0.00000000000E+00 0. -1.
         22    1    4    4    0    0 -0.81194372142E+01  0.24368697075E+01  0.62823377366E+02  0.63392746733E+02  0.00000000000E+00 0.  1.
         22    1    4    4    0    0 -0.29950578647E+02  0.11237413014E+02  0.92549663875E+02  0.97922198178E+02  0.00000000000E+00 0.  1.
<mgrwt>
<rscale>  0 0.93673063E+02</rscale>
<asrwt>0</asrwt>
<pdfrwt beam="2">  1        1 0.15707716E-02 0.93673063E+02</pdfrwt>
<pdfrwt beam="1">  1       -1 0.33054431E-01 0.93673063E+02</pdfrwt>
<totfact> 0.63349025E+04</totfact>
</mgrwt>
</event>
<event>
 7    1  0.2787125E-009  0.8985780E+02  0.7818608E-02  0.1303196E+00
         -1   -1    0    0    0  501 -0.00000000000E+00  0.00000000000E+00  0.26042700446E+02  0.26042700934E+02  0.50400000000E-02 0.  1.
          1   -1    0    0  501    0  0.00000000000E+00 -0.00000000000E+00 -0.77511401577E+02  0.77511401741E+02  0.50400000000E-02 0. -1.
         23    2    1    2    0    0  0.00000000000E+00  0.00000000000E+00 -0.51468701131E+02  0.10355410267E+03  0.89857804250E+02 0.  0.
    9000005    2    3    3    0    0  0.95564109421E+01 -0.17661897893E+02 -0.71456793916E+02  0.75220527531E+02  0.12197816937E+02 0.  0.
         22    1    3    3    0    0 -0.95564109421E+01  0.17661897893E+02  0.19988092784E+02  0.28333575144E+02  0.00000000000E+00 0.  1.
         22    1    4    4    0    0  0.34647902038E+01 -0.16064345004E+02 -0.59224941095E+02  0.61462684608E+02  0.00000000000E+00 0. -1.
         22    1    4    4    0    0  0.60916207383E+01 -0.15975528892E+01 -0.12231852820E+02  0.13757842922E+02  0.00000000000E+00 0. -1.
<mgrwt>
<rscale>  0 0.89857804E+02</rscale>
<asrwt>0</asrwt>
<pdfrwt beam="2">  1        1 0.11924831E-01 0.89857804E+02</pdfrwt>
<pdfrwt beam="1">  1       -1 0.40065694E-02 0.89857804E+02</pdfrwt>
<totfact> 0.10433228E+05</totfact>
</mgrwt>
</event>
<event>
 6    1  0.3119214E-009  0.1654677E+03  0.7818608E-02  0.1182658E+00
         -1   -1    0    0    0  501 -0.00000000000E+00  0.00000000000E+00  0.50595582156E+02  0.50595582407E+02  0.50400000000E-02 0.  1.
          1   -1    0    0  501    0  0.00000000000E+00 -0.00000000000E+00 -0.13528631803E+03  0.13528631813E+03  0.50400000000E-02 0. -1.
    9000005    2    1    2    0    0  0.61418088046E+02  0.36397253331E+02 -0.88075959047E+02  0.11440881941E+03  0.15331725520E+02 0.  0.
         22    1    1    2    0    0 -0.61418088046E+02 -0.36397253331E+02  0.33852231720E+01  0.71473081123E+02  0.00000000000E+00 0.  1.
         22    1    3    3    0    0  0.19458192617E+02  0.19533027723E+02 -0.37804200833E+02  0.46790148884E+02  0.00000000000E+00 0. -1.
         22    1    3    3    0    0  0.41959895429E+02  0.16864225608E+02 -0.50271758215E+02  0.67618670526E+02  0.00000000000E+00 0. -1.
<mgrwt>
<rscale>  0 0.16546770E+03</rscale>
<asrwt>0</asrwt>
<pdfrwt beam="2">  1        1 0.20813280E-01 0.16546770E+03</pdfrwt>
<pdfrwt beam="1">  1       -1 0.77839358E-02 0.16546770E+03</pdfrwt>
<totfact> 0.20571756E+04</totfact>
</mgrwt>
</event>
<event>
 7    1  0.2787125E-009  0.9082832E+02  0.7818608E-02  0.1300858E+00
         -1   -1    0    0    0  501 -0.00000000000E+00  0.00000000000E+00  0.11864271671E+02  0.11864272742E+02  0.50400000000E-02 0.  1.
          1   -1    0    0  501    0  0.00000000000E+00 -0.00000000000E+00 -0.17383668002E+03  0.17383668009E+03  0.50400000000E-02 0. -1.
         23    2    1    2    0    0 -0.17763568394E-14  0.00000000000E+00 -0.16197240835E+03  0.18570095284E+03  0.90828315066E+02 0.  0.
    9000005    2    3    3    0    0  0.11994539077E+02 -0.33164975251E+02 -0.13922017403E+03  0.14373133623E+03  0.57145085890E+01 0.  0.
         22    1    3    3    0    0 -0.11994539077E+02  0.33164975251E+02 -0.22752234323E+02  0.41969616603E+02  0.00000000000E+00 0.  1.
         22    1    4    4    0    0  0.12104790780E+02 -0.27390793633E+02 -0.11574667373E+03  0.11955782707E+03  0.00000000000E+00 0.  1.
         22    1    4    4    0    0 -0.11025170300E+00 -0.57741816182E+01 -0.23473500298E+02  0.24173509158E+02  0.00000000000E+00 0.  1.
<mgrwt>
<rscale>  0 0.90828315E+02</rscale>
<asrwt>0</asrwt>
<pdfrwt beam="2">  1        1 0.26744103E-01 0.90828315E+02</pdfrwt>
<pdfrwt beam="1">  1       -1 0.18252728E-02 0.90828315E+02</pdfrwt>
<totfact> 0.11645253E+05</totfact>
</mgrwt>
</event>
<event>
 7    1  0.2787125E-009  0.9097617E+02  0.7818608E-02  0.1300505E+00
         -1   -1    0    0    0  501 -0.00000000000E+00  0.00000000000E+00  0.78039484594E+02  0.78039484757E+02  0.50400000000E-02 0.  1.
          1   -1    0    0  501    0  0.00000000000E+00 -0.00000000000E+00 -0.26514343791E+02  0.26514344270E+02  0.50400000000E-02 0. -1.
         23    2    1    2    0    0  0.17763568394E-14  0.00000000000E+00  0.51525140803E+02  0.10455382903E+03  0.90976167370E+02 0.  0.
    9000005    2    3    3    0    0  0.11388431952E+02 -0.34077881745E+02  0.56948937996E+02  0.68216300457E+02  0.10921707863E+02 0.  0.
         22    1    3    3    0    0 -0.11388431952E+02  0.34077881745E+02 -0.54237971925E+01  0.36337528570E+02  0.00000000000E+00 0. -1.
         22    1    4    4    0    0  0.90425515692E+01 -0.18808361984E+02  0.23861826848E+02  0.31700299682E+02  0.00000000000E+00 0. -1.
         22    1    4    4    0    0  0.23458803830E+01 -0.15269519761E+02  0.33087111148E+02  0.36516000775E+02  0.00000000000E+00 0. -1.
<mgrwt>
<rscale>  0 0.90976167E+02</rscale>
<asrwt>0</asrwt>
<pdfrwt beam="2">  1        1 0.40791299E-02 0.90976167E+02</pdfrwt>
<pdfrwt beam="1">  1       -1 0.12006074E-01 0.90976167E+02</pdfrwt>
<totfact> 0.85485589E+04</totfact>
</mgrwt>
</event>
<event>
 7    1  0.2787125E-009  0.9171481E+02  0.7818608E-02  0.1298751E+00
          1   -1    0    0  501    0  0.00000000000E+00  0.00000000000E+00  0.19893582700E+03  0.19893582707E+03  0.50400000000E-02 0. -1.
         -1   -1    0    0    0  501 -0.00000000000E+00 -0.00000000000E+00 -0.10570752437E+02  0.10570753639E+02  0.50400000000E-02 0.  1.
         23    2    1    2    0    0  0.88817841970E-15  0.00000000000E+00  0.18836507456E+03  0.20950658070E+03  0.91714808198E+02 0.  0.
    9000005    2    3    3    0    0  0.72852689416E+01 -0.35677226670E+02  0.34988017220E+02  0.51866289643E+02  0.11832624640E+02 0.  0.
         22    1    3    3    0    0 -0.72852689416E+01  0.35677226670E+02  0.15337705734E+03  0.15764029106E+03  0.00000000000E+00 0. -1.
         22    1    4    4    0    0 -0.59947393720E+00 -0.24694944810E+02  0.21139954953E+02  0.32513033749E+02  0.00000000000E+00 0. -1.
         22    1    4    4    0    0  0.78847428788E+01 -0.10982281860E+02  0.13848062267E+02  0.19353255894E+02  0.00000000000E+00 0. -1.
<mgrwt>
<rscale>  0 0.91714808E+02</rscale>
<asrwt>0</asrwt>
<pdfrwt beam="1">  1        1 0.30605509E-01 0.91714808E+02</pdfrwt>
<pdfrwt beam="2">  1       -1 0.16262699E-02 0.91714808E+02</pdfrwt>
<totfact> 0.11642985E+05</totfact>
</mgrwt>
</event>
<event>
 7    1  0.2787125E-009  0.1134596E+03  0.7818608E-02  0.1254294E+00
         -1   -1    0    0    0  501 -0.00000000000E+00  0.00000000000E+00  0.46744981464E+02  0.46744981735E+02  0.50400000000E-02 0.  1.
          1   -1    0    0  501    0  0.00000000000E+00 -0.00000000000E+00 -0.68847436991E+02  0.68847437175E+02  0.50400000000E-02 0. -1.
         23    2    1    2    0    0  0.00000000000E+00  0.35527136788E-14 -0.22102455527E+02  0.11559241891E+03  0.11345963498E+03 0.  0.
    9000005    2    3    3    0    0 -0.51189209394E+02 -0.22610976086E+02 -0.20132118918E+02  0.59597118891E+02  0.38630260128E+01 0.  0.
         22    1    3    3    0    0  0.51189209394E+02  0.22610976086E+02 -0.19703366086E+01  0.55995300020E+02  0.00000000000E+00 0.  1.
         22    1    4    4    0    0 -0.46998097147E+01 -0.20145650275E+01 -0.69176067494E+00  0.51599628328E+01  0.00000000000E+00 0.  1.
         22    1    4    4    0    0 -0.46489399679E+02 -0.20596411058E+02 -0.19440358243E+02  0.54437156058E+02  0.00000000000E+00 0.  1.
<mgrwt>
<rscale>  0 0.11345963E+03</rscale>
<asrwt>0</asrwt>
<pdfrwt beam="2">  1        1 0.10591913E-01 0.11345963E+03</pdfrwt>
<pdfrwt beam="1">  1       -1 0.71915356E-02 0.11345963E+03</pdfrwt>
<totfact> 0.53280921E+04</totfact>
</mgrwt>
</event>
<event>
 7    1  0.2787125E-009  0.9056563E+02  0.7818608E-02  0.1301488E+00
          1   -1    0    0  501    0  0.00000000000E+00  0.00000000000E+00  0.11112684651E+02  0.11112685794E+02  0.50400000000E-02 0. -1.
         -1   -1    0    0    0  501 -0.00000000000E+00 -0.00000000000E+00 -0.18452184453E+03  0.18452184460E+03  0.50400000000E-02 0.  1.
         23    2    1    2    0    0  0.00000000000E+00  0.00000000000E+00 -0.17340915988E+03  0.19563453039E+03  0.90565626768E+02 0.  0.
    9000005    2    3    3    0    0  0.40368761546E+02 -0.13991940059E+02 -0.11697317678E+03  0.12485012898E+03  0.89117520257E+01 0.  0.
         22    1    3    3    0    0 -0.40368761546E+02  0.13991940059E+02 -0.56435983094E+02  0.70784401411E+02  0.00000000000E+00 0.  1.
         22    1    4    4    0    0  0.10745098223E+02 -0.10108139374E+01 -0.21679294956E+02  0.24217157357E+02  0.00000000000E+00 0. -1.
         22    1    4    4    0    0  0.29623663322E+02 -0.12981126121E+02 -0.95293881828E+02  0.10063297162E+03  0.00000000000E+00 0. -1.
<mgrwt>
<rscale>  0 0.90565627E+02</rscale>
<asrwt>0</asrwt>
<pdfrwt beam="1">  1        1 0.17096440E-02 0.90565627E+02</pdfrwt>
<pdfrwt beam="2">  1       -1 0.28387974E-01 0.90565627E+02</pdfrwt>
<totfact> 0.72249350E+04</totfact>
</mgrwt>
</event>
<event>
 7    1  0.2787125E-009  0.1077757E+03  0.7818608E-02  0.1264745E+00
          1   -1    0    0  501    0  0.00000000000E+00  0.00000000000E+00  0.11548998145E+03  0.11548998156E+03  0.50400000000E-02 0.  1.
         -1   -1    0    0    0  501 -0.00000000000E+00 -0.00000000000E+00 -0.25144161659E+02  0.25144162165E+02  0.50400000000E-02 0. -1.
         23    2    1    2    0    0  0.00000000000E+00  0.00000000000E+00  0.90345819791E+02  0.14063414372E+03  0.10777567085E+03 0.  0.
    9000005    2    3    3    0    0  0.74994336838E+01  0.47218130126E+02  0.14009821481E+02  0.50562072825E+02  0.86287190384E+01 0.  0.
         22    1    3    3    0    0 -0.74994336838E+01 -0.47218130126E+02  0.76335998309E+02  0.90072070899E+02  0.00000000000E+00 0.  1.
         22    1    4    4    0    0  0.69304388268E+01  0.23175173200E+02  0.40241304498E+01  0.24521689604E+02  0.00000000000E+00 0.  1.
         22    1    4    4    0    0  0.56899485695E+00  0.24042956927E+02  0.99856910314E+01  0.26040383221E+02  0.00000000000E+00 0.  1.
<mgrwt>
<rscale>  0 0.10777567E+03</rscale>
<asrwt>0</asrwt>
<pdfrwt beam="1">  1        1 0.17767689E-01 0.10777567E+03</pdfrwt>
<pdfrwt beam="2">  1       -1 0.38683326E-02 0.10777567E+03</pdfrwt>
<totfact> 0.67621291E+04</totfact>
</mgrwt>
</event>
<event>
 7    1  0.2787125E-009  0.9445841E+02  0.7818608E-02  0.1292401E+00
          1   -1    0    0  501    0  0.00000000000E+00  0.00000000000E+00  0.51671400933E+03  0.51671400935E+03  0.50400000000E-02 0. -1.
         -1   -1    0    0    0  501 -0.00000000000E+00 -0.00000000000E+00 -0.43168885698E+01  0.43168915119E+01  0.50400000000E-02 0.  1.
         23    2    1    2    0    0  0.00000000000E+00  0.00000000000E+00  0.51239712076E+03  0.52103090087E+03  0.94458405102E+02 0.  0.
    9000005    2    3    3    0    0 -0.10707701270E+02  0.42875277147E+02  0.33237044181E+03  0.33565951852E+03  0.15628740555E+02 0.  0.
         22    1    3    3    0    0  0.10707701270E+02 -0.42875277147E+02  0.18002667895E+03  0.18537138234E+03  0.00000000000E+00 0.  1.
         22    1    4    4    0    0 -0.37009674695E+01  0.37688978461E+02  0.28342371254E+03  0.28594257655E+03  0.00000000000E+00 0. -1.
         22    1    4    4    0    0 -0.70067338008E+01  0.51862986859E+01  0.48946729269E+02  0.49716941969E+02  0.00000000000E+00 0. -1.
<mgrwt>
<rscale>  0 0.94458405E+02</rscale>
<asrwt>0</asrwt>
<pdfrwt beam="1">  1        1 0.79494470E-01 0.94458405E+02</pdfrwt>
<pdfrwt beam="2">  1       -1 0.66413687E-03 0.94458405E+02</pdfrwt>
<totfact> 0.12726191E+05</totfact>
</mgrwt>
</event>
<event>
 7    1  0.2787125E-009  0.9144768E+02  0.7818608E-02  0.1299383E+00
         -1   -1    0    0    0  501 -0.00000000000E+00  0.00000000000E+00  0.92753760375E+01  0.92753774068E+01  0.50400000000E-02 0.  1.
          1   -1    0    0  501    0  0.00000000000E+00 -0.00000000000E+00 -0.22539994032E+03  0.22539994038E+03  0.50400000000E-02 0. -1.
         23    2    1    2    0    0  0.00000000000E+00  0.00000000000E+00 -0.21612456428E+03  0.23467531778E+03  0.91447676244E+02 0.  0.
    9000005    2    3    3    0    0 -0.84300990051E+01  0.28218517963E+02 -0.19779036525E+03  0.19998390415E+03  0.22764032424E+01 0.  0.
         22    1    3    3    0    0  0.84300990051E+01 -0.28218517963E+02 -0.18334199038E+02  0.34691413629E+02  0.00000000000E+00 0. -1.
         22    1    4    4    0    0 -0.13485449929E+01  0.24719307791E+01 -0.16806657615E+02  0.17040914164E+02  0.00000000000E+00 0.  1.
         22    1    4    4    0    0 -0.70815540122E+01  0.25746587184E+02 -0.18098370763E+03  0.18294298999E+03  0.00000000000E+00 0.  1.
<mgrwt>
<rscale>  0 0.91447676E+02</rscale>
<asrwt>0</asrwt>
<pdfrwt beam="2">  1        1 0.34676910E-01 0.91447676E+02</pdfrwt>
<pdfrwt beam="1">  1       -1 0.14269812E-02 0.91447676E+02</pdfrwt>
<totfact> 0.12023663E+05</totfact>
</mgrwt>
</event>
<event>
 7    1  0.2787125E-009  0.9649313E+02  0.7818608E-02  0.1287848E+00
         -1   -1    0    0    0  501 -0.00000000000E+00  0.00000000000E+00  0.92817818368E+03  0.92817818370E+03  0.50400000000E-02 0.  1.
          1   -1    0    0  501    0  0.00000000000E+00 -0.00000000000E+00 -0.25078467189E+01  0.25078517833E+01  0.50400000000E-02 0. -1.
         23    2    1    2    0    0  0.00000000000E+00  0.35527136788E-14  0.92567033696E+03  0.93068603548E+03  0.96493128782E+02 0.  0.
    9000005    2    3    3    0    0 -0.30837130186E+02 -0.20853249457E+02  0.75443669409E+03  0.75545262809E+03  0.12172152579E+02 0.  0.
         22    1    3    3    0    0  0.30837130186E+02  0.20853249457E+02  0.17123364288E+03  0.17523340738E+03  0.00000000000E+00 0. -1.
         22    1    4    4    0    0 -0.88968314577E+00 -0.43818556269E+01  0.13469796454E+03  0.13477215531E+03  0.00000000000E+00 0. -1.
         22    1    4    4    0    0 -0.29947447040E+02 -0.16471393831E+02  0.61973872955E+03  0.62068047279E+03  0.00000000000E+00 0. -1.
<mgrwt>
<rscale>  0 0.96493129E+02</rscale>
<asrwt>0</asrwt>
<pdfrwt beam="2">  1        1 0.38582291E-03 0.96493129E+02</pdfrwt>
<pdfrwt beam="1">  1       -1 0.14279666E+00 0.96493129E+02</pdfrwt>
<totfact> 0.24089692E+04</totfact>
</mgrwt>
</event>
<event>
 7    1  0.2787125E-009  0.8948774E+02  0.7818608E-02  0.1304097E+00
         -1   -1    0    0    0  501 -0.00000000000E+00  0.00000000000E+00  0.24398916001E+02  0.24398916522E+02  0.50400000000E-02 0.  1.
          1   -1    0    0  501    0  0.00000000000E+00 -0.00000000000E+00 -0.82053390748E+02  0.82053390903E+02  0.50400000000E-02 0. -1.
         23    2    1    2    0    0  0.35527136788E-14  0.00000000000E+00 -0.57654474746E+02  0.10645230742E+03  0.89487738254E+02 0.  0.
    9000005    2    3    3    0    0 -0.24003923074E+02 -0.17908939832E+02  0.78911092459E+01  0.34388849072E+02  0.14946734978E+02 0.  0.
         22    1    3    3    0    0  0.24003923074E+02  0.17908939832E+02 -0.65545583992E+02  0.72063458353E+02  0.00000000000E+00 0. -1.
         22    1    4    4    0    0 -0.98289690237E+00 -0.63193843697E+01 -0.21222555908E+01  0.67382990380E+01  0.00000000000E+00 0. -1.
         22    1    4    4    0    0 -0.23021026172E+02 -0.11589555463E+02  0.10013364837E+02  0.27650550034E+02  0.00000000000E+00 0. -1.
<mgrwt>
<rscale>  0 0.89487738E+02</rscale>
<asrwt>0</asrwt>
<pdfrwt beam="2">  1        1 0.12623599E-01 0.89487738E+02</pdfrwt>
<pdfrwt beam="1">  1       -1 0.37536795E-02 0.89487738E+02</pdfrwt>
<totfact> 0.10646024E+05</totfact>
</mgrwt>
</event>
<event>
 7    1  0.2787125E-009  0.9805441E+02  0.7818608E-02  0.1284441E+00
          1   -1    0    0  501    0  0.00000000000E+00  0.00000000000E+00  0.12441575363E+03  0.12441575373E+03  0.50400000000E-02 0. -1.
         -1   -1    0    0    0  501 -0.00000000000E+00 -0.00000000000E+00 -0.19319633083E+02  0.19319633741E+02  0.50400000000E-02 0.  1.
         23    2    1    2    0    0  0.00000000000E+00  0.00000000000E+00  0.10509612055E+03  0.14373538747E+03  0.98054408662E+02 0.  0.
    9000005    2    3    3    0    0 -0.27445657659E+02  0.36923477311E+02  0.76606196457E+02  0.89621774807E+02  0.68517065731E+01 0.  0.
         22    1    3    3    0    0  0.27445657659E+02 -0.36923477311E+02  0.28489924091E+02  0.54113612666E+02  0.00000000000E+00 0.  1.
         22    1    4    4    0    0 -0.25430582508E+02  0.30201832407E+02  0.65826166267E+02  0.76759034471E+02  0.00000000000E+00 0. -1.
         22    1    4    4    0    0 -0.20150751512E+01  0.67216449038E+01  0.10780030190E+02  0.12862740337E+02  0.00000000000E+00 0. -1.
<mgrwt>
<rscale>  0 0.98054409E+02</rscale>
<asrwt>0</asrwt>
<pdfrwt beam="1">  1        1 0.19140885E-01 0.98054409E+02</pdfrwt>
<pdfrwt beam="2">  1       -1 0.29722514E-02 0.98054409E+02</pdfrwt>
<totfact> 0.88939072E+04</totfact>
</mgrwt>
</event>
<event>
 6    1  0.2787125E-009  0.5015109E+02  0.7818608E-02  0.1444528E+00
          1   -1    0    0  501    0  0.00000000000E+00  0.00000000000E+00  0.81056464430E+01  0.81056480099E+01  0.50400000000E-02 0. -1.
         -1   -1    0    0    0  501 -0.00000000000E+00 -0.00000000000E+00 -0.77573448855E+02  0.77573449018E+02  0.50400000000E-02 0.  1.
    9000005    2    1    2    0    0  0.10015699506E+02 -0.73587341896E+01 -0.71379683149E+02  0.73104499881E+02  0.97336288648E+01 0.  0.
         22    1    1    2    0    0 -0.10015699506E+02  0.73587341896E+01  0.19118807379E+01  0.12574597147E+02  0.00000000000E+00 0. -1.
         22    1    3    3    0    0  0.67408089352E+01  0.46582258828E+00 -0.22441045979E+02  0.23436212160E+02  0.00000000000E+00 0. -1.
         22    1    3    3    0    0  0.32748905704E+01 -0.78245567779E+01 -0.48938637171E+02  0.49668287721E+02  0.00000000000E+00 0. -1.
<mgrwt>
<rscale>  0 0.50151093E+02</rscale>
<asrwt>0</asrwt>
<pdfrwt beam="1">  1        1 0.12470227E-02 0.50151093E+02</pdfrwt>
<pdfrwt beam="2">  1       -1 0.11934376E-01 0.50151093E+02</pdfrwt>
<totfact> 0.38407349E+05</totfact>
</mgrwt>
</event>
<event>
 7    1  0.2787125E-009  0.9047196E+02  0.7818608E-02  0.1301713E+00
          1   -1    0    0  501    0  0.00000000000E+00  0.00000000000E+00  0.11723874258E+03  0.11723874269E+03  0.50400000000E-02 0. -1.
         -1   -1    0    0    0  501 -0.00000000000E+00 -0.00000000000E+00 -0.17454075550E+02  0.17454076277E+02  0.50400000000E-02 0.  1.
         23    2    1    2    0    0  0.00000000000E+00  0.00000000000E+00  0.99784667029E+02  0.13469281896E+03  0.90471960885E+02 0.  0.
    9000005    2    3    3    0    0 -0.33401358800E+02  0.13264685076E+02  0.10841070132E+02  0.38762812873E+02  0.96656205371E+01 0.  0.
         22    1    3    3    0    0  0.33401358800E+02 -0.13264685076E+02  0.88943596897E+02  0.95930006092E+02  0.00000000000E+00 0. -1.
         22    1    4    4    0    0 -0.17335459973E+02  0.24559284267E+01  0.77785581297E+01  0.19158698377E+02  0.00000000000E+00 0. -1.
         22    1    4    4    0    0 -0.16065898826E+02  0.10808756649E+02  0.30625120027E+01  0.19604114496E+02  0.00000000000E+00 0. -1.
<mgrwt>
<rscale>  0 0.90471961E+02</rscale>
<asrwt>0</asrwt>
<pdfrwt beam="1">  1        1 0.18036730E-01 0.90471961E+02</pdfrwt>
<pdfrwt beam="2">  1       -1 0.26852424E-02 0.90471961E+02</pdfrwt>
<totfact> 0.10958670E+05</totfact>
</mgrwt>
</event>
<event>
 7    1  0.2787125E-009  0.9251429E+02  0.7818608E-02  0.1296875E+00
          1   -1    0    0  501    0  0.00000000000E+00  0.00000000000E+00  0.88513641018E+02  0.88513641161E+02  0.50400000000E-02 0. -1.
         -1   -1    0    0    0  501 -0.00000000000E+00 -0.00000000000E+00 -0.24173939698E+02  0.24173940224E+02  0.50400000000E-02 0.  1.
         23    2    1    2    0    0  0.00000000000E+00  0.00000000000E+00  0.64339701319E+02  0.11268758138E+03  0.92514289883E+02 0.  0.
    9000005    2    3    3    0    0  0.74353767634E+01  0.38891806695E+02  0.60939329481E+02  0.72945664166E+02  0.62936942537E+01 0.  0.
         22    1    3    3    0    0 -0.74353767634E+01 -0.38891806695E+02  0.34003718386E+01  0.39741917219E+02  0.00000000000E+00 0.  1.
         22    1    4    4    0    0  0.80075414015E+01  0.38430483136E+02  0.60392018659E+02  0.72029290369E+02  0.00000000000E+00 0.  1.
         22    1    4    4    0    0 -0.57216463811E+00  0.46132355915E+00  0.54731082201E+00  0.91637379667E+00  0.00000000000E+00 0.  1.
<mgrwt>
<rscale>  0 0.92514290E+02</rscale>
<asrwt>0</asrwt>
<pdfrwt beam="1">  1        1 0.13617483E-01 0.92514290E+02</pdfrwt>
<pdfrwt beam="2">  1       -1 0.37190677E-02 0.92514290E+02</pdfrwt>
<totfact> 0.98377587E+04</totfact>
</mgrwt>
</event>
<event>
 7    1  0.2787125E-009  0.8939270E+02  0.7818608E-02  0.1304329E+00
         -1   -1    0    0    0  501 -0.00000000000E+00  0.00000000000E+00  0.35342929633E+03  0.35342929636E+03  0.50400000000E-02 0.  1.
          1   -1    0    0  501    0  0.00000000000E+00 -0.00000000000E+00 -0.56525113518E+01  0.56525135988E+01  0.50400000000E-02 0. -1.
         23    2    1    2    0    0 -0.71054273576E-14  0.00000000000E+00  0.34777678498E+03  0.35908180996E+03  0.89392695886E+02 0.  0.
    9000005    2    3    3    0    0  0.44061609130E+02  0.23218574896E+01  0.14768023764E+03  0.15417830907E+03  0.38317068836E+01 0.  0.
         22    1    3    3    0    0 -0.44061609130E+02 -0.23218574896E+01  0.20009654734E+03  0.20490350089E+03  0.00000000000E+00 0.  1.
         22    1    4    4    0    0  0.43351461602E+02  0.19724902754E+01  0.14613220190E+03  0.15243969422E+03  0.00000000000E+00 0. -1.
         22    1    4    4    0    0  0.71014752803E+00  0.34936721423E+00  0.15480357415E+01  0.17386148564E+01  0.00000000000E+00 0. -1.
<mgrwt>
<rscale>  0 0.89392696E+02</rscale>
<asrwt>0</asrwt>
<pdfrwt beam="2">  1        1 0.86961744E-03 0.89392696E+02</pdfrwt>
<pdfrwt beam="1">  1       -1 0.54373730E-01 0.89392696E+02</pdfrwt>
<totfact> 0.59536845E+04</totfact>
</mgrwt>
</event>
<event>
 7    1  0.2787125E-009  0.9089444E+02  0.7818608E-02  0.1300700E+00
          1   -1    0    0  501    0  0.00000000000E+00  0.00000000000E+00  0.31141798879E+03  0.31141798883E+03  0.50400000000E-02 0. -1.
         -1   -1    0    0    0  501 -0.00000000000E+00 -0.00000000000E+00 -0.66324032884E+01  0.66324052034E+01  0.50400000000E-02 0.  1.
         23    2    1    2    0    0 -0.71054273576E-14  0.00000000000E+00  0.30478558551E+03  0.31805039404E+03  0.90894444362E+02 0.  0.
    9000005    2    3    3    0    0 -0.36506025684E+02 -0.19099563551E+02  0.21877914244E+03  0.22268482642E+03  0.51706392159E+01 0.  0.
         22    1    3    3    0    0  0.36506025684E+02  0.19099563551E+02  0.86006443061E+02  0.95365567618E+02  0.00000000000E+00 0. -1.
         22    1    4    4    0    0 -0.20208664726E+02 -0.81411532581E+01  0.10740693302E+03  0.10959433274E+03  0.00000000000E+00 0. -1.
         22    1    4    4    0    0 -0.16297360958E+02 -0.10958410293E+02  0.11137220942E+03  0.11309049368E+03  0.00000000000E+00 0. -1.
<mgrwt>
<rscale>  0 0.90894444E+02</rscale>
<asrwt>0</asrwt>
<pdfrwt beam="1">  1        1 0.47910463E-01 0.90894444E+02</pdfrwt>
<pdfrwt beam="2">  1       -1 0.10203698E-02 0.90894444E+02</pdfrwt>
<totfact> 0.13010245E+05</totfact>
</mgrwt>
</event>
<event>
 7    1  0.2787125E-009  0.9149337E+02  0.7818608E-02  0.1299275E+00
         -1   -1    0    0    0  501 -0.00000000000E+00  0.00000000000E+00  0.38039211875E+02  0.38039212209E+02  0.50400000000E-02 0.  1.
          1   -1    0    0  501    0  0.00000000000E+00 -0.00000000000E+00 -0.55015843538E+02  0.55015843769E+02  0.50400000000E-02 0. -1.
         23    2    1    2    0    0  0.00000000000E+00  0.00000000000E+00 -0.16976631663E+02  0.93055055978E+02  0.91493373642E+02 0.  0.
    9000005    2    3    3    0    0  0.22250281344E+02  0.66483923305E+01 -0.47701631850E+02  0.54541398960E+02  0.12650785702E+02 0.  0.
         22    1    3    3    0    0 -0.22250281344E+02 -0.66483923305E+01  0.30725000187E+02  0.38513657018E+02  0.00000000000E+00 0.  1.
         22    1    4    4    0    0  0.62271833228E+01  0.52770523582E+01 -0.27694113835E+02  0.28871942000E+02  0.00000000000E+00 0. -1.
         22    1    4    4    0    0  0.16023098021E+02  0.13713399723E+01 -0.20007518015E+02  0.25669456960E+02  0.00000000000E+00 0. -1.
<mgrwt>
<rscale>  0 0.91493374E+02</rscale>
<asrwt>0</asrwt>
<pdfrwt beam="2">  1        1 0.84639760E-02 0.91493374E+02</pdfrwt>
<pdfrwt beam="1">  1       -1 0.58521865E-02 0.91493374E+02</pdfrwt>
<totfact> 0.94204976E+04</totfact>
</mgrwt>
</event>
<event>
 7    1  0.2787125E-009  0.9100751E+02  0.7818608E-02  0.1300430E+00
         -1   -1    0    0    0  501 -0.00000000000E+00  0.00000000000E+00  0.10227499472E+02  0.10227500714E+02  0.50400000000E-02 0.  1.
          1   -1    0    0  501    0  0.00000000000E+00 -0.00000000000E+00 -0.20245335239E+03  0.20245335246E+03  0.50400000000E-02 0. -1.
         23    2    1    2    0    0  0.00000000000E+00  0.17763568394E-14 -0.19222585292E+03  0.21268085317E+03  0.91007509436E+02 0.  0.
    9000005    2    3    3    0    0 -0.41426197823E+02  0.67608821732E+01 -0.65810967487E+02  0.79479642014E+02  0.14969657957E+02 0.  0.
         22    1    3    3    0    0  0.41426197823E+02 -0.67608821732E+01 -0.12641488543E+03  0.13320121116E+03  0.00000000000E+00 0. -1.
         22    1    4    4    0    0 -0.13494745323E+02  0.94913033199E+01 -0.24119624609E+02  0.29222410601E+02  0.00000000000E+00 0.  1.
         22    1    4    4    0    0 -0.27931452501E+02 -0.27304211468E+01 -0.41691342878E+02  0.50257231414E+02  0.00000000000E+00 0.  1.
<mgrwt>
<rscale>  0 0.91007509E+02</rscale>
<asrwt>0</asrwt>
<pdfrwt beam="2">  1        1 0.31146667E-01 0.91007509E+02</pdfrwt>
<pdfrwt beam="1">  1       -1 0.15734617E-02 0.91007509E+02</pdfrwt>
<totfact> 0.11927981E+05</totfact>
</mgrwt>
</event>
<event>
 7    1  0.2787125E-009  0.9199841E+02  0.7818608E-02  0.1298083E+00
         -1   -1    0    0    0  501 -0.00000000000E+00  0.00000000000E+00  0.88346779337E+01  0.88346793713E+01  0.50400000000E-02 0.  1.
          1   -1    0    0  501    0  0.00000000000E+00 -0.00000000000E+00 -0.23950242244E+03  0.23950242249E+03  0.50400000000E-02 0. -1.
         23    2    1    2    0    0  0.00000000000E+00  0.35527136788E-14 -0.23066774450E+03  0.24833710186E+03  0.91998411978E+02 0.  0.
    9000005    2    3    3    0    0  0.33192667888E+02 -0.22438823814E+02 -0.55627002985E+02  0.68769523477E+02  0.54433337606E+01 0.  0.
         22    1    3    3    0    0 -0.33192667888E+02  0.22438823814E+02 -0.17504074152E+03  0.17956757838E+03  0.00000000000E+00 0. -1.
         22    1    4    4    0    0  0.41302282378E+01 -0.51844724510E+01 -0.95893192319E+01  0.11657297424E+02  0.00000000000E+00 0. -1.
         22    1    4    4    0    0  0.29062439650E+02 -0.17254351363E+02 -0.46037683753E+02  0.57112226053E+02  0.00000000000E+00 0. -1.
<mgrwt>
<rscale>  0 0.91998412E+02</rscale>
<asrwt>0</asrwt>
<pdfrwt beam="2">  1        1 0.36846522E-01 0.91998412E+02</pdfrwt>
<pdfrwt beam="1">  1       -1 0.13591815E-02 0.91998412E+02</pdfrwt>
<totfact> 0.11973074E+05</totfact>
</mgrwt>
</event>
<event>
 7    1  0.2787125E-009  0.9257914E+02  0.7818608E-02  0.1296723E+00
          1   -1    0    0  501    0  0.00000000000E+00  0.00000000000E+00  0.10417587736E+03  0.10417587748E+03  0.50400000000E-02 0. -1.
         -1   -1    0    0    0  501 -0.00000000000E+00 -0.00000000000E+00 -0.20568336123E+02  0.20568336740E+02  0.50400000000E-02 0.  1.
         23    2    1    2    0    0  0.00000000000E+00  0.00000000000E+00  0.83607541238E+02  0.12474421422E+03  0.92579144683E+02 0.  0.
    9000005    2    3    3    0    0 -0.43237109199E+02  0.12277368156E+02  0.41485571278E+02  0.63145174181E+02  0.15686905920E+02 0.  0.
         22    1    3    3    0    0  0.43237109199E+02 -0.12277368156E+02  0.42121969960E+02  0.61599040042E+02  0.00000000000E+00 0. -1.
         22    1    4    4    0    0 -0.26384597921E+02  0.14510796925E+02  0.30756755270E+02  0.43042865026E+02  0.00000000000E+00 0.  1.
         22    1    4    4    0    0 -0.16852511279E+02 -0.22334287691E+01  0.10728816008E+02  0.20102309156E+02  0.00000000000E+00 0.  1.
<mgrwt>
<rscale>  0 0.92579145E+02</rscale>
<asrwt>0</asrwt>
<pdfrwt beam="1">  1        1 0.16027058E-01 0.92579145E+02</pdfrwt>
<pdfrwt beam="2">  1       -1 0.31643595E-02 0.92579145E+02</pdfrwt>
<totfact> 0.10087908E+05</totfact>
</mgrwt>
</event>
<event>
 7    1  0.2787125E-009  0.9224657E+02  0.7818608E-02  0.1297501E+00
         -1   -1    0    0    0  501 -0.00000000000E+00  0.00000000000E+00  0.13731866082E+02  0.13731867007E+02  0.50400000000E-02 0. -1.
          1   -1    0    0  501    0  0.00000000000E+00 -0.00000000000E+00 -0.15492120024E+03  0.15492120032E+03  0.50400000000E-02 0.  1.
         23    2    1    2    0    0  0.00000000000E+00  0.35527136788E-14 -0.14118933416E+03  0.16865306733E+03  0.92246566546E+02 0.  0.
    9000005    2    3    3    0    0 -0.20571064186E+02 -0.27899723263E+02 -0.16092355851E+02  0.38842369690E+02  0.69428039342E+01 0.  0.
         22    1    3    3    0    0  0.20571064186E+02  0.27899723263E+02 -0.12509697830E+03  0.12981069764E+03  0.00000000000E+00 0.  1.
         22    1    4    4    0    0 -0.17387960107E+02 -0.21495448705E+02 -0.98512015761E+01  0.29350326134E+02  0.00000000000E+00 0. -1.
         22    1    4    4    0    0 -0.31831040785E+01 -0.64042745581E+01 -0.62411542744E+01  0.94920435559E+01  0.00000000000E+00 0. -1.
<mgrwt>
<rscale>  0 0.92246567E+02</rscale>
<asrwt>0</asrwt>
<pdfrwt beam="2">  1        1 0.23834030E-01 0.92246567E+02</pdfrwt>
<pdfrwt beam="1">  1       -1 0.21125950E-02 0.92246567E+02</pdfrwt>
<totfact> 0.10930535E+05</totfact>
</mgrwt>
</event>
<event>
 7    1  0.2787125E-009  0.9303660E+02  0.7818608E-02  0.1295660E+00
         -1   -1    0    0    0  501 -0.00000000000E+00  0.00000000000E+00  0.22015463780E+01  0.22015521470E+01  0.50400000000E-02 0.  1.
          1   -1    0    0  501    0  0.00000000000E+00 -0.00000000000E+00 -0.98292253326E+03  0.98292253328E+03  0.50400000000E-02 0. -1.
         23    2    1    2    0    0  0.00000000000E+00  0.00000000000E+00 -0.98072098689E+03  0.98512408542E+03  0.93036603354E+02 0.  0.
    9000005    2    3    3    0    0 -0.10450149458E+02  0.11272325714E+02 -0.95481501126E+03  0.95500116186E+03  0.10919820633E+02 0.  0.
         22    1    3    3    0    0  0.10450149458E+02 -0.11272325714E+02 -0.25905975626E+02  0.30122923560E+02  0.00000000000E+00 0.  1.
         22    1    4    4    0    0 -0.37940511189E+01  0.77882894567E+01 -0.25752097254E+03  0.25766665204E+03  0.00000000000E+00 0. -1.
         22    1    4    4    0    0 -0.66560983390E+01  0.34840362571E+01 -0.69729403872E+03  0.69733450982E+03  0.00000000000E+00 0. -1.
<mgrwt>
<rscale>  0 0.93036603E+02</rscale>
<asrwt>0</asrwt>
<pdfrwt beam="2">  1        1 0.15121850E+00 0.93036603E+02</pdfrwt>
<pdfrwt beam="1">  1       -1 0.33870067E-03 0.93036603E+02</pdfrwt>
<totfact> 0.12951264E+05</totfact>
</mgrwt>
</event>
<event>
 7    1  0.2787125E-009  0.8841082E+02  0.7818608E-02  0.1306746E+00
          1   -1    0    0  501    0  0.00000000000E+00  0.00000000000E+00  0.35029689958E+03  0.35029689961E+03  0.50400000000E-02 0. -1.
         -1   -1    0    0    0  501 -0.00000000000E+00 -0.00000000000E+00 -0.55784619956E+01  0.55784642723E+01  0.50400000000E-02 0.  1.
         23    2    1    2    0    0 -0.71054273576E-14  0.00000000000E+00  0.34471843758E+03  0.35587536389E+03  0.88410821804E+02 0.  0.
    9000005    2    3    3    0    0 -0.41129187858E+02 -0.14003577929E+01  0.23468424645E+03  0.23839730503E+03  0.79377840277E+01 0.  0.
         22    1    3    3    0    0  0.41129187858E+02  0.14003577929E+01  0.11003419113E+03  0.11747805886E+03  0.00000000000E+00 0.  1.
         22    1    4    4    0    0 -0.90228276955E+01 -0.22707483113E+01  0.69447679328E+02  0.70068165964E+02  0.00000000000E+00 0. -1.
         22    1    4    4    0    0 -0.32106360163E+02  0.87039051834E+00  0.16523656712E+03  0.16832913906E+03  0.00000000000E+00 0. -1.
<mgrwt>
<rscale>  0 0.88410822E+02</rscale>
<asrwt>0</asrwt>
<pdfrwt beam="1">  1        1 0.53891845E-01 0.88410822E+02</pdfrwt>
<pdfrwt beam="2">  1       -1 0.85822487E-03 0.88410822E+02</pdfrwt>
<totfact> 0.14308457E+05</totfact>
</mgrwt>
</event>
<event>
 7    1  0.2787125E-009  0.9025761E+02  0.7818608E-02  0.1302229E+00
          1   -1    0    0  501    0  0.00000000000E+00  0.00000000000E+00  0.47534905058E+02  0.47534905325E+02  0.50400000000E-02 0. -1.
         -1   -1    0    0    0  501 -0.00000000000E+00 -0.00000000000E+00 -0.42844498731E+02  0.42844499027E+02  0.50400000000E-02 0.  1.
         23    2    1    2    0    0  0.00000000000E+00  0.00000000000E+00  0.46904063271E+01  0.90379404353E+02  0.90257613638E+02 0.  0.
    9000005    2    3    3    0    0 -0.30665203691E+02  0.96674973882E+01 -0.29320045497E+02  0.43576348294E+02  0.23276253076E+01 0.  0.
         22    1    3    3    0    0  0.30665203691E+02 -0.96674973882E+01  0.34010451824E+02  0.46803056058E+02  0.00000000000E+00 0. -1.
         22    1    4    4    0    0 -0.11709591508E+02  0.37787962258E+01 -0.97124520480E+01  0.15675635840E+02  0.00000000000E+00 0.  1.
         22    1    4    4    0    0 -0.18955612183E+02  0.58887011623E+01 -0.19607593449E+02  0.27900712454E+02  0.00000000000E+00 0.  1.
<mgrwt>
<rscale>  0 0.90257614E+02</rscale>
<asrwt>0</asrwt>
<pdfrwt beam="1">  1        1 0.73130623E-02 0.90257614E+02</pdfrwt>
<pdfrwt beam="2">  1       -1 0.65914614E-02 0.90257614E+02</pdfrwt>
<totfact> 0.95730368E+04</totfact>
</mgrwt>
</event>
<event>
 7    1  0.2787125E-009  0.9113540E+02  0.7818608E-02  0.1300125E+00
          1   -1    0    0  501    0  0.00000000000E+00  0.00000000000E+00  0.14131858467E+03  0.14131858476E+03  0.50400000000E-02 0. -1.
         -1   -1    0    0    0  501 -0.00000000000E+00 -0.00000000000E+00 -0.14693151751E+02  0.14693152615E+02  0.50400000000E-02 0.  1.
         23    2    1    2    0    0  0.00000000000E+00  0.88817841970E-15  0.12662543292E+03  0.15601173738E+03  0.91135404410E+02 0.  0.
    9000005    2    3    3    0    0  0.33833797675E+02  0.67851223300E+01  0.11269275496E+03  0.11879771764E+03  0.14915661079E+02 0.  0.
         22    1    3    3    0    0 -0.33833797675E+02 -0.67851223300E+01  0.13932677965E+02  0.37214019743E+02  0.00000000000E+00 0.  1.
         22    1    4    4    0    0  0.19953150628E+02  0.38815917200E+01  0.41555199056E+02  0.46260453336E+02  0.00000000000E+00 0.  1.
         22    1    4    4    0    0  0.13880647046E+02  0.29035306100E+01  0.71137555902E+02  0.72537264300E+02  0.00000000000E+00 0.  1.
<mgrwt>
<rscale>  0 0.91135404E+02</rscale>
<asrwt>0</asrwt>
<pdfrwt beam="1">  1        1 0.21741320E-01 0.91135404E+02</pdfrwt>
<pdfrwt beam="2">  1       -1 0.22604850E-02 0.91135404E+02</pdfrwt>
<totfact> 0.11105471E+05</totfact>
</mgrwt>
</event>
<event>
 7    1  0.2787125E-009  0.9109456E+02  0.7818608E-02  0.1300223E+00
          1   -1    0    0  501    0  0.00000000000E+00  0.00000000000E+00  0.56233628546E+03  0.56233628548E+03  0.50400000000E-02 0. -1.
         -1   -1    0    0    0  501 -0.00000000000E+00 -0.00000000000E+00 -0.36891689609E+01  0.36891724036E+01  0.50400000000E-02 0.  1.
         23    2    1    2    0    0  0.00000000000E+00  0.00000000000E+00  0.55864711650E+03  0.56602545788E+03  0.91094556382E+02 0.  0.
    9000005    2    3    3    0    0  0.40855632958E+01  0.17092501101E+02  0.54024041950E+03  0.54057645170E+03  0.73718283159E+01 0.  0.
         22    1    3    3    0    0 -0.40855632958E+01 -0.17092501101E+02  0.18406697000E+02  0.25449006184E+02  0.00000000000E+00 0.  1.
         22    1    4    4    0    0  0.83394598853E-01  0.13990861058E+02  0.40092366514E+03  0.40116771607E+03  0.00000000000E+00 0. -1.
         22    1    4    4    0    0  0.40021686970E+01  0.31016400429E+01  0.13931675436E+03  0.13940873563E+03  0.00000000000E+00 0. -1.
<mgrwt>
<rscale>  0 0.91094556E+02</rscale>
<asrwt>0</asrwt>
<pdfrwt beam="1">  1        1 0.86513240E-01 0.91094556E+02</pdfrwt>
<pdfrwt beam="2">  1       -1 0.56756495E-03 0.91094556E+02</pdfrwt>
<totfact> 0.14126872E+05</totfact>
</mgrwt>
</event>
<event>
 7    1  0.2787125E-009  0.9172890E+02  0.7818608E-02  0.1298718E+00
         -1   -1    0    0    0  501 -0.00000000000E+00  0.00000000000E+00  0.15289463606E+02  0.15289464437E+02  0.50400000000E-02 0.  1.
          1   -1    0    0  501    0  0.00000000000E+00 -0.00000000000E+00 -0.13758153001E+03  0.13758153010E+03  0.50400000000E-02 0. -1.
         23    2    1    2    0    0  0.88817841970E-15  0.00000000000E+00 -0.12229206640E+03  0.15287099454E+03  0.91728902020E+02 0.  0.
    9000005    2    3    3    0    0 -0.62394127406E+01 -0.40117991361E+02 -0.31318566254E+02  0.53248902453E+02  0.14359997145E+02 0.  0.
         22    1    3    3    0    0  0.62394127406E+01  0.40117991361E+02 -0.90973500147E+02  0.99622092083E+02  0.00000000000E+00 0. -1.
         22    1    4    4    0    0 -0.69204797573E+01 -0.30169659563E+02 -0.30147965645E+02  0.43208809643E+02  0.00000000000E+00 0. -1.
         22    1    4    4    0    0  0.68106701664E+00 -0.99483317976E+01 -0.11706006089E+01  0.10040092809E+02  0.00000000000E+00 0. -1.
<mgrwt>
<rscale>  0 0.91728902E+02</rscale>
<asrwt>0</asrwt>
<pdfrwt beam="2">  1        1 0.21166389E-01 0.91728902E+02</pdfrwt>
<pdfrwt beam="1">  1       -1 0.23522253E-02 0.91728902E+02</pdfrwt>
<totfact> 0.10859321E+05</totfact>
</mgrwt>
</event>
<event>
 7    1  0.2787125E-009  0.8535855E+02  0.7818608E-02  0.1314498E+00
          1   -1    0    0  501    0  0.00000000000E+00  0.00000000000E+00  0.99506047234E+02  0.99506047362E+02  0.50400000000E-02 0. -1.
         -1   -1    0    0    0  501 -0.00000000000E+00 -0.00000000000E+00 -0.18305627913E+02  0.18305628607E+02  0.50400000000E-02 0.  1.
         23    2    1    2    0    0  0.00000000000E+00  0.00000000000E+00  0.81200419321E+02  0.11781167597E+03  0.85358554912E+02 0.  0.
    9000005    2    3    3    0    0  0.28039780890E+02 -0.67457306022E+01  0.83079977447E+02  0.88910690994E+02  0.13080295364E+02 0.  0.
         22    1    3    3    0    0 -0.28039780890E+02  0.67457306022E+01 -0.18795581261E+01  0.28900984974E+02  0.00000000000E+00 0.  1.
         22    1    4    4    0    0  0.13654087864E+02  0.29838740237E+01  0.30830085338E+02  0.33850137098E+02  0.00000000000E+00 0.  1.
         22    1    4    4    0    0  0.14385693026E+02 -0.97296046259E+01  0.52249892109E+02  0.55060553897E+02  0.00000000000E+00 0.  1.
<mgrwt>
<rscale>  0 0.85358555E+02</rscale>
<asrwt>0</asrwt>
<pdfrwt beam="1">  1        1 0.15308622E-01 0.85358555E+02</pdfrwt>
<pdfrwt beam="2">  1       -1 0.28162506E-02 0.85358555E+02</pdfrwt>
<totfact> 0.12480849E+05</totfact>
</mgrwt>
</event>
<event>
 7    1  0.2787125E-009  0.9156698E+02  0.7818608E-02  0.1299101E+00
          1   -1    0    0  501    0  0.00000000000E+00  0.00000000000E+00  0.33349388199E+03  0.33349388203E+03  0.50400000000E-02 0. -1.
         -1   -1    0    0    0  501 -0.00000000000E+00 -0.00000000000E+00 -0.62853559528E+01  0.62853579734E+01  0.50400000000E-02 0.  1.
         23    2    1    2    0    0  0.00000000000E+00 -0.35527136788E-14  0.32720852604E+03  0.33977924000E+03  0.91566983267E+02 0.  0.
    9000005    2    3    3    0    0 -0.38951156752E+02 -0.16329677046E+02  0.22487613913E+03  0.22907346610E+03  0.11023790492E+02 0.  0.
         22    1    3    3    0    0  0.38951156752E+02  0.16329677046E+02  0.10233238691E+03  0.11070577390E+03  0.00000000000E+00 0. -1.
         22    1    4    4    0    0 -0.20535263528E+02 -0.88302720641E+01  0.14745165570E+03  0.14913638564E+03  0.00000000000E+00 0.  1.
         22    1    4    4    0    0 -0.18415893225E+02 -0.74994049816E+01  0.77424483425E+02  0.79937080457E+02  0.00000000000E+00 0.  1.
<mgrwt>
<rscale>  0 0.91566983E+02</rscale>
<asrwt>0</asrwt>
<pdfrwt beam="1">  1        1 0.51306751E-01 0.91566983E+02</pdfrwt>
<pdfrwt beam="2">  1       -1 0.96697801E-03 0.91566983E+02</pdfrwt>
<totfact> 0.12920788E+05</totfact>
</mgrwt>
</event>
<event>
 7    1  0.2787125E-009  0.8606316E+02  0.7818608E-02  0.1312675E+00
          1   -1    0    0  501    0  0.00000000000E+00  0.00000000000E+00  0.37321323913E+02  0.37321324254E+02  0.50400000000E-02 0. -1.
         -1   -1    0    0    0  501 -0.00000000000E+00 -0.00000000000E+00 -0.49615519134E+02  0.49615519390E+02  0.50400000000E-02 0.  1.
         23    2    1    2    0    0  0.35527136788E-14  0.17763568394E-14 -0.12294195220E+02  0.86936843643E+02  0.86063160217E+02 0.  0.
    9000005    2    3    3    0    0 -0.18101978962E+02 -0.15527832872E+02 -0.42188051816E+02  0.48695009244E+02  0.47515232511E+01 0.  0.
         22    1    3    3    0    0  0.18101978962E+02  0.15527832872E+02  0.29893856596E+02  0.38241834399E+02  0.00000000000E+00 0. -1.
         22    1    4    4    0    0 -0.17034775748E+02 -0.13749854922E+02 -0.40430080141E+02  0.45976444788E+02  0.00000000000E+00 0.  1.
         22    1    4    4    0    0 -0.10672032139E+01 -0.17779779501E+01 -0.17579716756E+01  0.27185644563E+01  0.00000000000E+00 0.  1.
<mgrwt>
<rscale>  0 0.86063160E+02</rscale>
<asrwt>0</asrwt>
<pdfrwt beam="1">  1        1 0.57417422E-02 0.86063160E+02</pdfrwt>
<pdfrwt beam="2">  1       -1 0.76331568E-02 0.86063160E+02</pdfrwt>
<totfact> 0.10555657E+05</totfact>
</mgrwt>
</event>
<event>
 7    1  0.2787125E-009  0.9228683E+02  0.7818608E-02  0.1297406E+00
          1   -1    0    0  501    0  0.00000000000E+00  0.00000000000E+00  0.20080127558E+02  0.20080128191E+02  0.50400000000E-02 0. -1.
         -1   -1    0    0    0  501 -0.00000000000E+00 -0.00000000000E+00 -0.10603592072E+03  0.10603592084E+03  0.50400000000E-02 0.  1.
         23    2    1    2    0    0  0.00000000000E+00 -0.71054273576E-14 -0.85955793159E+02  0.12611604903E+03  0.92286832456E+02 0.  0.
    9000005    2    3    3    0    0  0.10260996247E+02  0.44396424195E+02 -0.36853168102E+02  0.59128002984E+02  0.78507459792E+01 0.  0.
         22    1    3    3    0    0 -0.10260996247E+02 -0.44396424195E+02 -0.49102625057E+02  0.66988046043E+02  0.00000000000E+00 0.  1.
         22    1    4    4    0    0  0.10516607461E+02  0.32942542722E+02 -0.25217698671E+02  0.42798860729E+02  0.00000000000E+00 0.  1.
         22    1    4    4    0    0 -0.25561121361E+00  0.11453881473E+02 -0.11635469431E+02  0.16329142255E+02  0.00000000000E+00 0.  1.
<mgrwt>
<rscale>  0 0.92286832E+02</rscale>
<asrwt>0</asrwt>
<pdfrwt beam="1">  1        1 0.30892505E-02 0.92286832E+02</pdfrwt>
<pdfrwt beam="2">  1       -1 0.16313218E-01 0.92286832E+02</pdfrwt>
<totfact> 0.78000666E+04</totfact>
</mgrwt>
</event>
<event>
 7    1  0.2787125E-009  0.9194605E+02  0.7818608E-02  0.1298206E+00
          1   -1    0    0  501    0  0.00000000000E+00  0.00000000000E+00  0.50270443515E+02  0.50270443767E+02  0.50400000000E-02 0. -1.
         -1   -1    0    0    0  501 -0.00000000000E+00 -0.00000000000E+00 -0.42042970848E+02  0.42042971150E+02  0.50400000000E-02 0.  1.
         23    2    1    2    0    0  0.00000000000E+00  0.00000000000E+00  0.82274726665E+01  0.92313414917E+02  0.91946045414E+02 0.  0.
    9000005    2    3    3    0    0 -0.11059833234E+02  0.26059845766E+02 -0.31157330373E+02  0.43809825536E+02  0.12127906045E+02 0.  0.
         22    1    3    3    0    0  0.11059833234E+02 -0.26059845766E+02  0.39384803039E+02  0.48503589382E+02  0.00000000000E+00 0. -1.
         22    1    4    4    0    0 -0.96498998547E+01  0.15554607379E+02 -0.11914330110E+02  0.21840733502E+02  0.00000000000E+00 0. -1.
         22    1    4    4    0    0 -0.14099333789E+01  0.10505238387E+02 -0.19243000262E+02  0.21969092034E+02  0.00000000000E+00 0. -1.
<mgrwt>
<rscale>  0 0.91946045E+02</rscale>
<asrwt>0</asrwt>
<pdfrwt beam="1">  1        1 0.77339144E-02 0.91946045E+02</pdfrwt>
<pdfrwt beam="2">  1       -1 0.64681494E-02 0.91946045E+02</pdfrwt>
<totfact> 0.91658830E+04</totfact>
</mgrwt>
</event>
<event>
 7    1  0.2787125E-009  0.9191644E+02  0.7818608E-02  0.1298276E+00
         -1   -1    0    0    0  501 -0.00000000000E+00  0.00000000000E+00  0.22718610074E+03  0.22718610079E+03  0.50400000000E-02 0.  1.
          1   -1    0    0  501    0  0.00000000000E+00 -0.00000000000E+00 -0.92970372521E+01  0.92970386182E+01  0.50400000000E-02 0. -1.
         23    2    1    2    0    0  0.00000000000E+00  0.00000000000E+00  0.21788906348E+03  0.23648313941E+03  0.91916436177E+02 0.  0.
    9000005    2    3    3    0    0  0.27479937338E+02  0.19330801746E+02  0.32640573403E+02  0.48212509918E+02  0.11411057281E+02 0.  0.
         22    1    3    3    0    0 -0.27479937338E+02 -0.19330801746E+02  0.18524849008E+03  0.18827062949E+03  0.00000000000E+00 0.  1.
         22    1    4    4    0    0  0.87332960749E+01  0.13204669307E+01  0.12603672678E+02  0.15390472969E+02  0.00000000000E+00 0.  1.
         22    1    4    4    0    0  0.18746641263E+02  0.18010334815E+02  0.20036900726E+02  0.32822036949E+02  0.00000000000E+00 0.  1.
<mgrwt>
<rscale>  0 0.91916436E+02</rscale>
<asrwt>0</asrwt>
<pdfrwt beam="2">  1        1 0.14303136E-02 0.91916436E+02</pdfrwt>
<pdfrwt beam="1">  1       -1 0.34951705E-01 0.91916436E+02</pdfrwt>
<totfact> 0.65425329E+04</totfact>
</mgrwt>
</event>
<event>
 7    1  0.2787125E-009  0.9158929E+02  0.7818608E-02  0.1299048E+00
          1   -1    0    0  501    0  0.00000000000E+00  0.00000000000E+00  0.47171287395E+03  0.47171287398E+03  0.50400000000E-02 0. -1.
         -1   -1    0    0    0  501 -0.00000000000E+00 -0.00000000000E+00 -0.44458160543E+01  0.44458189111E+01  0.50400000000E-02 0.  1.
         23    2    1    2    0    0  0.00000000000E+00 -0.71054273576E-14  0.46726705790E+03  0.47615869289E+03  0.91589286591E+02 0.  0.
    9000005    2    3    3    0    0 -0.14437902795E+02  0.42388017706E+02  0.21337105981E+03  0.21834407941E+03  0.11905073038E+02 0.  0.
         22    1    3    3    0    0  0.14437902795E+02 -0.42388017706E+02  0.25389599808E+03  0.25781461348E+03  0.00000000000E+00 0.  1.
         22    1    4    4    0    0 -0.15851920253E+01  0.17845831715E+01  0.37863424480E+01  0.44759311865E+01  0.00000000000E+00 0.  1.
         22    1    4    4    0    0 -0.12852710769E+02  0.40603434535E+02  0.20958471737E+03  0.21386814822E+03  0.00000000000E+00 0.  1.
<mgrwt>
<rscale>  0 0.91589287E+02</rscale>
<asrwt>0</asrwt>
<pdfrwt beam="1">  1        1 0.72571166E-01 0.91589287E+02</pdfrwt>
<pdfrwt beam="2">  1       -1 0.68397235E-03 0.91589287E+02</pdfrwt>
<totfact> 0.13660616E+05</totfact>
</mgrwt>
</event>
<event>
 7    1  0.2787125E-009  0.9105215E+02  0.7818608E-02  0.1300324E+00
         -1   -1    0    0    0  501 -0.00000000000E+00  0.00000000000E+00  0.59436957487E+02  0.59436957701E+02  0.50400000000E-02 0.  1.
          1   -1    0    0  501    0  0.00000000000E+00 -0.00000000000E+00 -0.34870951939E+02  0.34870952304E+02  0.50400000000E-02 0. -1.
         23    2    1    2    0    0  0.00000000000E+00  0.00000000000E+00  0.24566005548E+02  0.94307910004E+02  0.91052145833E+02 0.  0.
    9000005    2    3    3    0    0  0.17048414533E+02 -0.31969663508E+02  0.39418259190E+02  0.55150570192E+02  0.13231719920E+02 0.  0.
         22    1    3    3    0    0 -0.17048414533E+02  0.31969663508E+02 -0.14852253643E+02  0.39157339812E+02  0.00000000000E+00 0. -1.
         22    1    4    4    0    0  0.15605064360E+02 -0.24833805315E+02  0.37526380774E+02  0.47628407218E+02  0.00000000000E+00 0. -1.
         22    1    4    4    0    0  0.14433501728E+01 -0.71358581929E+01  0.18918784160E+01  0.75221629743E+01  0.00000000000E+00 0. -1.
<mgrwt>
<rscale>  0 0.91052146E+02</rscale>
<asrwt>0</asrwt>
<pdfrwt beam="2">  1        1 0.53647619E-02 0.91052146E+02</pdfrwt>
<pdfrwt beam="1">  1       -1 0.91441473E-02 0.91052146E+02</pdfrwt>
<totfact> 0.89119677E+04</totfact>
</mgrwt>
</event>
<event>
 7    1  0.2787125E-009  0.9321865E+02  0.7818608E-02  0.1295239E+00
         -1   -1    0    0    0  501 -0.00000000000E+00  0.00000000000E+00  0.52088467533E+02  0.52088467777E+02  0.50400000000E-02 0.  1.
          1   -1    0    0  501    0  0.00000000000E+00 -0.00000000000E+00 -0.41706531085E+02  0.41706531389E+02  0.50400000000E-02 0. -1.
         23    2    1    2    0    0  0.35527136788E-14  0.35527136788E-14  0.10381936448E+02  0.93794999166E+02  0.93218652984E+02 0.  0.
    9000005    2    3    3    0    0 -0.17023014187E+02 -0.27603995479E+02 -0.28328156325E+02  0.43295149058E+02  0.44968781172E+01 0.  0.
         22    1    3    3    0    0  0.17023014187E+02  0.27603995479E+02  0.38710092773E+02  0.50499850108E+02  0.00000000000E+00 0.  1.
         22    1    4    4    0    0 -0.61673983712E+01 -0.65193261605E+01 -0.67109862976E+01  0.11206058778E+02  0.00000000000E+00 0.  1.
         22    1    4    4    0    0 -0.10855615815E+02 -0.21084669319E+02 -0.21617170027E+02  0.32089090280E+02  0.00000000000E+00 0.  1.
<mgrwt>
<rscale>  0 0.93218653E+02</rscale>
<asrwt>0</asrwt>
<pdfrwt beam="2">  1        1 0.64163894E-02 0.93218653E+02</pdfrwt>
<pdfrwt beam="1">  1       -1 0.80136105E-02 0.93218653E+02</pdfrwt>
<totfact> 0.85702788E+04</totfact>
</mgrwt>
</event>
<event>
 7    1  0.2787125E-009  0.1074108E+03  0.7818608E-02  0.1265441E+00
          1   -1    0    0  501    0  0.00000000000E+00  0.00000000000E+00  0.41822657667E+02  0.41822657971E+02  0.50400000000E-02 0. -1.
         -1   -1    0    0    0  501 -0.00000000000E+00 -0.00000000000E+00 -0.68964257657E+02  0.68964257841E+02  0.50400000000E-02 0.  1.
         23    2    1    2    0    0 -0.35527136788E-14  0.35527136788E-14 -0.27141599989E+02  0.11078691581E+03  0.10741077351E+03 0.  0.
    9000005    2    3    3    0    0  0.20547791467E+02 -0.17612083603E+02 -0.60725551687E+02  0.67655963647E+02  0.12543506938E+02 0.  0.
         22    1    3    3    0    0 -0.20547791467E+02  0.17612083603E+02  0.33583951697E+02  0.43130952165E+02  0.00000000000E+00 0. -1.
         22    1    4    4    0    0  0.19387497626E+02 -0.14373721270E+02 -0.59126486451E+02  0.63862511127E+02  0.00000000000E+00 0.  1.
         22    1    4    4    0    0  0.11602938411E+01 -0.32383623325E+01 -0.15990652355E+01  0.37934525200E+01  0.00000000000E+00 0.  1.
<mgrwt>
<rscale>  0 0.10741077E+03</rscale>
<asrwt>0</asrwt>
<pdfrwt beam="1">  1        1 0.64342551E-02 0.10741077E+03</pdfrwt>
<pdfrwt beam="2">  1       -1 0.10609886E-01 0.10741077E+03</pdfrwt>
<totfact> 0.57119171E+04</totfact>
</mgrwt>
</event>
<event>
 7    1  0.2787125E-009  0.9148962E+02  0.7818608E-02  0.1299284E+00
          1   -1    0    0  501    0  0.00000000000E+00  0.00000000000E+00  0.18907692204E+02  0.18907692875E+02  0.50400000000E-02 0. -1.
         -1   -1    0    0    0  501 -0.00000000000E+00 -0.00000000000E+00 -0.11067388753E+03  0.11067388764E+03  0.50400000000E-02 0.  1.
         23    2    1    2    0    0  0.35527136788E-14  0.00000000000E+00 -0.91766195323E+02  0.12958158052E+03  0.91489624576E+02 0.  0.
    9000005    2    3    3    0    0 -0.19070757722E+02 -0.41200455156E+02 -0.44088080583E+02  0.63745618229E+02  0.76533449458E+01 0.  0.
         22    1    3    3    0    0  0.19070757722E+02  0.41200455156E+02 -0.47678114740E+02  0.65835962287E+02  0.00000000000E+00 0.  1.
         22    1    4    4    0    0 -0.59875536221E+01 -0.18609282524E+02 -0.14855627583E+02  0.24552919691E+02  0.00000000000E+00 0. -1.
         22    1    4    4    0    0 -0.13083204100E+02 -0.22591172631E+02 -0.29232453000E+02  0.39192698539E+02  0.00000000000E+00 0. -1.
<mgrwt>
<rscale>  0 0.91489625E+02</rscale>
<asrwt>0</asrwt>
<pdfrwt beam="1">  1        1 0.29088759E-02 0.91489625E+02</pdfrwt>
<pdfrwt beam="2">  1       -1 0.17026752E-01 0.91489625E+02</pdfrwt>
<totfact> 0.79108984E+04</totfact>
</mgrwt>
</event>
<event>
 7    1  0.2787125E-009  0.8942101E+02  0.7818608E-02  0.1304260E+00
         -1   -1    0    0    0  501 -0.00000000000E+00  0.00000000000E+00  0.89802334846E+02  0.89802334987E+02  0.50400000000E-02 0.  1.
          1   -1    0    0  501    0  0.00000000000E+00 -0.00000000000E+00 -0.22260324266E+02  0.22260324837E+02  0.50400000000E-02 0. -1.
         23    2    1    2    0    0  0.00000000000E+00  0.00000000000E+00  0.67542010579E+02  0.11206265982E+03  0.89421007228E+02 0.  0.
    9000005    2    3    3    0    0 -0.19404254470E+02  0.65734817587E+01 -0.13732835327E+02  0.28245380394E+02  0.13764991591E+02 0.  0.
         22    1    3    3    0    0  0.19404254470E+02 -0.65734817587E+01  0.81274845906E+02  0.83817279430E+02  0.00000000000E+00 0.  1.
         22    1    4    4    0    0 -0.70856894141E+01 -0.35901301592E+01 -0.13958505626E+01  0.80650125744E+01  0.00000000000E+00 0.  1.
         22    1    4    4    0    0 -0.12318565056E+02  0.10163611918E+02 -0.12336984764E+02  0.20180367819E+02  0.00000000000E+00 0.  1.
<mgrwt>
<rscale>  0 0.89421007E+02</rscale>
<asrwt>0</asrwt>
<pdfrwt beam="2">  1        1 0.34246653E-02 0.89421007E+02</pdfrwt>
<pdfrwt beam="1">  1       -1 0.13815744E-01 0.89421007E+02</pdfrwt>
<totfact> 0.87218315E+04</totfact>
</mgrwt>
</event>
<event>
 7    1  0.2787125E-009  0.9227999E+02  0.7818608E-02  0.1297422E+00
          1   -1    0    0  501    0  0.00000000000E+00  0.00000000000E+00  0.11347174412E+03  0.11347174423E+03  0.50400000000E-02 0. -1.
         -1   -1    0    0    0  501 -0.00000000000E+00 -0.00000000000E+00 -0.18761491887E+02  0.18761492564E+02  0.50400000000E-02 0.  1.
         23    2    1    2    0    0  0.00000000000E+00  0.00000000000E+00  0.94710252232E+02  0.13223323680E+03  0.92279992607E+02 0.  0.
    9000005    2    3    3    0    0 -0.13828819761E+02 -0.34755614681E+02  0.90323153933E+01  0.38745815883E+02  0.45239937276E+01 0.  0.
         22    1    3    3    0    0  0.13828819761E+02  0.34755614681E+02  0.85677936839E+02  0.93487420912E+02  0.00000000000E+00 0. -1.
         22    1    4    4    0    0 -0.22379349030E+01 -0.41812091964E+01 -0.27135693643E+00  0.47502102649E+01  0.00000000000E+00 0.  1.
         22    1    4    4    0    0 -0.11590884858E+02 -0.30574405485E+02  0.93036723297E+01  0.33995605618E+02  0.00000000000E+00 0.  1.
<mgrwt>
<rscale>  0 0.92279993E+02</rscale>
<asrwt>0</asrwt>
<pdfrwt beam="1">  1        1 0.17457192E-01 0.92279993E+02</pdfrwt>
<pdfrwt beam="2">  1       -1 0.28863834E-02 0.92279993E+02</pdfrwt>
<totfact> 0.10326930E+05</totfact>
</mgrwt>
</event>
<event>
 7    1  0.2787125E-009  0.9033007E+02  0.7818608E-02  0.1302054E+00
         -1   -1    0    0    0  501 -0.00000000000E+00  0.00000000000E+00  0.86116071064E+01  0.86116085813E+01  0.50400000000E-02 0.  1.
          1   -1    0    0  501    0  0.00000000000E+00 -0.00000000000E+00 -0.23687568253E+03  0.23687568259E+03  0.50400000000E-02 0. -1.
         23    2    1    2    0    0  0.00000000000E+00  0.00000000000E+00 -0.22826407543E+03  0.24548729117E+03  0.90330072482E+02 0.  0.
    9000005    2    3    3    0    0  0.12324314280E+02 -0.18790190965E+02 -0.22011283619E+03  0.22158326013E+03  0.12021668533E+02 0.  0.
         22    1    3    3    0    0 -0.12324314280E+02  0.18790190965E+02 -0.81512392396E+01  0.23904031043E+02  0.00000000000E+00 0.  1.
         22    1    4    4    0    0  0.11825898710E+02 -0.10351276511E+02 -0.10612888628E+03  0.10728625872E+03  0.00000000000E+00 0. -1.
         22    1    4    4    0    0  0.49841556984E+00 -0.84389144540E+01 -0.11398394990E+03  0.11429700141E+03  0.00000000000E+00 0. -1.
<mgrwt>
<rscale>  0 0.90330072E+02</rscale>
<asrwt>0</asrwt>
<pdfrwt beam="2">  1        1 0.36442408E-01 0.90330072E+02</pdfrwt>
<pdfrwt beam="1">  1       -1 0.13248629E-02 0.90330072E+02</pdfrwt>
<totfact> 0.12546487E+05</totfact>
</mgrwt>
</event>
<event>
 7    1  0.3233697E-009  0.9266671E+02  0.7818608E-02  0.1296519E+00
          1   -1    0    0  501    0  0.00000000000E+00  0.00000000000E+00  0.23278519805E+03  0.23278519810E+03  0.50400000000E-02 0. -1.
         -1   -1    0    0    0  501 -0.00000000000E+00 -0.00000000000E+00 -0.92221474924E+01  0.92221488696E+01  0.50400000000E-02 0.  1.
         23    2    1    2    0    0  0.00000000000E+00  0.00000000000E+00  0.22356305055E+03  0.24200734697E+03  0.92666706075E+02 0.  0.
    9000005    2    3    3    0    0 -0.24685143122E+02  0.19622616771E+02  0.19884543095E+03  0.20194035184E+03  0.15684288696E+02 0.  0.
         22    1    3    3    0    0  0.24685143122E+02 -0.19622616771E+02  0.24717619605E+02  0.40066995131E+02  0.00000000000E+00 0.  1.
         22    1    4    4    0    0 -0.24556779842E+02  0.12602637666E+02  0.14152347130E+03  0.14418999563E+03  0.00000000000E+00 0. -1.
         22    1    4    4    0    0 -0.12836327961E+00  0.70199791052E+01  0.57321959652E+02  0.57750356208E+02  0.00000000000E+00 0. -1.
<mgrwt>
<rscale>  0 0.92666706E+02</rscale>
<asrwt>0</asrwt>
<pdfrwt beam="1">  1        1 0.35813105E-01 0.92666706E+02</pdfrwt>
<pdfrwt beam="2">  1       -1 0.14187921E-02 0.92666706E+02</pdfrwt>
<totfact> 0.11677878E+05</totfact>
</mgrwt>
</event>
<event>
 7    1  0.2787125E-009  0.8920504E+02  0.7818608E-02  0.1304788E+00
          1   -1    0    0  501    0  0.00000000000E+00  0.00000000000E+00  0.26920426118E+03  0.26920426122E+03  0.50400000000E-02 0. -1.
         -1   -1    0    0    0  501 -0.00000000000E+00 -0.00000000000E+00 -0.73898697241E+01  0.73898714428E+01  0.50400000000E-02 0.  1.
         23    2    1    2    0    0  0.00000000000E+00  0.00000000000E+00  0.26181439145E+03  0.27659413267E+03  0.89205037156E+02 0.  0.
    9000005    2    3    3    0    0 -0.12278767307E+02 -0.91695343722E+01  0.26074620197E+03  0.26123218240E+03  0.43385240947E+01 0.  0.
         22    1    3    3    0    0  0.12278767307E+02  0.91695343722E+01  0.10681894790E+01  0.15361950265E+02  0.00000000000E+00 0.  1.
         22    1    4    4    0    0 -0.95674024644E+01 -0.69709135097E+01  0.22634252259E+03  0.22665186158E+03  0.00000000000E+00 0.  1.
         22    1    4    4    0    0 -0.27113648430E+01 -0.21986208625E+01  0.34403679387E+02  0.34580320826E+02  0.00000000000E+00 0.  1.
<mgrwt>
<rscale>  0 0.89205037E+02</rscale>
<asrwt>0</asrwt>
<pdfrwt beam="1">  1        1 0.41416047E-01 0.89205037E+02</pdfrwt>
<pdfrwt beam="2">  1       -1 0.11369030E-02 0.89205037E+02</pdfrwt>
<totfact> 0.13299497E+05</totfact>
</mgrwt>
</event>
<event>
 7    1  0.2787125E-009  0.6801492E+02  0.7818608E-02  0.1366977E+00
          1   -1    0    0  501    0  0.00000000000E+00  0.00000000000E+00  0.30033460587E+02  0.30033461010E+02  0.50400000000E-02 0. -1.
         -1   -1    0    0    0  501 -0.00000000000E+00 -0.00000000000E+00 -0.38507291920E+02  0.38507292250E+02  0.50400000000E-02 0.  1.
         23    2    1    2    0    0  0.00000000000E+00  0.00000000000E+00 -0.84738313335E+01  0.68540753260E+02  0.68014917775E+02 0.  0.
    9000005    2    3    3    0    0  0.16885773677E+02  0.20473625493E+02 -0.23021443425E+02  0.38276389544E+02  0.15191986230E+02 0.  0.
         22    1    3    3    0    0 -0.16885773677E+02 -0.20473625493E+02  0.14547612092E+02  0.30264363715E+02  0.00000000000E+00 0. -1.
         22    1    4    4    0    0  0.64082284583E+01  0.69482780567E+01 -0.18188591118E+02  0.20498019582E+02  0.00000000000E+00 0. -1.
         22    1    4    4    0    0  0.10477545219E+02  0.13525347437E+02 -0.48328523079E+01  0.17778369963E+02  0.00000000000E+00 0. -1.
<mgrwt>
<rscale>  0 0.68014918E+02</rscale>
<asrwt>0</asrwt>
<pdfrwt beam="1">  1        1 0.46205325E-02 0.68014918E+02</pdfrwt>
<pdfrwt beam="2">  1       -1 0.59241988E-02 0.68014918E+02</pdfrwt>
<totfact> 0.19656055E+05</totfact>
</mgrwt>
</event>
<event>
 6    1  0.2787125E-009  0.2681819E+03  0.7818608E-02  0.1102325E+00
          1   -1    0    0  501    0  0.00000000000E+00  0.00000000000E+00  0.15959797793E+03  0.15959797801E+03  0.50400000000E-02 0. -1.
         -1   -1    0    0    0  501 -0.00000000000E+00 -0.00000000000E+00 -0.11266048516E+03  0.11266048527E+03  0.50400000000E-02 0.  1.
    9000005    2    1    2    0    0  0.97676975839E+02 -0.67977714499E+02 -0.38943614289E+02  0.12550245548E+03  0.85146907716E+01 0.  0.
         22    1    1    2    0    0 -0.97676975839E+02  0.67977714499E+02  0.85881107056E+02  0.14675600780E+03  0.00000000000E+00 0. -1.
         22    1    3    3    0    0  0.62395419845E+02 -0.45791460275E+02 -0.21537795779E+02  0.80336311210E+02  0.00000000000E+00 0.  1.
         22    1    3    3    0    0  0.35281555993E+02 -0.22186254224E+02 -0.17405818510E+02  0.45166144265E+02  0.00000000000E+00 0.  1.
<mgrwt>
<rscale>  0 0.26818192E+03</rscale>
<asrwt>0</asrwt>
<pdfrwt beam="1">  1        1 0.24553535E-01 0.26818192E+03</pdfrwt>
<pdfrwt beam="2">  1       -1 0.17332382E-01 0.26818192E+03</pdfrwt>
<totfact> 0.49456928E+03</totfact>
</mgrwt>
</event>
<event>
 7    1  0.2787125E-009  0.9377086E+02  0.7818608E-02  0.1293969E+00
         -1   -1    0    0    0  501 -0.00000000000E+00  0.00000000000E+00  0.13659783001E+02  0.13659783931E+02  0.50400000000E-02 0.  1.
          1   -1    0    0  501    0  0.00000000000E+00 -0.00000000000E+00 -0.16092813562E+03  0.16092813570E+03  0.50400000000E-02 0. -1.
         23    2    1    2    0    0  0.00000000000E+00  0.00000000000E+00 -0.14726835262E+03  0.17458791963E+03  0.93770858998E+02 0.  0.
    9000005    2    3    3    0    0  0.41951754359E+02 -0.18520431567E+02 -0.72394661809E+02  0.86786862376E+02  0.13711905172E+02 0.  0.
         22    1    3    3    0    0 -0.41951754359E+02  0.18520431567E+02 -0.74873690807E+02  0.87801057250E+02  0.00000000000E+00 0. -1.
         22    1    4    4    0    0  0.19581246066E+01 -0.48668474746E+01 -0.11773784698E+02  0.12889626156E+02  0.00000000000E+00 0. -1.
         22    1    4    4    0    0  0.39993629752E+02 -0.13653584092E+02 -0.60620877111E+02  0.73897236220E+02  0.00000000000E+00 0. -1.
<mgrwt>
<rscale>  0 0.93770859E+02</rscale>
<asrwt>0</asrwt>
<pdfrwt beam="2">  1        1 0.24758173E-01 0.93770859E+02</pdfrwt>
<pdfrwt beam="1">  1       -1 0.21015053E-02 0.93770859E+02</pdfrwt>
<totfact> 0.10531534E+05</totfact>
</mgrwt>
</event>
<event>
 7    1  0.2787125E-009  0.9582263E+02  0.7818608E-02  0.1289334E+00
          1   -1    0    0  501    0  0.00000000000E+00  0.00000000000E+00  0.59664554996E+03  0.59664554998E+03  0.50400000000E-02 0. -1.
         -1   -1    0    0    0  501 -0.00000000000E+00 -0.00000000000E+00 -0.38473309299E+01  0.38473342311E+01  0.50400000000E-02 0.  1.
         23    2    1    2    0    0  0.00000000000E+00 -0.88817841970E-15  0.59279821903E+03  0.60049288421E+03  0.95822625223E+02 0.  0.
    9000005    2    3    3    0    0 -0.38915265487E+02  0.66426333698E+01  0.46483628836E+03  0.46657956087E+03  0.80739820225E+01 0.  0.
         22    1    3    3    0    0  0.38915265487E+02 -0.66426333698E+01  0.12796193067E+03  0.13391332334E+03  0.00000000000E+00 0.  1.
         22    1    4    4    0    0 -0.25135776019E+02  0.45701925454E+01  0.34269786620E+03  0.34364883441E+03  0.00000000000E+00 0.  1.
         22    1    4    4    0    0 -0.13779489468E+02  0.20724408243E+01  0.12213842216E+03  0.12293072646E+03  0.00000000000E+00 0.  1.
<mgrwt>
<rscale>  0 0.95822625E+02</rscale>
<asrwt>0</asrwt>
<pdfrwt beam="1">  1        1 0.91791643E-01 0.95822625E+02</pdfrwt>
<pdfrwt beam="2">  1       -1 0.59189719E-03 0.95822625E+02</pdfrwt>
<totfact> 0.12405008E+05</totfact>
</mgrwt>
</event>
<event>
 7    1  0.2787125E-009  0.9158016E+02  0.7818608E-02  0.1299070E+00
          1   -1    0    0  501    0  0.00000000000E+00  0.00000000000E+00  0.51241303882E+03  0.51241303884E+03  0.50400000000E-02 0. -1.
         -1   -1    0    0    0  501 -0.00000000000E+00 -0.00000000000E+00 -0.40918756135E+01  0.40918787174E+01  0.50400000000E-02 0.  1.
         23    2    1    2    0    0  0.00000000000E+00  0.00000000000E+00  0.50832116321E+03  0.51650491756E+03  0.91580155614E+02 0.  0.
    9000005    2    3    3    0    0 -0.26360391055E+01  0.16670418191E+02  0.49394534071E+03  0.49433476156E+03  0.10000266462E+02 0.  0.
         22    1    3    3    0    0  0.26360391055E+01 -0.16670418191E+02  0.14375822495E+02  0.22170156004E+02  0.00000000000E+00 0.  1.
         22    1    4    4    0    0 -0.50200286709E+01  0.15352803368E+02  0.45870409214E+03  0.45898840225E+03  0.00000000000E+00 0. -1.
         22    1    4    4    0    0  0.23839895653E+01  0.13176148230E+01  0.35241248573E+02  0.35346359304E+02  0.00000000000E+00 0. -1.
<mgrwt>
<rscale>  0 0.91580156E+02</rscale>
<asrwt>0</asrwt>
<pdfrwt beam="1">  1        1 0.78832825E-01 0.91580156E+02</pdfrwt>
<pdfrwt beam="2">  1       -1 0.62951917E-03 0.91580156E+02</pdfrwt>
<totfact> 0.13803297E+05</totfact>
</mgrwt>
</event>
<event>
 7    1  0.2787125E-009  0.9139580E+02  0.7818608E-02  0.1299506E+00
          1   -1    0    0  501    0  0.00000000000E+00  0.00000000000E+00  0.17930038055E+04  0.17930038055E+04  0.50400000000E-02 0. -1.
         -1   -1    0    0    0  501 -0.00000000000E+00 -0.00000000000E+00 -0.11646871216E+01  0.11646980265E+01  0.50400000000E-02 0.  1.
         23    2    1    2    0    0 -0.35527136788E-14  0.00000000000E+00  0.17918391184E+04  0.17941685035E+04  0.91395803629E+02 0.  0.
    9000005    2    3    3    0    0  0.18733055410E+02 -0.16804602621E+02  0.16432437724E+04  0.16434571938E+04  0.82541080526E+01 0.  0.
         22    1    3    3    0    0 -0.18733055410E+02  0.16804602621E+02  0.14859534603E+03  0.15071130979E+03  0.00000000000E+00 0.  1.
         22    1    4    4    0    0  0.17895148160E+02 -0.12606810241E+02  0.12671164070E+04  0.12673054710E+04  0.00000000000E+00 0.  1.
         22    1    4    4    0    0  0.83790725063E+00 -0.41977923804E+01  0.37612736538E+03  0.37615172277E+03  0.00000000000E+00 0.  1.
<mgrwt>
<rscale>  0 0.91395804E+02</rscale>
<asrwt>0</asrwt>
<pdfrwt beam="1">  1        1 0.27584754E+00 0.91395804E+02</pdfrwt>
<pdfrwt beam="2">  1       -1 0.17918296E-03 0.91395804E+02</pdfrwt>
<totfact> 0.91825922E+04</totfact>
</mgrwt>
</event>
<event>
 7    1  0.2787125E-009  0.9250078E+02  0.7818608E-02  0.1296906E+00
          1   -1    0    0  501    0  0.00000000000E+00  0.00000000000E+00  0.10273542119E+03  0.10273542132E+03  0.50400000000E-02 0. -1.
         -1   -1    0    0    0  501 -0.00000000000E+00 -0.00000000000E+00 -0.20821429884E+02  0.20821430494E+02  0.50400000000E-02 0.  1.
         23    2    1    2    0    0  0.00000000000E+00  0.00000000000E+00  0.81913991308E+02  0.12355685181E+03  0.92500776521E+02 0.  0.
    9000005    2    3    3    0    0  0.20071297739E+02  0.35796698242E+02  0.69233432865E+02  0.80602723249E+02  0.43897802875E+01 0.  0.
         22    1    3    3    0    0 -0.20071297739E+02 -0.35796698242E+02  0.12680558443E+02  0.42954128560E+02  0.00000000000E+00 0.  1.
         22    1    4    4    0    0  0.24098406283E+00  0.21378238638E+01  0.27564416639E+01  0.34966176282E+01  0.00000000000E+00 0.  1.
         22    1    4    4    0    0  0.19830313676E+02  0.33658874378E+02  0.66476991201E+02  0.77106105621E+02  0.00000000000E+00 0.  1.
<mgrwt>
<rscale>  0 0.92500777E+02</rscale>
<asrwt>0</asrwt>
<pdfrwt beam="1">  1        1 0.15805449E-01 0.92500777E+02</pdfrwt>
<pdfrwt beam="2">  1       -1 0.32032970E-02 0.92500777E+02</pdfrwt>
<totfact> 0.10087530E+05</totfact>
</mgrwt>
</event>
<event>
 7    1  0.2787125E-009  0.8709426E+02  0.7818608E-02  0.1310045E+00
          1   -1    0    0  501    0  0.00000000000E+00  0.00000000000E+00  0.14100240526E+02  0.14100241427E+02  0.50400000000E-02 0. -1.
         -1   -1    0    0    0  501 -0.00000000000E+00 -0.00000000000E+00 -0.13449080002E+03  0.13449080011E+03  0.50400000000E-02 0.  1.
         23    2    1    2    0    0  0.71054273576E-14 -0.35527136788E-14 -0.12039055949E+03  0.14859104154E+03  0.87094263937E+02 0.  0.
    9000005    2    3    3    0    0 -0.39944242632E+02 -0.17176565376E+02 -0.60033764183E+02  0.74203410459E+02  0.33935769007E+01 0.  0.
         22    1    3    3    0    0  0.39944242632E+02  0.17176565376E+02 -0.60356795306E+02  0.74387631077E+02  0.00000000000E+00 0. -1.
         22    1    4    4    0    0 -0.15974259878E+00  0.14882155261E+00 -0.26035168840E+00  0.33977721236E+00  0.00000000000E+00 0.  1.
         22    1    4    4    0    0 -0.39784500034E+02 -0.17325386929E+02 -0.59773412495E+02  0.73863633247E+02  0.00000000000E+00 0.  1.
<mgrwt>
<rscale>  0 0.87094264E+02</rscale>
<asrwt>0</asrwt>
<pdfrwt beam="1">  1        1 0.21692679E-02 0.87094264E+02</pdfrwt>
<pdfrwt beam="2">  1       -1 0.20690892E-01 0.87094264E+02</pdfrwt>
<totfact> 0.86299691E+04</totfact>
</mgrwt>
</event>
<event>
 7    1  0.2787125E-009  0.9456966E+02  0.7818608E-02  0.1292148E+00
         -1   -1    0    0    0  501 -0.00000000000E+00  0.00000000000E+00  0.42532577304E+01  0.42532607166E+01  0.50400000000E-02 0.  1.
          1   -1    0    0  501    0  0.00000000000E+00 -0.00000000000E+00 -0.52568040757E+03  0.52568040759E+03  0.50400000000E-02 0. -1.
         23    2    1    2    0    0  0.00000000000E+00  0.00000000000E+00 -0.52142714984E+03  0.52993366831E+03  0.94569658028E+02 0.  0.
    9000005    2    3    3    0    0  0.37494738841E+01  0.16870154978E+02 -0.50727677546E+03  0.50759773809E+03  0.52034718259E+01 0.  0.
         22    1    3    3    0    0 -0.37494738841E+01 -0.16870154978E+02 -0.14150374384E+02  0.22335930216E+02  0.00000000000E+00 0.  1.
         22    1    4    4    0    0  0.39585833688E+01  0.83230626885E+01 -0.21820111008E+03  0.21839566890E+03  0.00000000000E+00 0. -1.
         22    1    4    4    0    0 -0.20910948471E+00  0.85470922897E+01 -0.28907566537E+03  0.28920206919E+03  0.00000000000E+00 0. -1.
<mgrwt>
<rscale>  0 0.94569658E+02</rscale>
<asrwt>0</asrwt>
<pdfrwt beam="2">  1        1 0.80873858E-01 0.94569658E+02</pdfrwt>
<pdfrwt beam="1">  1       -1 0.65434799E-03 0.94569658E+02</pdfrwt>
<totfact> 0.12709880E+05</totfact>
</mgrwt>
</event>
<event>
 7    1  0.2787125E-009  0.9222035E+02  0.7818608E-02  0.1297562E+00
         -1   -1    0    0    0  501 -0.00000000000E+00  0.00000000000E+00  0.83273170480E+02  0.83273170633E+02  0.50400000000E-02 0.  1.
          1   -1    0    0  501    0  0.00000000000E+00 -0.00000000000E+00 -0.25532210217E+02  0.25532210715E+02  0.50400000000E-02 0. -1.
         23    2    1    2    0    0  0.00000000000E+00  0.00000000000E+00  0.57740960263E+02  0.10880538135E+03  0.92220347636E+02 0.  0.
    9000005    2    3    3    0    0 -0.23456178451E+02  0.16664844978E+02 -0.12066309190E+02  0.33300651468E+02  0.11637362462E+02 0.  0.
         22    1    3    3    0    0  0.23456178451E+02 -0.16664844978E+02  0.69807269453E+02  0.75504729879E+02  0.00000000000E+00 0.  1.
         22    1    4    4    0    0 -0.10260243927E+02  0.69112268051E+01  0.87572971191E+00  0.12401796802E+02  0.00000000000E+00 0.  1.
         22    1    4    4    0    0 -0.13195934525E+02  0.97536181730E+01 -0.12942038902E+02  0.20898854667E+02  0.00000000000E+00 0.  1.
<mgrwt>
<rscale>  0 0.92220348E+02</rscale>
<asrwt>0</asrwt>
<pdfrwt beam="2">  1        1 0.39280324E-02 0.92220348E+02</pdfrwt>
<pdfrwt beam="1">  1       -1 0.12811257E-01 0.92220348E+02</pdfrwt>
<totfact> 0.81655000E+04</totfact>
</mgrwt>
</event>
<event>
 7    1  0.2787125E-009  0.8966279E+02  0.7818608E-02  0.1303670E+00
          1   -1    0    0  501    0  0.00000000000E+00  0.00000000000E+00  0.57093805425E+02  0.57093805647E+02  0.50400000000E-02 0. -1.
         -1   -1    0    0    0  501 -0.00000000000E+00 -0.00000000000E+00 -0.35202665619E+02  0.35202665980E+02  0.50400000000E-02 0.  1.
         23    2    1    2    0    0  0.00000000000E+00  0.00000000000E+00  0.21891139806E+02  0.92296471627E+02  0.89662794250E+02 0.  0.
    9000005    2    3    3    0    0 -0.22656159125E+02  0.28260960265E+01 -0.27786469363E+02  0.37623322662E+02  0.11051613609E+02 0.  0.
         22    1    3    3    0    0  0.22656159125E+02 -0.28260960265E+01  0.49677609169E+02  0.54673148965E+02  0.00000000000E+00 0. -1.
         22    1    4    4    0    0  0.12110002918E+01 -0.40408915128E+00 -0.12487547104E+01  0.17858326001E+01  0.00000000000E+00 0.  1.
         22    1    4    4    0    0 -0.23867159417E+02  0.32301851778E+01 -0.26537714653E+02  0.35837490062E+02  0.00000000000E+00 0.  1.
<mgrwt>
<rscale>  0 0.89662794E+02</rscale>
<asrwt>0</asrwt>
<pdfrwt beam="1">  1        1 0.87836624E-02 0.89662794E+02</pdfrwt>
<pdfrwt beam="2">  1       -1 0.54157948E-02 0.89662794E+02</pdfrwt>
<totfact> 0.10019847E+05</totfact>
</mgrwt>
</event>
<event>
 7    1  0.2787125E-009  0.9048381E+02  0.7818608E-02  0.1301684E+00
         -1   -1    0    0    0  501 -0.00000000000E+00  0.00000000000E+00  0.39248130899E+02  0.39248131223E+02  0.50400000000E-02 0.  1.
          1   -1    0    0  501    0  0.00000000000E+00 -0.00000000000E+00 -0.52151017764E+02  0.52151018008E+02  0.50400000000E-02 0. -1.
         23    2    1    2    0    0  0.00000000000E+00 -0.35527136788E-14 -0.12902886865E+02  0.91399149231E+02  0.90483810655E+02 0.  0.
    9000005    2    3    3    0    0  0.34090464809E+01 -0.20701227889E+02  0.33473185814E+02  0.40498240092E+02  0.89157640137E+01 0.  0.
         22    1    3    3    0    0 -0.34090464809E+01  0.20701227889E+02 -0.46376072679E+02  0.50900909139E+02  0.00000000000E+00 0. -1.
         22    1    4    4    0    0  0.61403729691E+01 -0.11659604577E+02  0.21913124676E+02  0.25570209076E+02  0.00000000000E+00 0. -1.
         22    1    4    4    0    0 -0.27313264882E+01 -0.90416233124E+01  0.11560061138E+02  0.14928031016E+02  0.00000000000E+00 0. -1.
<mgrwt>
<rscale>  0 0.90483811E+02</rscale>
<asrwt>0</asrwt>
<pdfrwt beam="2">  1        1 0.80232335E-02 0.90483811E+02</pdfrwt>
<pdfrwt beam="1">  1       -1 0.60381740E-02 0.90483811E+02</pdfrwt>
<totfact> 0.96386201E+04</totfact>
</mgrwt>
</event>
<event>
 7    1  0.4185256E-009  0.9234896E+02  0.7818608E-02  0.1297261E+00
         -1   -1    0    0    0  501 -0.00000000000E+00  0.00000000000E+00  0.60579056142E+01  0.60579077108E+01  0.50400000000E-02 0.  1.
          1   -1    0    0  501    0  0.00000000000E+00 -0.00000000000E+00 -0.35195041665E+03  0.35195041669E+03  0.50400000000E-02 0. -1.
         23    2    1    2    0    0  0.00000000000E+00  0.00000000000E+00 -0.34589251104E+03  0.35800832440E+03  0.92348963973E+02 0.  0.
    9000005    2    3    3    0    0 -0.27036070960E+01  0.21922275252E+02 -0.32930685154E+03  0.33038623641E+03  0.14972210921E+02 0.  0.
         22    1    3    3    0    0  0.27036070960E+01 -0.21922275252E+02 -0.16585659504E+02  0.27622087986E+02  0.00000000000E+00 0.  1.
         22    1    4    4    0    0  0.40231500784E+01  0.12823335990E+02 -0.11533564978E+03  0.11611604451E+03  0.00000000000E+00 0.  1.
         22    1    4    4    0    0 -0.67267571744E+01  0.90989392617E+01 -0.21397120175E+03  0.21427019190E+03  0.00000000000E+00 0.  1.
<mgrwt>
<rscale>  0 0.92348964E+02</rscale>
<asrwt>0</asrwt>
<pdfrwt beam="2">  1        1 0.54146202E-01 0.92348964E+02</pdfrwt>
<pdfrwt beam="1">  1       -1 0.93198591E-03 0.92348964E+02</pdfrwt>
<totfact> 0.12755114E+05</totfact>
</mgrwt>
</event>
<event>
 7    1  0.2874967E-009  0.9251024E+02  0.7818608E-02  0.1296884E+00
         -1   -1    0    0    0  501 -0.00000000000E+00  0.00000000000E+00  0.14426025753E+03  0.14426025762E+03  0.50400000000E-02 0.  1.
          1   -1    0    0  501    0  0.00000000000E+00 -0.00000000000E+00 -0.14831083309E+02  0.14831084165E+02  0.50400000000E-02 0. -1.
         23    2    1    2    0    0  0.00000000000E+00 -0.44408920985E-15  0.12942917422E+03  0.15909134178E+03  0.92510236682E+02 0.  0.
    9000005    2    3    3    0    0 -0.12896582649E+02 -0.31902504364E+01  0.14061683517E+03  0.14172288476E+03  0.11652561500E+02 0.  0.
         22    1    3    3    0    0  0.12896582649E+02  0.31902504364E+01 -0.11187660949E+02  0.17368457024E+02  0.00000000000E+00 0. -1.
         22    1    4    4    0    0 -0.77592805572E+01 -0.73323768086E+01  0.10068984181E+03  0.10125420697E+03  0.00000000000E+00 0.  1.
         22    1    4    4    0    0 -0.51373020918E+01  0.41421263722E+01  0.39926993359E+02  0.40468677794E+02  0.00000000000E+00 0.  1.
<mgrwt>
<rscale>  0 0.92510237E+02</rscale>
<asrwt>0</asrwt>
<pdfrwt beam="2">  1        1 0.22817052E-02 0.92510237E+02</pdfrwt>
<pdfrwt beam="1">  1       -1 0.22193885E-01 0.92510237E+02</pdfrwt>
<totfact> 0.72673776E+04</totfact>
</mgrwt>
</event>
<event>
 7    1  0.2787125E-009  0.8548105E+02  0.7818608E-02  0.1314179E+00
          1   -1    0    0  501    0  0.00000000000E+00  0.00000000000E+00  0.61723485105E+01  0.61723505682E+01  0.50400000000E-02 0. -1.
         -1   -1    0    0    0  501 -0.00000000000E+00 -0.00000000000E+00 -0.29595739128E+03  0.29595739132E+03  0.50400000000E-02 0.  1.
         23    2    1    2    0    0  0.00000000000E+00  0.00000000000E+00 -0.28978504277E+03  0.30212974189E+03  0.85481050077E+02 0.  0.
    9000005    2    3    3    0    0  0.56392990822E+01 -0.41874080468E+02 -0.13115546901E+03  0.13796950925E+03  0.69705181052E+01 0.  0.
         22    1    3    3    0    0 -0.56392990822E+01  0.41874080468E+02 -0.15862957376E+03  0.16416023264E+03  0.00000000000E+00 0.  1.
         22    1    4    4    0    0 -0.54627771330E-01 -0.13546469366E+02 -0.33696937329E+02  0.36317948756E+02  0.00000000000E+00 0.  1.
         22    1    4    4    0    0  0.56939268535E+01 -0.28327611102E+02 -0.97458531679E+02  0.10165156049E+03  0.00000000000E+00 0.  1.
<mgrwt>
<rscale>  0 0.85481050E+02</rscale>
<asrwt>0</asrwt>
<pdfrwt beam="1">  1        1 0.94959247E-03 0.85481050E+02</pdfrwt>
<pdfrwt beam="2">  1       -1 0.45531895E-01 0.85481050E+02</pdfrwt>
<totfact> 0.72067206E+04</totfact>
</mgrwt>
</event>
<event>
 7    1  0.2787125E-009  0.9293925E+02  0.7818608E-02  0.1295886E+00
         -1   -1    0    0    0  501 -0.00000000000E+00  0.00000000000E+00  0.62403436362E+01  0.62403456714E+01  0.50400000000E-02 0.  1.
          1   -1    0    0  501    0  0.00000000000E+00 -0.00000000000E+00 -0.34604273640E+03  0.34604273643E+03  0.50400000000E-02 0. -1.
         23    2    1    2    0    0  0.00000000000E+00  0.00000000000E+00 -0.33980239276E+03  0.35228308211E+03  0.92939247961E+02 0.  0.
    9000005    2    3    3    0    0 -0.44738789696E+02  0.30560638388E+01 -0.19786741200E+03  0.20343269549E+03  0.14914759009E+02 0.  0.
         22    1    3    3    0    0  0.44738789696E+02 -0.30560638388E+01 -0.14193498076E+03  0.14885038661E+03  0.00000000000E+00 0.  1.
         22    1    4    4    0    0 -0.27985282543E+02  0.82535730824E+00 -0.90151882902E+02  0.94399254469E+02  0.00000000000E+00 0.  1.
         22    1    4    4    0    0 -0.16753507153E+02  0.22307065305E+01 -0.10771552909E+03  0.10903344102E+03  0.00000000000E+00 0.  1.
<mgrwt>
<rscale>  0 0.92939248E+02</rscale>
<asrwt>0</asrwt>
<pdfrwt beam="2">  1        1 0.53237329E-01 0.92939248E+02</pdfrwt>
<pdfrwt beam="1">  1       -1 0.96005330E-03 0.92939248E+02</pdfrwt>
<totfact> 0.12502334E+05</totfact>
</mgrwt>
</event>
<event>
 7    1  0.2787125E-009  0.9749410E+02  0.7818608E-02  0.1285656E+00
         -1   -1    0    0    0  501 -0.00000000000E+00  0.00000000000E+00  0.13837131140E+03  0.13837131149E+03  0.50400000000E-02 0.  1.
          1   -1    0    0  501    0  0.00000000000E+00 -0.00000000000E+00 -0.17173174502E+02  0.17173175242E+02  0.50400000000E-02 0. -1.
         23    2    1    2    0    0  0.00000000000E+00 -0.35527136788E-14  0.12119813689E+03  0.15554448673E+03  0.97494097081E+02 0.  0.
    9000005    2    3    3    0    0 -0.21505833123E+02  0.21895203776E+02  0.12030253299E+03  0.12484101929E+03  0.13064449692E+02 0.  0.
         22    1    3    3    0    0  0.21505833123E+02 -0.21895203776E+02  0.89560390298E+00  0.30703467444E+02  0.00000000000E+00 0. -1.
         22    1    4    4    0    0 -0.21404684510E+02  0.16111323728E+02  0.10757086735E+03  0.11085678497E+03  0.00000000000E+00 0.  1.
         22    1    4    4    0    0 -0.10114861263E+00  0.57838800481E+01  0.12731665641E+02  0.13984234318E+02  0.00000000000E+00 0.  1.
<mgrwt>
<rscale>  0 0.97494097E+02</rscale>
<asrwt>0</asrwt>
<pdfrwt beam="2">  1        1 0.26420269E-02 0.97494097E+02</pdfrwt>
<pdfrwt beam="1">  1       -1 0.21287895E-01 0.97494097E+02</pdfrwt>
<totfact> 0.64011331E+04</totfact>
</mgrwt>
</event>
<event>
 7    1  0.2787125E-009  0.7445221E+02  0.7818608E-02  0.1345576E+00
          1   -1    0    0  501    0  0.00000000000E+00  0.00000000000E+00  0.23228762998E+02  0.23228763544E+02  0.50400000000E-02 0. -1.
         -1   -1    0    0    0  501 -0.00000000000E+00 -0.00000000000E+00 -0.59658060224E+02  0.59658060437E+02  0.50400000000E-02 0.  1.
         23    2    1    2    0    0  0.00000000000E+00  0.00000000000E+00 -0.36429297227E+02  0.82886823982E+02  0.74452212145E+02 0.  0.
    9000005    2    3    3    0    0  0.12252622878E+02 -0.28127090623E+02  0.17850910592E+01  0.33880707360E+02  0.14263792863E+02 0.  0.
         22    1    3    3    0    0 -0.12252622878E+02  0.28127090623E+02 -0.38214388286E+02  0.49006116622E+02  0.00000000000E+00 0.  1.
         22    1    4    4    0    0  0.12538879190E+02 -0.15143149147E+02 -0.32961417118E+01  0.19934969467E+02  0.00000000000E+00 0. -1.
         22    1    4    4    0    0 -0.28625631260E+00 -0.12983941475E+02  0.50812327710E+01  0.13945737893E+02  0.00000000000E+00 0. -1.
<mgrwt>
<rscale>  0 0.74452212E+02</rscale>
<asrwt>0</asrwt>
<pdfrwt beam="1">  1        1 0.35736559E-02 0.74452212E+02</pdfrwt>
<pdfrwt beam="2">  1       -1 0.91781631E-02 0.74452212E+02</pdfrwt>
<totfact> 0.14821015E+05</totfact>
</mgrwt>
</event>
<event>
 7    1  0.2787125E-009  0.1012386E+03  0.7818608E-02  0.1277713E+00
          1   -1    0    0  501    0  0.00000000000E+00  0.00000000000E+00  0.20665348770E+03  0.20665348777E+03  0.50400000000E-02 0. -1.
         -1   -1    0    0    0  501 -0.00000000000E+00 -0.00000000000E+00 -0.12399070899E+02  0.12399071923E+02  0.50400000000E-02 0.  1.
         23    2    1    2    0    0  0.00000000000E+00  0.17763568394E-14  0.19425441680E+03  0.21905255969E+03  0.10123855717E+03 0.  0.
    9000005    2    3    3    0    0 -0.31581897493E+02 -0.12147112636E+02  0.21422762878E+02  0.42939672046E+02  0.15489095243E+02 0.  0.
         22    1    3    3    0    0  0.31581897493E+02  0.12147112636E+02  0.17283165393E+03  0.17611288764E+03  0.00000000000E+00 0. -1.
         22    1    4    4    0    0 -0.20705077860E+02 -0.13257900251E+02  0.85036916086E+01  0.26015090606E+02  0.00000000000E+00 0. -1.
         22    1    4    4    0    0 -0.10876819633E+02  0.11107876151E+01  0.12919071270E+02  0.16924581441E+02  0.00000000000E+00 0. -1.
<mgrwt>
<rscale>  0 0.10123856E+03</rscale>
<asrwt>0</asrwt>
<pdfrwt beam="1">  1        1 0.31792842E-01 0.10123856E+03</pdfrwt>
<pdfrwt beam="2">  1       -1 0.19075496E-02 0.10123856E+03</pdfrwt>
<totfact> 0.89850236E+04</totfact>
</mgrwt>
</event>
<event>
 7    1  0.2787125E-009  0.9221614E+02  0.7818608E-02  0.1297572E+00
         -1   -1    0    0    0  501 -0.00000000000E+00  0.00000000000E+00  0.88718616092E+02  0.88718616235E+02  0.50400000000E-02 0.  1.
          1   -1    0    0  501    0  0.00000000000E+00 -0.00000000000E+00 -0.23962886780E+02  0.23962887310E+02  0.50400000000E-02 0. -1.
         23    2    1    2    0    0  0.00000000000E+00  0.00000000000E+00  0.64755729312E+02  0.11268150355E+03  0.92216141550E+02 0.  0.
    9000005    2    3    3    0    0  0.35099391975E+02 -0.61245355172E+01  0.67592266397E+02  0.76939047069E+02  0.90235932318E+01 0.  0.
         22    1    3    3    0    0 -0.35099391975E+02  0.61245355172E+01 -0.28365370850E+01  0.35742456476E+02  0.00000000000E+00 0. -1.
         22    1    4    4    0    0  0.11535752228E+02 -0.35158848927E+00  0.14238137269E+02  0.18328168126E+02  0.00000000000E+00 0. -1.
         22    1    4    4    0    0  0.23563639747E+02 -0.57729470279E+01  0.53354129128E+02  0.58610878943E+02  0.00000000000E+00 0. -1.
<mgrwt>
<rscale>  0 0.92216142E+02</rscale>
<asrwt>0</asrwt>
<pdfrwt beam="2">  1        1 0.36865981E-02 0.92216142E+02</pdfrwt>
<pdfrwt beam="1">  1       -1 0.13649018E-01 0.92216142E+02</pdfrwt>
<totfact> 0.80765144E+04</totfact>
</mgrwt>
</event>
<event>
 7    1  0.2787125E-009  0.9431022E+02  0.7818608E-02  0.1292737E+00
          1   -1    0    0  501    0  0.00000000000E+00  0.00000000000E+00  0.26808474324E+02  0.26808474798E+02  0.50400000000E-02 0. -1.
         -1   -1    0    0    0  501 -0.00000000000E+00 -0.00000000000E+00 -0.82944083293E+02  0.82944083447E+02  0.50400000000E-02 0.  1.
         23    2    1    2    0    0  0.00000000000E+00  0.35527136788E-14 -0.56135608969E+02  0.10975255824E+03  0.94310219206E+02 0.  0.
    9000005    2    3    3    0    0  0.10113560259E+02 -0.21224834105E+02  0.18297216718E+02  0.31694738496E+02  0.10816220449E+02 0.  0.
         22    1    3    3    0    0 -0.10113560259E+02  0.21224834105E+02 -0.74432825688E+02  0.78057819748E+02  0.00000000000E+00 0.  1.
         22    1    4    4    0    0  0.10597491114E+02 -0.20947073307E+02  0.19403151097E+02  0.30456016985E+02  0.00000000000E+00 0. -1.
         22    1    4    4    0    0 -0.48393085498E+00 -0.27776079793E+00 -0.11059343789E+01  0.12387215118E+01  0.00000000000E+00 0. -1.
<mgrwt>
<rscale>  0 0.94310219E+02</rscale>
<asrwt>0</asrwt>
<pdfrwt beam="1">  1        1 0.41243808E-02 0.94310219E+02</pdfrwt>
<pdfrwt beam="2">  1       -1 0.12760628E-01 0.94310219E+02</pdfrwt>
<totfact> 0.77144762E+04</totfact>
</mgrwt>
</event>
<event>
 7    1  0.2787125E-009  0.9795185E+02  0.7818608E-02  0.1284663E+00
          1   -1    0    0  501    0  0.00000000000E+00  0.00000000000E+00  0.86278310234E+03  0.86278310235E+03  0.50400000000E-02 0. -1.
         -1   -1    0    0    0  501 -0.00000000000E+00 -0.00000000000E+00 -0.27801183028E+01  0.27801228713E+01  0.50400000000E-02 0.  1.
         23    2    1    2    0    0  0.00000000000E+00  0.35527136788E-14  0.86000298404E+03  0.86556322523E+03  0.97951846898E+02 0.  0.
    9000005    2    3    3    0    0 -0.94538917795E+01  0.22181261093E+02  0.80660855754E+03  0.80697697091E+03  0.36169150009E+01 0.  0.
         22    1    3    3    0    0  0.94538917795E+01 -0.22181261093E+02  0.53394426498E+02  0.58586254313E+02  0.00000000000E+00 0.  1.
         22    1    4    4    0    0 -0.45185785208E+01  0.14972863925E+02  0.50901913345E+03  0.50925934692E+03  0.00000000000E+00 0. -1.
         22    1    4    4    0    0 -0.49353132588E+01  0.72083971681E+01  0.29758942409E+03  0.29771762399E+03  0.00000000000E+00 0. -1.
<mgrwt>
<rscale>  0 0.97951847E+02</rscale>
<asrwt>0</asrwt>
<pdfrwt beam="1">  1        1 0.13273590E+00 0.97951847E+02</pdfrwt>
<pdfrwt beam="2">  1       -1 0.42771074E-03 0.97951847E+02</pdfrwt>
<totfact> 0.11583994E+05</totfact>
</mgrwt>
</event>
<event>
 7    1  0.2787125E-009  0.9186642E+02  0.7818608E-02  0.1298394E+00
          1   -1    0    0  501    0  0.00000000000E+00  0.00000000000E+00  0.24612293970E+01  0.24612345574E+01  0.50400000000E-02 0. -1.
         -1   -1    0    0    0  501 -0.00000000000E+00 -0.00000000000E+00 -0.85723728030E+03  0.85723728031E+03  0.50400000000E-02 0.  1.
         23    2    1    2    0    0  0.00000000000E+00  0.00000000000E+00 -0.85477605090E+03  0.85969851487E+03  0.91866420830E+02 0.  0.
    9000005    2    3    3    0    0  0.24166462988E+02  0.27468375387E+02 -0.68059967778E+03  0.68172116088E+03  0.13758278150E+02 0.  0.
         22    1    3    3    0    0 -0.24166462988E+02 -0.27468375387E+02 -0.17417637312E+03  0.17797735399E+03  0.00000000000E+00 0. -1.
         22    1    4    4    0    0  0.10993797021E+02  0.16246836217E+02 -0.24761991796E+03  0.24839574680E+03  0.00000000000E+00 0.  1.
         22    1    4    4    0    0  0.13172665967E+02  0.11221539170E+02 -0.43297975982E+03  0.43332541408E+03  0.00000000000E+00 0.  1.
<mgrwt>
<rscale>  0 0.91866421E+02</rscale>
<asrwt>0</asrwt>
<pdfrwt beam="1">  1        1 0.37865176E-03 0.91866421E+02</pdfrwt>
<pdfrwt beam="2">  1       -1 0.13188242E+00 0.91866421E+02</pdfrwt>
<totfact> 0.29874056E+04</totfact>
</mgrwt>
</event>
<event>
 7    1  0.2787125E-009  0.9114258E+02  0.7818608E-02  0.1300108E+00
          1   -1    0    0  501    0  0.00000000000E+00  0.00000000000E+00  0.62706223805E+02  0.62706224007E+02  0.50400000000E-02 0. -1.
         -1   -1    0    0    0  501 -0.00000000000E+00 -0.00000000000E+00 -0.33118604648E+02  0.33118605032E+02  0.50400000000E-02 0.  1.
         23    2    1    2    0    0 -0.17763568394E-14  0.71054273576E-14  0.29587619157E+02  0.95824829039E+02  0.91142584191E+02 0.  0.
    9000005    2    3    3    0    0 -0.15403754403E+02  0.34762379138E+02 -0.10846403724E+02  0.40321596166E+02  0.79049345774E+01 0.  0.
         22    1    3    3    0    0  0.15403754403E+02 -0.34762379138E+02  0.40434022880E+02  0.55503232872E+02  0.00000000000E+00 0. -1.
         22    1    4    4    0    0 -0.11671450873E+02  0.24932419032E+02 -0.41101270489E+01  0.27834177348E+02  0.00000000000E+00 0. -1.
         22    1    4    4    0    0 -0.37323035297E+01  0.98299601053E+01 -0.67362766747E+01  0.12487418818E+02  0.00000000000E+00 0. -1.
<mgrwt>
<rscale>  0 0.91142584E+02</rscale>
<asrwt>0</asrwt>
<pdfrwt beam="1">  1        1 0.96471114E-02 0.91142584E+02</pdfrwt>
<pdfrwt beam="2">  1       -1 0.50951700E-02 0.91142584E+02</pdfrwt>
<totfact> 0.97119432E+04</totfact>
</mgrwt>
</event>
<event>
 7    1  0.2787125E-009  0.9228570E+02  0.7818608E-02  0.1297409E+00
          1   -1    0    0  501    0  0.00000000000E+00  0.00000000000E+00  0.56802203693E+01  0.56802226053E+01  0.50400000000E-02 0. -1.
         -1   -1    0    0    0  501 -0.00000000000E+00 -0.00000000000E+00 -0.37483793932E+03  0.37483793936E+03  0.50400000000E-02 0.  1.
         23    2    1    2    0    0  0.00000000000E+00  0.00000000000E+00 -0.36915771895E+03  0.38051816196E+03  0.92285698350E+02 0.  0.
    9000005    2    3    3    0    0 -0.21756242368E+02  0.27909013167E+02 -0.30450658767E+03  0.30681595118E+03  0.12630077835E+02 0.  0.
         22    1    3    3    0    0  0.21756242368E+02 -0.27909013167E+02 -0.64651131286E+02  0.73702210785E+02  0.00000000000E+00 0. -1.
         22    1    4    4    0    0 -0.10831627907E+02  0.18844698611E+02 -0.13752712247E+03  0.13923417771E+03  0.00000000000E+00 0. -1.
         22    1    4    4    0    0 -0.10924614461E+02  0.90643145564E+01 -0.16697946520E+03  0.16758177346E+03  0.00000000000E+00 0. -1.
<mgrwt>
<rscale>  0 0.92285698E+02</rscale>
<asrwt>0</asrwt>
<pdfrwt beam="1">  1        1 0.87388052E-03 0.92285698E+02</pdfrwt>
<pdfrwt beam="2">  1       -1 0.57667356E-01 0.92285698E+02</pdfrwt>
<totfact> 0.53301168E+04</totfact>
</mgrwt>
</event>
<event>
 7    1  0.2787125E-009  0.9026226E+02  0.7818608E-02  0.1302218E+00
         -1   -1    0    0    0  501 -0.00000000000E+00  0.00000000000E+00  0.60936932998E+03  0.60936933000E+03  0.50400000000E-02 0.  1.
          1   -1    0    0  501    0  0.00000000000E+00 -0.00000000000E+00 -0.33425010396E+01  0.33425048394E+01  0.50400000000E-02 0. -1.
         23    2    1    2    0    0  0.00000000000E+00  0.00000000000E+00  0.60602682894E+03  0.61271183484E+03  0.90262257660E+02 0.  0.
    9000005    2    3    3    0    0 -0.24284987233E+02 -0.35372283374E+02  0.39490621266E+03  0.39727536241E+03  0.59864632266E+01 0.  0.
         22    1    3    3    0    0  0.24284987233E+02  0.35372283374E+02  0.21112061628E+03  0.21543647243E+03  0.00000000000E+00 0. -1.
         22    1    4    4    0    0 -0.10518552281E+02 -0.13802540132E+02  0.18601933001E+03  0.18682703550E+03  0.00000000000E+00 0. -1.
         22    1    4    4    0    0 -0.13766434952E+02 -0.21569743242E+02  0.20888688265E+03  0.21044832691E+03  0.00000000000E+00 0. -1.
<mgrwt>
<rscale>  0 0.90262258E+02</rscale>
<asrwt>0</asrwt>
<pdfrwt beam="2">  1        1 0.51423135E-03 0.90262258E+02</pdfrwt>
<pdfrwt beam="1">  1       -1 0.93749105E-01 0.90262258E+02</pdfrwt>
<totfact> 0.42246109E+04</totfact>
</mgrwt>
</event>
<event>
 7    1  0.2787125E-009  0.9395203E+02  0.7818608E-02  0.1293554E+00
          1   -1    0    0  501    0  0.00000000000E+00  0.00000000000E+00  0.16427239083E+03  0.16427239090E+03  0.50400000000E-02 0. -1.
         -1   -1    0    0    0  501 -0.00000000000E+00 -0.00000000000E+00 -0.13433454942E+02  0.13433455887E+02  0.50400000000E-02 0.  1.
         23    2    1    2    0    0  0.71054273576E-14  0.00000000000E+00  0.15083893589E+03  0.17770584679E+03  0.93952027146E+02 0.  0.
    9000005    2    3    3    0    0  0.39090185937E+02 -0.16152816000E+02  0.11376939592E+03  0.12146434170E+03  0.45994299968E+01 0.  0.
         22    1    3    3    0    0 -0.39090185937E+02  0.16152816000E+02  0.37069539967E+02  0.56241505089E+02  0.00000000000E+00 0.  1.
         22    1    4    4    0    0  0.39022345277E+02 -0.16102722266E+02  0.11197631063E+03  0.11966927441E+03  0.00000000000E+00 0. -1.
         22    1    4    4    0    0  0.67840659417E-01 -0.50093734269E-01  0.17930852840E+01  0.17950672892E+01  0.00000000000E+00 0. -1.
<mgrwt>
<rscale>  0 0.93952027E+02</rscale>
<asrwt>0</asrwt>
<pdfrwt beam="1">  1        1 0.25272676E-01 0.93952027E+02</pdfrwt>
<pdfrwt beam="2">  1       -1 0.20666854E-02 0.93952027E+02</pdfrwt>
<totfact> 0.10517432E+05</totfact>
</mgrwt>
</event>
<event>
 7    1  0.2787125E-009  0.9154301E+02  0.7818608E-02  0.1299158E+00
         -1   -1    0    0    0  501 -0.00000000000E+00  0.00000000000E+00  0.21058719218E+03  0.21058719224E+03  0.50400000000E-02 0.  1.
          1   -1    0    0  501    0  0.00000000000E+00 -0.00000000000E+00 -0.99485173854E+01  0.99485186620E+01  0.50400000000E-02 0. -1.
         23    2    1    2    0    0  0.00000000000E+00 -0.71054273576E-14  0.20063867479E+03  0.22053571090E+03  0.91543006067E+02 0.  0.
    9000005    2    3    3    0    0  0.83552441716E+01 -0.44180780883E+02  0.97958771206E+02  0.10844238324E+03  0.11919652796E+02 0.  0.
         22    1    3    3    0    0 -0.83552441716E+01  0.44180780883E+02  0.10267990359E+03  0.11209332766E+03  0.00000000000E+00 0. -1.
         22    1    4    4    0    0  0.28616009656E+01 -0.38406686827E+02  0.82676430453E+02  0.91206658231E+02  0.00000000000E+00 0.  1.
         22    1    4    4    0    0  0.54936432061E+01 -0.57740940565E+01  0.15282340753E+02  0.17235725013E+02  0.00000000000E+00 0.  1.
<mgrwt>
<rscale>  0 0.91543006E+02</rscale>
<asrwt>0</asrwt>
<pdfrwt beam="2">  1        1 0.15305413E-02 0.91543006E+02</pdfrwt>
<pdfrwt beam="1">  1       -1 0.32398028E-01 0.91543006E+02</pdfrwt>
<totfact> 0.67676859E+04</totfact>
</mgrwt>
</event>
<event>
 7    1  0.3255394E-009  0.9144475E+02  0.7818608E-02  0.1299390E+00
         -1   -1    0    0    0  501 -0.00000000000E+00  0.00000000000E+00  0.88356601520E+01  0.88356615894E+01  0.50400000000E-02 0.  1.
          1   -1    0    0  501    0  0.00000000000E+00 -0.00000000000E+00 -0.23660203800E+03  0.23660203806E+03  0.50400000000E-02 0. -1.
         23    2    1    2    0    0  0.00000000000E+00 -0.35527136788E-14 -0.22776637785E+03  0.24543769965E+03  0.91444745766E+02 0.  0.
    9000005    2    3    3    0    0  0.27669347300E+02 -0.22332123382E+02 -0.18911234653E+03  0.19291674524E+03  0.13750435187E+02 0.  0.
         22    1    3    3    0    0 -0.27669347300E+02  0.22332123382E+02 -0.38654031323E+02  0.52520954412E+02  0.00000000000E+00 0.  1.
         22    1    4    4    0    0  0.20520913040E+02 -0.23123723664E+02 -0.15549207410E+03  0.15853579904E+03  0.00000000000E+00 0.  1.
         22    1    4    4    0    0  0.71484342604E+01  0.79160028154E+00 -0.33620272426E+02  0.34380946196E+02  0.00000000000E+00 0.  1.
<mgrwt>
<rscale>  0 0.91444746E+02</rscale>
<asrwt>0</asrwt>
<pdfrwt beam="2">  1        1 0.36400309E-01 0.91444746E+02</pdfrwt>
<pdfrwt beam="1">  1       -1 0.13593326E-02 0.91444746E+02</pdfrwt>
<totfact> 0.12139203E+05</totfact>
</mgrwt>
</event>
<event>
 7    1  0.2787125E-009  0.9419183E+02  0.7818608E-02  0.1293007E+00
         -1   -1    0    0    0  501 -0.00000000000E+00  0.00000000000E+00  0.69972479867E+01  0.69972498018E+01  0.50400000000E-02 0.  1.
          1   -1    0    0  501    0  0.00000000000E+00 -0.00000000000E+00 -0.31698534764E+03  0.31698534768E+03  0.50400000000E-02 0. -1.
         23    2    1    2    0    0  0.00000000000E+00  0.00000000000E+00 -0.30998809965E+03  0.32398259748E+03  0.94191833745E+02 0.  0.
    9000005    2    3    3    0    0  0.24121606207E+02  0.14610161953E+02 -0.28385389585E+03  0.28553386113E+03  0.12698147384E+02 0.  0.
         22    1    3    3    0    0 -0.24121606207E+02 -0.14610161953E+02 -0.26134203805E+02  0.38448736349E+02  0.00000000000E+00 0.  1.
         22    1    4    4    0    0  0.89801148304E+00  0.61334098715E+01 -0.54494605645E+02  0.54846031631E+02  0.00000000000E+00 0.  1.
         22    1    4    4    0    0  0.23223594724E+02  0.84767520811E+01 -0.22935929020E+03  0.23068782950E+03  0.00000000000E+00 0.  1.
<mgrwt>
<rscale>  0 0.94191834E+02</rscale>
<asrwt>0</asrwt>
<pdfrwt beam="2">  1        1 0.48766966E-01 0.94191834E+02</pdfrwt>
<pdfrwt beam="1">  1       -1 0.10765001E-02 0.94191834E+02</pdfrwt>
<totfact> 0.11869705E+05</totfact>
</mgrwt>
</event>
<event>
 7    1  0.2787125E-009  0.8875068E+02  0.7818608E-02  0.1305906E+00
         -1   -1    0    0    0  501 -0.00000000000E+00  0.00000000000E+00  0.16103755721E+02  0.16103756510E+02  0.50400000000E-02 0.  1.
          1   -1    0    0  501    0  0.00000000000E+00 -0.00000000000E+00 -0.12228020656E+03  0.12228020666E+03  0.50400000000E-02 0. -1.
         23    2    1    2    0    0  0.00000000000E+00  0.00000000000E+00 -0.10617645083E+03  0.13838396317E+03  0.88750676339E+02 0.  0.
    9000005    2    3    3    0    0  0.22205416993E+01 -0.36837452417E+02 -0.19869806237E+02  0.44518284630E+02  0.15004657960E+02 0.  0.
         22    1    3    3    0    0 -0.22205416993E+01  0.36837452417E+02 -0.86306644597E+02  0.93865678539E+02  0.00000000000E+00 0. -1.
         22    1    4    4    0    0 -0.13445506052E+01 -0.19677907232E+02 -0.18327740748E+02  0.26924597124E+02  0.00000000000E+00 0.  1.
         22    1    4    4    0    0  0.35650923045E+01 -0.17159545184E+02 -0.15420654892E+01  0.17593687506E+02  0.00000000000E+00 0.  1.
<mgrwt>
<rscale>  0 0.88750676E+02</rscale>
<asrwt>0</asrwt>
<pdfrwt beam="2">  1        1 0.18812339E-01 0.88750676E+02</pdfrwt>
<pdfrwt beam="1">  1       -1 0.24775010E-02 0.88750676E+02</pdfrwt>
<totfact> 0.11627101E+05</totfact>
</mgrwt>
</event>
<event>
 7    1  0.2787125E-009  0.8976299E+02  0.7818608E-02  0.1303427E+00
         -1   -1    0    0    0  501 -0.00000000000E+00  0.00000000000E+00  0.18684826834E+02  0.18684827513E+02  0.50400000000E-02 0.  1.
          1   -1    0    0  501    0  0.00000000000E+00 -0.00000000000E+00 -0.10780663955E+03  0.10780663966E+03  0.50400000000E-02 0. -1.
         23    2    1    2    0    0  0.00000000000E+00  0.35527136788E-14 -0.89121812711E+02  0.12649146718E+03  0.89762986623E+02 0.  0.
    9000005    2    3    3    0    0 -0.17665663791E+02 -0.30754429628E+02 -0.89324350319E+01  0.38808818314E+02  0.12977879810E+02 0.  0.
         22    1    3    3    0    0  0.17665663791E+02  0.30754429628E+02 -0.80189377680E+02  0.87682648863E+02  0.00000000000E+00 0. -1.
         22    1    4    4    0    0 -0.29532517423E+01 -0.48778502837E+01 -0.69307082647E+01  0.89749560609E+01  0.00000000000E+00 0. -1.
         22    1    4    4    0    0 -0.14712412049E+02 -0.25876579344E+02 -0.20017267672E+01  0.29833862253E+02  0.00000000000E+00 0. -1.
<mgrwt>
<rscale>  0 0.89762987E+02</rscale>
<asrwt>0</asrwt>
<pdfrwt beam="2">  1        1 0.16585637E-01 0.89762987E+02</pdfrwt>
<pdfrwt beam="1">  1       -1 0.28745889E-02 0.89762987E+02</pdfrwt>
<totfact> 0.11036294E+05</totfact>
</mgrwt>
</event>
<event>
 7    1  0.2787125E-009  0.9179639E+02  0.7818608E-02  0.1298559E+00
          1   -1    0    0  501    0  0.00000000000E+00  0.00000000000E+00  0.64497596338E+02  0.64497596535E+02  0.50400000000E-02 0. -1.
         -1   -1    0    0    0  501 -0.00000000000E+00 -0.00000000000E+00 -0.32662365472E+02  0.32662365861E+02  0.50400000000E-02 0.  1.
         23    2    1    2    0    0  0.44408920985E-15  0.00000000000E+00  0.31835230866E+02  0.97159962396E+02  0.91796385378E+02 0.  0.
    9000005    2    3    3    0    0  0.29377175893E+01  0.41988388832E+02  0.71420491583E+00  0.44813298343E+02  0.15364460237E+02 0.  0.
         22    1    3    3    0    0 -0.29377175893E+01 -0.41988388832E+02  0.31121025950E+02  0.52346664053E+02  0.00000000000E+00 0. -1.
         22    1    4    4    0    0  0.64048744619E+01  0.13051706891E+02 -0.44741164453E+01  0.15211416358E+02  0.00000000000E+00 0. -1.
         22    1    4    4    0    0 -0.34671568726E+01  0.28936681940E+02  0.51883213612E+01  0.29601881985E+02  0.00000000000E+00 0. -1.
<mgrwt>
<rscale>  0 0.91796385E+02</rscale>
<asrwt>0</asrwt>
<pdfrwt beam="1">  1        1 0.99227070E-02 0.91796385E+02</pdfrwt>
<pdfrwt beam="2">  1       -1 0.50249794E-02 0.91796385E+02</pdfrwt>
<totfact> 0.95624557E+04</totfact>
</mgrwt>
</event>
<event>
 7    1  0.2787125E-009  0.8959739E+02  0.7818608E-02  0.1303830E+00
         -1   -1    0    0    0  501 -0.00000000000E+00  0.00000000000E+00  0.86838428923E+01  0.86838443549E+01  0.50400000000E-02 0.  1.
          1   -1    0    0  501    0  0.00000000000E+00 -0.00000000000E+00 -0.23111001509E+03  0.23111001514E+03  0.50400000000E-02 0. -1.
         23    2    1    2    0    0  0.00000000000E+00  0.00000000000E+00 -0.22242617219E+03  0.23979385950E+03  0.89597393797E+02 0.  0.
    9000005    2    3    3    0    0  0.34268861066E+02 -0.45343874499E+01 -0.43771107170E+02  0.57825324394E+02  0.15262464091E+02 0.  0.
         22    1    3    3    0    0 -0.34268861066E+02  0.45343874499E+01 -0.17865506502E+03  0.18196853510E+03  0.00000000000E+00 0. -1.
         22    1    4    4    0    0  0.28538133775E+02 -0.60341546386E+01 -0.42841864688E+02  0.51829156577E+02  0.00000000000E+00 0. -1.
         22    1    4    4    0    0  0.57307272912E+01  0.14997671886E+01 -0.92924248218E+00  0.59961678176E+01  0.00000000000E+00 0. -1.
<mgrwt>
<rscale>  0 0.89597394E+02</rscale>
<asrwt>0</asrwt>
<pdfrwt beam="2">  1        1 0.35555382E-01 0.89597394E+02</pdfrwt>
<pdfrwt beam="1">  1       -1 0.13359761E-02 0.89597394E+02</pdfrwt>
<totfact> 0.12760811E+05</totfact>
</mgrwt>
</event>
<event>
 7    1  0.2787125E-009  0.9055871E+02  0.7818608E-02  0.1301504E+00
          1   -1    0    0  501    0  0.00000000000E+00  0.00000000000E+00  0.60861561631E+02  0.60861561840E+02  0.50400000000E-02 0.  1.
         -1   -1    0    0    0  501 -0.00000000000E+00 -0.00000000000E+00 -0.33686613460E+02  0.33686613837E+02  0.50400000000E-02 0. -1.
         23    2    1    2    0    0 -0.17763568394E-14  0.00000000000E+00  0.27174948171E+02  0.94548175677E+02  0.90558708669E+02 0.  0.
    9000005    2    3    3    0    0 -0.13849360705E+02  0.16494459947E+02  0.55022066042E+02  0.59344000149E+02  0.55145807844E+01 0.  0.
         22    1    3    3    0    0  0.13849360705E+02 -0.16494459947E+02 -0.27847117871E+02  0.35204175528E+02  0.00000000000E+00 0. -1.
         22    1    4    4    0    0 -0.11150830283E+02  0.96141667039E+01  0.33645755827E+02  0.36726150119E+02  0.00000000000E+00 0.  1.
         22    1    4    4    0    0 -0.26985304229E+01  0.68802932431E+01  0.21376310215E+02  0.22617850029E+02  0.00000000000E+00 0.  1.
<mgrwt>
<rscale>  0 0.90558709E+02</rscale>
<asrwt>0</asrwt>
<pdfrwt beam="1">  1        1 0.93633173E-02 0.90558709E+02</pdfrwt>
<pdfrwt beam="2">  1       -1 0.51825559E-02 0.90558709E+02</pdfrwt>
<totfact> 0.98416247E+04</totfact>
</mgrwt>
</event>
<event>
 7    1  0.2787125E-009  0.8821990E+02  0.7818608E-02  0.1307221E+00
         -1   -1    0    0    0  501 -0.00000000000E+00  0.00000000000E+00  0.27758168404E+02  0.27758168861E+02  0.50400000000E-02 0.  1.
          1   -1    0    0  501    0  0.00000000000E+00 -0.00000000000E+00 -0.70094231910E+02  0.70094232091E+02  0.50400000000E-02 0. -1.
         23    2    1    2    0    0  0.00000000000E+00 -0.35527136788E-14 -0.42336063506E+02  0.97852400952E+02  0.88219896276E+02 0.  0.
    9000005    2    3    3    0    0 -0.34600385193E+02 -0.26166055775E+02 -0.21108059460E+02  0.49556673542E+02  0.11334221985E+02 0.  0.
         22    1    3    3    0    0  0.34600385193E+02  0.26166055775E+02 -0.21228004046E+02  0.48295727410E+02  0.00000000000E+00 0. -1.
         22    1    4    4    0    0 -0.30690003901E+02 -0.17689189752E+02 -0.17874262365E+02  0.39677109630E+02  0.00000000000E+00 0.  1.
         22    1    4    4    0    0 -0.39103812918E+01 -0.84768660231E+01 -0.32337970957E+01  0.98795639113E+01  0.00000000000E+00 0.  1.
<mgrwt>
<rscale>  0 0.88219896E+02</rscale>
<asrwt>0</asrwt>
<pdfrwt beam="2">  1        1 0.10783728E-01 0.88219896E+02</pdfrwt>
<pdfrwt beam="1">  1       -1 0.42704875E-02 0.88219896E+02</pdfrwt>
<totfact> 0.10804914E+05</totfact>
</mgrwt>
</event>
<event>
 7    1  0.2787125E-009  0.9283629E+02  0.7818608E-02  0.1296125E+00
          1   -1    0    0  501    0  0.00000000000E+00  0.00000000000E+00  0.67089586781E+01  0.67089605712E+01  0.50400000000E-02 0. -1.
         -1   -1    0    0    0  501 -0.00000000000E+00 -0.00000000000E+00 -0.32115921249E+03  0.32115921253E+03  0.50400000000E-02 0.  1.
         23    2    1    2    0    0  0.00000000000E+00  0.00000000000E+00 -0.31445025382E+03  0.32786817310E+03  0.92836290373E+02 0.  0.
    9000005    2    3    3    0    0 -0.23772256227E+02 -0.18358449043E+01 -0.29728397415E+03  0.29848839008E+03  0.12209309473E+02 0.  0.
         22    1    3    3    0    0  0.23772256227E+02  0.18358449043E+01 -0.17166279667E+02  0.29379783019E+02  0.00000000000E+00 0. -1.
         22    1    4    4    0    0 -0.22496133791E+02 -0.10899754805E+01 -0.21225978320E+03  0.21345135194E+03  0.00000000000E+00 0.  1.
         22    1    4    4    0    0 -0.12761224355E+01 -0.74586942375E+00 -0.85024190948E+02  0.85037038142E+02  0.00000000000E+00 0.  1.
<mgrwt>
<rscale>  0 0.92836290E+02</rscale>
<asrwt>0</asrwt>
<pdfrwt beam="1">  1        1 0.10321479E-02 0.92836290E+02</pdfrwt>
<pdfrwt beam="2">  1       -1 0.49409098E-01 0.92836290E+02</pdfrwt>
<totfact> 0.56216714E+04</totfact>
</mgrwt>
</event>
<event>
 7    1  0.2787125E-009  0.9107410E+02  0.7818608E-02  0.1300271E+00
          1   -1    0    0  501    0  0.00000000000E+00  0.00000000000E+00  0.41278677902E+02  0.41278678210E+02  0.50400000000E-02 0. -1.
         -1   -1    0    0    0  501 -0.00000000000E+00 -0.00000000000E+00 -0.50234718043E+02  0.50234718296E+02  0.50400000000E-02 0.  1.
         23    2    1    2    0    0  0.17763568394E-14  0.00000000000E+00 -0.89560401410E+01  0.91513396506E+02  0.91074096674E+02 0.  0.
    9000005    2    3    3    0    0  0.11297201598E+02 -0.37242752928E+02 -0.27858599005E+02  0.48247288046E+02  0.60868592595E+01 0.  0.
         22    1    3    3    0    0 -0.11297201598E+02  0.37242752928E+02  0.18902558865E+02  0.43266108460E+02  0.00000000000E+00 0. -1.
         22    1    4    4    0    0  0.46434319569E+01 -0.71823155055E+01 -0.70895481108E+01  0.11108951741E+02  0.00000000000E+00 0. -1.
         22    1    4    4    0    0  0.66537696410E+01 -0.30060437423E+02 -0.20769050895E+02  0.37138336306E+02  0.00000000000E+00 0. -1.
<mgrwt>
<rscale>  0 0.91074097E+02</rscale>
<asrwt>0</asrwt>
<pdfrwt beam="1">  1        1 0.63505659E-02 0.91074097E+02</pdfrwt>
<pdfrwt beam="2">  1       -1 0.77284182E-02 0.91074097E+02</pdfrwt>
<totfact> 0.91387932E+04</totfact>
</mgrwt>
</event>
<event>
 7    1  0.2787125E-009  0.9597007E+02  0.7818608E-02  0.1289006E+00
          1   -1    0    0  501    0  0.00000000000E+00  0.00000000000E+00  0.22976966839E+03  0.22976966845E+03  0.50400000000E-02 0. -1.
         -1   -1    0    0    0  501 -0.00000000000E+00 -0.00000000000E+00 -0.10021181739E+02  0.10021183006E+02  0.50400000000E-02 0.  1.
         23    2    1    2    0    0  0.00000000000E+00  0.00000000000E+00  0.21974848665E+03  0.23979085145E+03  0.95970073745E+02 0.  0.
    9000005    2    3    3    0    0 -0.34041827004E+02 -0.19624080365E+02  0.17730544931E+03  0.18195174759E+03  0.11192210827E+02 0.  0.
         22    1    3    3    0    0  0.34041827004E+02  0.19624080365E+02  0.42443037347E+02  0.57839103859E+02  0.00000000000E+00 0.  1.
         22    1    4    4    0    0 -0.56818945423E+01 -0.48826887074E+01  0.56297412665E+02  0.56793690207E+02  0.00000000000E+00 0.  1.
         22    1    4    4    0    0 -0.28359932462E+02 -0.14741391657E+02  0.12100803664E+03  0.12515805739E+03  0.00000000000E+00 0.  1.
<mgrwt>
<rscale>  0 0.95970074E+02</rscale>
<asrwt>0</asrwt>
<pdfrwt beam="1">  1        1 0.35349176E-01 0.95970074E+02</pdfrwt>
<pdfrwt beam="2">  1       -1 0.15417205E-02 0.95970074E+02</pdfrwt>
<totfact> 0.10601888E+05</totfact>
</mgrwt>
</event>
<event>
 7    1  0.2787125E-009  0.9151643E+02  0.7818608E-02  0.1299220E+00
          1   -1    0    0  501    0  0.00000000000E+00  0.00000000000E+00  0.29083311125E+03  0.29083311129E+03  0.50400000000E-02 0. -1.
         -1   -1    0    0    0  501 -0.00000000000E+00 -0.00000000000E+00 -0.71993665272E+01  0.71993682914E+01  0.50400000000E-02 0.  1.
         23    2    1    2    0    0  0.00000000000E+00  0.71054273576E-14  0.28363374472E+03  0.29803247958E+03  0.91516434273E+02 0.  0.
    9000005    2    3    3    0    0 -0.81413155529E+01 -0.44552827676E+02  0.14060962391E+03  0.14800869945E+03  0.91800491723E+01 0.  0.
         22    1    3    3    0    0  0.81413155529E+01  0.44552827676E+02  0.14302412081E+03  0.15002378013E+03  0.00000000000E+00 0. -1.
         22    1    4    4    0    0 -0.77003364726E+01 -0.44328848584E+02  0.13342083915E+03  0.14080292014E+03  0.00000000000E+00 0. -1.
         22    1    4    4    0    0 -0.44097908023E+00 -0.22397909206E+00  0.71887847587E+01  0.72057793118E+01  0.00000000000E+00 0. -1.
<mgrwt>
<rscale>  0 0.91516434E+02</rscale>
<asrwt>0</asrwt>
<pdfrwt beam="1">  1        1 0.44743559E-01 0.91516434E+02</pdfrwt>
<pdfrwt beam="2">  1       -1 0.11075949E-02 0.91516434E+02</pdfrwt>
<totfact> 0.12610599E+05</totfact>
</mgrwt>
</event>
<event>
 7    1  0.2787125E-009  0.9076299E+02  0.7818608E-02  0.1301014E+00
         -1   -1    0    0    0  501 -0.00000000000E+00  0.00000000000E+00  0.52864616709E+02  0.52864616949E+02  0.50400000000E-02 0.  1.
          1   -1    0    0  501    0  0.00000000000E+00 -0.00000000000E+00 -0.38957626094E+02  0.38957626420E+02  0.50400000000E-02 0. -1.
         23    2    1    2    0    0  0.00000000000E+00  0.00000000000E+00  0.13906990615E+02  0.91822243369E+02  0.90762987993E+02 0.  0.
    9000005    2    3    3    0    0 -0.60483561441E+01  0.37146023628E+02  0.30869722940E+02  0.50540964666E+02  0.13602927316E+02 0.  0.
         22    1    3    3    0    0  0.60483561441E+01 -0.37146023628E+02 -0.16962732325E+02  0.41281278703E+02  0.00000000000E+00 0. -1.
         22    1    4    4    0    0 -0.49075344672E+01  0.18524238606E+02  0.73601759047E+01  0.20528114863E+02  0.00000000000E+00 0. -1.
         22    1    4    4    0    0 -0.11408216769E+01  0.18621785022E+02  0.23509547035E+02  0.30012849803E+02  0.00000000000E+00 0. -1.
<mgrwt>
<rscale>  0 0.90762988E+02</rscale>
<asrwt>0</asrwt>
<pdfrwt beam="2">  1        1 0.59934810E-02 0.90762988E+02</pdfrwt>
<pdfrwt beam="1">  1       -1 0.81330180E-02 0.90762988E+02</pdfrwt>
<totfact> 0.91468621E+04</totfact>
</mgrwt>
</event>
<event>
 7    1  0.2787125E-009  0.9004328E+02  0.7818608E-02  0.1302747E+00
          1   -1    0    0  501    0  0.00000000000E+00  0.00000000000E+00  0.75150096705E+02  0.75150096874E+02  0.50400000000E-02 0. -1.
         -1   -1    0    0    0  501 -0.00000000000E+00 -0.00000000000E+00 -0.26971992644E+02  0.26971993115E+02  0.50400000000E-02 0.  1.
         23    2    1    2    0    0  0.00000000000E+00  0.00000000000E+00  0.48178104061E+02  0.10212208999E+03  0.90043276001E+02 0.  0.
    9000005    2    3    3    0    0 -0.18651944417E+02  0.39006000603E+02  0.37390078214E+02  0.57560395506E+02  0.67689045140E+01 0.  0.
         22    1    3    3    0    0  0.18651944417E+02 -0.39006000603E+02  0.10788025848E+02  0.44561694484E+02  0.00000000000E+00 0.  1.
         22    1    4    4    0    0 -0.92412637588E+01  0.18158599287E+02  0.22035031085E+02  0.30011302518E+02  0.00000000000E+00 0. -1.
         22    1    4    4    0    0 -0.94106806584E+01  0.20847401317E+02  0.15355047129E+02  0.27549092988E+02  0.00000000000E+00 0. -1.
<mgrwt>
<rscale>  0 0.90043276E+02</rscale>
<asrwt>0</asrwt>
<pdfrwt beam="1">  1        1 0.11561553E-01 0.90043276E+02</pdfrwt>
<pdfrwt beam="2">  1       -1 0.41495375E-02 0.90043276E+02</pdfrwt>
<totfact> 0.10324741E+05</totfact>
</mgrwt>
</event>
<event>
 7    1  0.2787125E-009  0.9246123E+02  0.7818608E-02  0.1296999E+00
          1   -1    0    0  501    0  0.00000000000E+00  0.00000000000E+00  0.23682203431E+03  0.23682203437E+03  0.50400000000E-02 0.  1.
         -1   -1    0    0    0  501 -0.00000000000E+00 -0.00000000000E+00 -0.90247916680E+01  0.90247930753E+01  0.50400000000E-02 0. -1.
         23    2    1    2    0    0  0.00000000000E+00 -0.71054273576E-14  0.22779724265E+03  0.24584682744E+03  0.92461228667E+02 0.  0.
    9000005    2    3    3    0    0 -0.37294589423E+01  0.38599977239E+02  0.53422320376E+02  0.67211778745E+02  0.12633755608E+02 0.  0.
         22    1    3    3    0    0  0.37294589423E+01 -0.38599977239E+02  0.17437492227E+03  0.17863504870E+03  0.00000000000E+00 0.  1.
         22    1    4    4    0    0 -0.18154823399E+01  0.53110322908E+01  0.20671699065E+01  0.59813235611E+01  0.00000000000E+00 0.  1.
         22    1    4    4    0    0 -0.19139766024E+01  0.33288944948E+02  0.51355150470E+02  0.61230455183E+02  0.00000000000E+00 0.  1.
<mgrwt>
<rscale>  0 0.92461229E+02</rscale>
<asrwt>0</asrwt>
<pdfrwt beam="1">  1        1 0.36434162E-01 0.92461229E+02</pdfrwt>
<pdfrwt beam="2">  1       -1 0.13884295E-02 0.92461229E+02</pdfrwt>
<totfact> 0.11787227E+05</totfact>
</mgrwt>
</event>
<event>
 7    1  0.3115280E-009  0.9496675E+02  0.7818608E-02  0.1291251E+00
         -1   -1    0    0    0  501 -0.00000000000E+00  0.00000000000E+00  0.53008688513E+02  0.53008688752E+02  0.50400000000E-02 0.  1.
          1   -1    0    0  501    0  0.00000000000E+00 -0.00000000000E+00 -0.42533988680E+02  0.42533988978E+02  0.50400000000E-02 0. -1.
         23    2    1    2    0    0  0.00000000000E+00  0.00000000000E+00  0.10474699833E+02  0.95542677731E+02  0.94966751715E+02 0.  0.
    9000005    2    3    3    0    0 -0.23115911653E+02  0.14323793495E+02 -0.32562044200E+02  0.44634154195E+02  0.13870997315E+02 0.  0.
         22    1    3    3    0    0  0.23115911653E+02 -0.14323793495E+02  0.43036744033E+02  0.50908523536E+02  0.00000000000E+00 0.  1.
         22    1    4    4    0    0 -0.62063828005E+01 -0.24342302735E+01 -0.60589597306E+01  0.90086434888E+01  0.00000000000E+00 0.  1.
         22    1    4    4    0    0 -0.16909528853E+02  0.16758023768E+02 -0.26503084470E+02  0.35625510706E+02  0.00000000000E+00 0.  1.
<mgrwt>
<rscale>  0 0.94966752E+02</rscale>
<asrwt>0</asrwt>
<pdfrwt beam="2">  1        1 0.65436906E-02 0.94966752E+02</pdfrwt>
<pdfrwt beam="1">  1       -1 0.81551829E-02 0.94966752E+02</pdfrwt>
<totfact> 0.81554572E+04</totfact>
</mgrwt>
</event>
<event>
 7    1  0.2787125E-009  0.9030853E+02  0.7818608E-02  0.1302106E+00
          1   -1    0    0  501    0  0.00000000000E+00  0.00000000000E+00  0.11653184850E+02  0.11653185940E+02  0.50400000000E-02 0. -1.
         -1   -1    0    0    0  501 -0.00000000000E+00 -0.00000000000E+00 -0.17496568124E+03  0.17496568131E+03  0.50400000000E-02 0.  1.
         23    2    1    2    0    0  0.00000000000E+00  0.17763568394E-14 -0.16331249639E+03  0.18661886725E+03  0.90308527492E+02 0.  0.
    9000005    2    3    3    0    0  0.38923878478E+02  0.85058013110E+01 -0.43107709350E+02  0.59983138492E+02  0.12340394085E+02 0.  0.
         22    1    3    3    0    0 -0.38923878478E+02 -0.85058013110E+01 -0.12020478704E+03  0.12663572876E+03  0.00000000000E+00 0.  1.
         22    1    4    4    0    0  0.32068927603E+02  0.48674011866E+01 -0.40295867031E+02  0.51728760005E+02  0.00000000000E+00 0. -1.
         22    1    4    4    0    0  0.68549508754E+01  0.36384001244E+01 -0.28118423192E+01  0.82543784864E+01  0.00000000000E+00 0. -1.
<mgrwt>
<rscale>  0 0.90308527E+02</rscale>
<asrwt>0</asrwt>
<pdfrwt beam="1">  1        1 0.17927979E-02 0.90308527E+02</pdfrwt>
<pdfrwt beam="2">  1       -1 0.26917795E-01 0.90308527E+02</pdfrwt>
<totfact> 0.73816586E+04</totfact>
</mgrwt>
</event>
<event>
 7    1  0.2787125E-009  0.8885701E+02  0.7818608E-02  0.1305643E+00
         -1   -1    0    0    0  501 -0.00000000000E+00  0.00000000000E+00  0.53334407632E+01  0.53334431446E+01  0.50400000000E-02 0.  1.
          1   -1    0    0  501    0  0.00000000000E+00 -0.00000000000E+00 -0.37009725629E+03  0.37009725632E+03  0.50400000000E-02 0. -1.
         23    2    1    2    0    0 -0.17763568394E-14 -0.71054273576E-14 -0.36476381553E+03  0.37543069947E+03  0.88857014276E+02 0.  0.
    9000005    2    3    3    0    0 -0.15175081636E+02 -0.41132799382E+02 -0.19533912512E+03  0.20042522525E+03  0.95240131059E+01 0.  0.
         22    1    3    3    0    0  0.15175081636E+02  0.41132799382E+02 -0.16942469040E+03  0.17500547421E+03  0.00000000000E+00 0. -1.
         22    1    4    4    0    0 -0.29442975237E+01 -0.50103713470E+01 -0.14758612113E+02  0.15861568032E+02  0.00000000000E+00 0.  1.
         22    1    4    4    0    0 -0.12230784112E+02 -0.36122428035E+02 -0.18058051301E+03  0.18456365722E+03  0.00000000000E+00 0.  1.
<mgrwt>
<rscale>  0 0.88857014E+02</rscale>
<asrwt>0</asrwt>
<pdfrwt beam="2">  1        1 0.56938019E-01 0.88857014E+02</pdfrwt>
<pdfrwt beam="1">  1       -1 0.82052983E-03 0.88857014E+02</pdfrwt>
<totfact> 0.14255180E+05</totfact>
</mgrwt>
</event>
<event>
 7    1  0.3277969E-009  0.9189820E+02  0.7818608E-02  0.1298319E+00
          1   -1    0    0  501    0  0.00000000000E+00  0.00000000000E+00  0.44905864340E+02  0.44905864623E+02  0.50400000000E-02 0. -1.
         -1   -1    0    0    0  501 -0.00000000000E+00 -0.00000000000E+00 -0.47016575006E+02  0.47016575277E+02  0.50400000000E-02 0.  1.
         23    2    1    2    0    0  0.00000000000E+00  0.00000000000E+00 -0.21107106664E+01  0.91922439899E+02  0.91898203778E+02 0.  0.
    9000005    2    3    3    0    0  0.14731734184E+02  0.27456048367E+02  0.30780480947E+02  0.46615828133E+02  0.15960540127E+02 0.  0.
         22    1    3    3    0    0 -0.14731734184E+02 -0.27456048367E+02 -0.32891191614E+02  0.45306611767E+02  0.00000000000E+00 0.  1.
         22    1    4    4    0    0  0.87500307972E+01  0.21073495018E+02  0.11737330398E+02  0.25659699065E+02  0.00000000000E+00 0. -1.
         22    1    4    4    0    0  0.59817033864E+01  0.63825533488E+01  0.19043150549E+02  0.20956129067E+02  0.00000000000E+00 0. -1.
<mgrwt>
<rscale>  0 0.91898204E+02</rscale>
<asrwt>0</asrwt>
<pdfrwt beam="1">  1        1 0.69085946E-02 0.91898204E+02</pdfrwt>
<pdfrwt beam="2">  1       -1 0.72333193E-02 0.91898204E+02</pdfrwt>
<totfact> 0.90239555E+04</totfact>
</mgrwt>
</event>
<event>
 7    1  0.2787125E-009  0.9110767E+02  0.7818608E-02  0.1300191E+00
          1   -1    0    0  501    0  0.00000000000E+00  0.00000000000E+00  0.19114475546E+01  0.19114541992E+01  0.50400000000E-02 0. -1.
         -1   -1    0    0    0  501 -0.00000000000E+00 -0.00000000000E+00 -0.10856423573E+04  0.10856423573E+04  0.50400000000E-02 0.  1.
         23    2    1    2    0    0  0.00000000000E+00  0.35527136788E-14 -0.10837309098E+04  0.10875538115E+04  0.91107673630E+02 0.  0.
    9000005    2    3    3    0    0 -0.18685104942E+02 -0.29485494272E+02 -0.88982052384E+03  0.89052649035E+03  0.61917575404E+01 0.  0.
         22    1    3    3    0    0  0.18685104942E+02  0.29485494272E+02 -0.19391038592E+03  0.19702732117E+03  0.00000000000E+00 0. -1.
         22    1    4    4    0    0 -0.19003007720E+02 -0.29037773839E+02 -0.85844243054E+03  0.85914359287E+03  0.00000000000E+00 0.  1.
         22    1    4    4    0    0  0.31790277739E+00 -0.44772043305E+00 -0.31378093294E+02  0.31382897484E+02  0.00000000000E+00 0.  1.
<mgrwt>
<rscale>  0 0.91107674E+02</rscale>
<asrwt>0</asrwt>
<pdfrwt beam="1">  1        1 0.29407023E-03 0.91107674E+02</pdfrwt>
<pdfrwt beam="2">  1       -1 0.16702141E+00 0.91107674E+02</pdfrwt>
<totfact> 0.23158630E+04</totfact>
</mgrwt>
</event>
<event>
 7    1  0.2787125E-009  0.8628387E+02  0.7818608E-02  0.1312109E+00
         -1   -1    0    0    0  501 -0.00000000000E+00  0.00000000000E+00  0.72991561540E+01  0.72991578941E+01  0.50400000000E-02 0.  1.
          1   -1    0    0  501    0  0.00000000000E+00 -0.00000000000E+00 -0.25499198251E+03  0.25499198256E+03  0.50400000000E-02 0. -1.
         23    2    1    2    0    0  0.00000000000E+00  0.00000000000E+00 -0.24769282636E+03  0.26229114046E+03  0.86283869481E+02 0.  0.
    9000005    2    3    3    0    0  0.33857152137E+02  0.19645793233E+02 -0.17694546979E+03  0.18143662664E+03  0.87912607711E+01 0.  0.
         22    1    3    3    0    0 -0.33857152137E+02 -0.19645793233E+02 -0.70747356574E+02  0.80854513818E+02  0.00000000000E+00 0.  1.
         22    1    4    4    0    0  0.10183785144E+02  0.42027695706E+01 -0.34584810983E+02  0.36297133533E+02  0.00000000000E+00 0. -1.
         22    1    4    4    0    0  0.23673366993E+02  0.15443023663E+02 -0.14236065880E+03  0.14513949311E+03  0.00000000000E+00 0. -1.
<mgrwt>
<rscale>  0 0.86283869E+02</rscale>
<asrwt>0</asrwt>
<pdfrwt beam="2">  1        1 0.39229529E-01 0.86283869E+02</pdfrwt>
<pdfrwt beam="1">  1       -1 0.11229474E-02 0.86283869E+02</pdfrwt>
<totfact> 0.14377726E+05</totfact>
</mgrwt>
</event>
<event>
 7    1  0.2787125E-009  0.9148375E+02  0.7818608E-02  0.1299298E+00
          1   -1    0    0  501    0  0.00000000000E+00  0.00000000000E+00  0.45469568283E+03  0.45469568286E+03  0.50400000000E-02 0. -1.
         -1   -1    0    0    0  501 -0.00000000000E+00 -0.00000000000E+00 -0.46015795565E+01  0.46015823166E+01  0.50400000000E-02 0.  1.
         23    2    1    2    0    0  0.35527136788E-14 -0.71054273576E-14  0.45009410328E+03  0.45929726518E+03  0.91483747165E+02 0.  0.
    9000005    2    3    3    0    0  0.19743255671E+02 -0.40911045911E+02  0.20460746748E+03  0.20964310804E+03  0.47441730185E+01 0.  0.
         22    1    3    3    0    0 -0.19743255671E+02  0.40911045911E+02  0.24548663580E+03  0.24965415714E+03  0.00000000000E+00 0. -1.
         22    1    4    4    0    0  0.18958612778E+00 -0.28062715570E+01  0.14602396887E+02  0.14870813623E+02  0.00000000000E+00 0. -1.
         22    1    4    4    0    0  0.19553669543E+02 -0.38104774354E+02  0.19000507059E+03  0.19477229442E+03  0.00000000000E+00 0. -1.
<mgrwt>
<rscale>  0 0.91483747E+02</rscale>
<asrwt>0</asrwt>
<pdfrwt beam="1">  1        1 0.69953208E-01 0.91483747E+02</pdfrwt>
<pdfrwt beam="2">  1       -1 0.70793527E-03 0.91483747E+02</pdfrwt>
<totfact> 0.13633836E+05</totfact>
</mgrwt>
</event>
<event>
 7    1  0.2787125E-009  0.8713364E+02  0.7818608E-02  0.1309945E+00
         -1   -1    0    0    0  501 -0.00000000000E+00  0.00000000000E+00  0.32358302914E+03  0.32358302918E+03  0.50400000000E-02 0.  1.
          1   -1    0    0  501    0  0.00000000000E+00 -0.00000000000E+00 -0.58657824373E+01  0.58657846025E+01  0.50400000000E-02 0. -1.
         23    2    1    2    0    0  0.00000000000E+00  0.00000000000E+00  0.31771724671E+03  0.32944881378E+03  0.87133644764E+02 0.  0.
    9000005    2    3    3    0    0 -0.20469717846E+02  0.18024747904E+01  0.30363844623E+03  0.30453956075E+03  0.11215157886E+02 0.  0.
         22    1    3    3    0    0  0.20469717846E+02 -0.18024747904E+01  0.14078800474E+02  0.24909253037E+02  0.00000000000E+00 0. -1.
         22    1    4    4    0    0 -0.43690182440E+01  0.36061223687E+01  0.13655569675E+03  0.13667315301E+03  0.00000000000E+00 0. -1.
         22    1    4    4    0    0 -0.16100699602E+02 -0.18036475782E+01  0.16708274948E+03  0.16786640774E+03  0.00000000000E+00 0. -1.
<mgrwt>
<rscale>  0 0.87133645E+02</rscale>
<asrwt>0</asrwt>
<pdfrwt beam="2">  1        1 0.90242814E-03 0.87133645E+02</pdfrwt>
<pdfrwt beam="1">  1       -1 0.49782010E-01 0.87133645E+02</pdfrwt>
<totfact> 0.66138653E+04</totfact>
</mgrwt>
</event>
<event>
 7    1  0.2787125E-009  0.9126913E+02  0.7818608E-02  0.1299807E+00
         -1   -1    0    0    0  501 -0.00000000000E+00  0.00000000000E+00  0.11880362731E+02  0.11880363800E+02  0.50400000000E-02 0.  1.
          1   -1    0    0  501    0  0.00000000000E+00 -0.00000000000E+00 -0.17529037089E+03  0.17529037096E+03  0.50400000000E-02 0. -1.
         23    2    1    2    0    0  0.00000000000E+00  0.00000000000E+00 -0.16341000816E+03  0.18717073476E+03  0.91269125036E+02 0.  0.
    9000005    2    3    3    0    0 -0.60037107977E+01  0.22661852041E+02 -0.16194692499E+03  0.16368148842E+03  0.39011610787E+01 0.  0.
         22    1    3    3    0    0  0.60037107977E+01 -0.22661852041E+02 -0.14630831713E+01  0.23489246340E+02  0.00000000000E+00 0.  1.
         22    1    4    4    0    0 -0.12763197888E+01  0.78000492563E+01 -0.66628398768E+02  0.67095553377E+02  0.00000000000E+00 0.  1.
         22    1    4    4    0    0 -0.47273910089E+01  0.14861802785E+02 -0.95318526220E+02  0.96585935045E+02  0.00000000000E+00 0.  1.
<mgrwt>
<rscale>  0 0.91269125E+02</rscale>
<asrwt>0</asrwt>
<pdfrwt beam="2">  1        1 0.26967748E-01 0.91269125E+02</pdfrwt>
<pdfrwt beam="1">  1       -1 0.18277483E-02 0.91269125E+02</pdfrwt>
<totfact> 0.11512772E+05</totfact>
</mgrwt>
</event>
<event>
 7    1  0.2787125E-009  0.9132464E+02  0.7818608E-02  0.1299675E+00
          1   -1    0    0  501    0  0.00000000000E+00  0.00000000000E+00  0.12563530460E+03  0.12563530471E+03  0.50400000000E-02 0. -1.
         -1   -1    0    0    0  501 -0.00000000000E+00 -0.00000000000E+00 -0.16596032423E+02  0.16596033188E+02  0.50400000000E-02 0.  1.
         23    2    1    2    0    0 -0.35527136788E-14  0.00000000000E+00  0.10903927218E+03  0.14223133789E+03  0.91324643996E+02 0.  0.
    9000005    2    3    3    0    0 -0.26734232898E+02 -0.30223143282E+02  0.86661841062E+02  0.96091257464E+02  0.97517929792E+01 0.  0.
         22    1    3    3    0    0  0.26734232898E+02  0.30223143282E+02  0.22377431120E+02  0.46140080429E+02  0.00000000000E+00 0.  1.
         22    1    4    4    0    0 -0.25043262957E+02 -0.30199417108E+02  0.78519831079E+02  0.87775473146E+02  0.00000000000E+00 0. -1.
         22    1    4    4    0    0 -0.16909699414E+01 -0.23726173246E-01  0.81420099830E+01  0.83157843188E+01  0.00000000000E+00 0. -1.
<mgrwt>
<rscale>  0 0.91324644E+02</rscale>
<asrwt>0</asrwt>
<pdfrwt beam="1">  1        1 0.19328508E-01 0.91324644E+02</pdfrwt>
<pdfrwt beam="2">  1       -1 0.25532359E-02 0.91324644E+02</pdfrwt>
<totfact> 0.10813224E+05</totfact>
</mgrwt>
</event>
<event>
 7    1  0.2787125E-009  0.9212746E+02  0.7818608E-02  0.1297780E+00
         -1   -1    0    0    0  501 -0.00000000000E+00  0.00000000000E+00  0.29447873907E+03  0.29447873911E+03  0.50400000000E-02 0.  1.
          1   -1    0    0  501    0  0.00000000000E+00 -0.00000000000E+00 -0.72055012613E+01  0.72055030240E+01  0.50400000000E-02 0. -1.
         23    2    1    2    0    0 -0.71054273576E-14 -0.35527136788E-14  0.28727323781E+03  0.30168424213E+03  0.92127459493E+02 0.  0.
    9000005    2    3    3    0    0 -0.32051174744E+02 -0.23526843230E+02  0.74346399163E+02  0.85077158296E+02  0.11399370170E+02 0.  0.
         22    1    3    3    0    0  0.32051174744E+02  0.23526843230E+02  0.21292683864E+03  0.21660708384E+03  0.00000000000E+00 0.  1.
         22    1    4    4    0    0 -0.14263186609E+02 -0.94448886291E+01  0.43839313482E+02  0.47058791102E+02  0.00000000000E+00 0.  1.
         22    1    4    4    0    0 -0.17787988135E+02 -0.14081954601E+02  0.30507085682E+02  0.38018367193E+02  0.00000000000E+00 0.  1.
<mgrwt>
<rscale>  0 0.92127459E+02</rscale>
<asrwt>0</asrwt>
<pdfrwt beam="2">  1        1 0.11085389E-02 0.92127459E+02</pdfrwt>
<pdfrwt beam="1">  1       -1 0.45304419E-01 0.92127459E+02</pdfrwt>
<totfact> 0.59393088E+04</totfact>
</mgrwt>
</event>
<event>
 7    1  0.2787125E-009  0.8194287E+02  0.7818608E-02  0.1323627E+00
         -1   -1    0    0    0  501 -0.00000000000E+00  0.00000000000E+00  0.57803919262E+03  0.57803919264E+03  0.50400000000E-02 0.  1.
          1   -1    0    0  501    0  0.00000000000E+00 -0.00000000000E+00 -0.29040544682E+01  0.29040588417E+01  0.50400000000E-02 0. -1.
         23    2    1    2    0    0  0.71054273576E-14  0.44408920985E-15  0.57513513815E+03  0.58094325149E+03  0.81942872219E+02 0.  0.
    9000005    2    3    3    0    0  0.34303110074E+02  0.28146089118E+01  0.43762220107E+03  0.43918841648E+03  0.13734952150E+02 0.  0.
         22    1    3    3    0    0 -0.34303110074E+02 -0.28146089118E+01  0.13751293708E+03  0.14175483501E+03  0.00000000000E+00 0. -1.
         22    1    4    4    0    0  0.23249756492E+02  0.38868740997E+01  0.36061240418E+03  0.36138202088E+03  0.00000000000E+00 0.  1.
         22    1    4    4    0    0  0.11053353582E+02 -0.10722651879E+01  0.77009796892E+02  0.77806395594E+02  0.00000000000E+00 0.  1.
<mgrwt>
<rscale>  0 0.81942872E+02</rscale>
<asrwt>0</asrwt>
<pdfrwt beam="2">  1        1 0.44677783E-03 0.81942872E+02</pdfrwt>
<pdfrwt beam="1">  1       -1 0.88929130E-01 0.81942872E+02</pdfrwt>
<totfact> 0.56502266E+04</totfact>
</mgrwt>
</event>
<event>
 7    1  0.2787125E-009  0.8954922E+02  0.7818608E-02  0.1303947E+00
         -1   -1    0    0    0  501 -0.00000000000E+00  0.00000000000E+00  0.21868079275E+01  0.21868137354E+01  0.50400000000E-02 0.  1.
          1   -1    0    0  501    0  0.00000000000E+00 -0.00000000000E+00 -0.91675306521E+03  0.91675306523E+03  0.50400000000E-02 0. -1.
         23    2    1    2    0    0  0.00000000000E+00  0.00000000000E+00 -0.91456625729E+03  0.91893987896E+03  0.89549216534E+02 0.  0.
    9000005    2    3    3    0    0  0.91406063145E+01  0.32563865495E+02 -0.75795645467E+03  0.75871944863E+03  0.36412274984E+01 0.  0.
         22    1    3    3    0    0 -0.91406063145E+01 -0.32563865495E+02 -0.15660980262E+03  0.16022043033E+03  0.00000000000E+00 0.  1.
         22    1    4    4    0    0  0.75228688717E+00  0.76033354664E+01 -0.18732429685E+03  0.18748004917E+03  0.00000000000E+00 0.  1.
         22    1    4    4    0    0  0.83883194274E+01  0.24960530028E+02 -0.57063215781E+03  0.57123939946E+03  0.00000000000E+00 0.  1.
<mgrwt>
<rscale>  0 0.89549217E+02</rscale>
<asrwt>0</asrwt>
<pdfrwt beam="2">  1        1 0.14103863E+00 0.89549217E+02</pdfrwt>
<pdfrwt beam="1">  1       -1 0.33643317E-03 0.89549217E+02</pdfrwt>
<totfact> 0.14547232E+05</totfact>
</mgrwt>
</event>
<event>
 7    1  0.2787125E-009  0.9034360E+02  0.7818608E-02  0.1302022E+00
         -1   -1    0    0    0  501 -0.00000000000E+00  0.00000000000E+00  0.21207964169E+03  0.21207964175E+03  0.50400000000E-02 0.  1.
          1   -1    0    0  501    0  0.00000000000E+00 -0.00000000000E+00 -0.96213446939E+01  0.96213460140E+01  0.50400000000E-02 0. -1.
         23    2    1    2    0    0  0.00000000000E+00  0.00000000000E+00  0.20245829700E+03  0.22170098777E+03  0.90343599403E+02 0.  0.
    9000005    2    3    3    0    0  0.21125882223E+02 -0.37400600945E+02  0.69143307416E+02  0.81636737160E+02  0.62170767169E+01 0.  0.
         22    1    3    3    0    0 -0.21125882223E+02  0.37400600945E+02  0.13331498958E+03  0.14006425061E+03  0.00000000000E+00 0.  1.
         22    1    4    4    0    0  0.10630866109E+02 -0.19354449570E+02  0.29698548285E+02  0.37008293700E+02  0.00000000000E+00 0. -1.
         22    1    4    4    0    0  0.10495016113E+02 -0.18046151375E+02  0.39444759131E+02  0.44628443459E+02  0.00000000000E+00 0. -1.
<mgrwt>
<rscale>  0 0.90343599E+02</rscale>
<asrwt>0</asrwt>
<pdfrwt beam="2">  1        1 0.14802069E-02 0.90343599E+02</pdfrwt>
<pdfrwt beam="1">  1       -1 0.32627639E-01 0.90343599E+02</pdfrwt>
<totfact> 0.69896486E+04</totfact>
</mgrwt>
</event>
<event>
 7    1  0.2787125E-009  0.9164942E+02  0.7818608E-02  0.1298906E+00
         -1   -1    0    0    0  501 -0.00000000000E+00  0.00000000000E+00  0.17950075142E+02  0.17950075849E+02  0.50400000000E-02 0.  1.
          1   -1    0    0  501    0  0.00000000000E+00 -0.00000000000E+00 -0.11698579737E+03  0.11698579748E+03  0.50400000000E-02 0. -1.
         23    2    1    2    0    0  0.44408920985E-15  0.00000000000E+00 -0.99035722225E+02  0.13493587332E+03  0.91649416983E+02 0.  0.
    9000005    2    3    3    0    0 -0.24586055933E+01 -0.34652317643E+02 -0.88990518443E+01  0.38336457142E+02  0.13552230924E+02 0.  0.
         22    1    3    3    0    0  0.24586055933E+01  0.34652317643E+02 -0.90136670381E+02  0.96599416182E+02  0.00000000000E+00 0. -1.
         22    1    4    4    0    0 -0.36803820850E+01 -0.35472411810E+02 -0.92090913669E+01  0.36832656376E+02  0.00000000000E+00 0. -1.
         22    1    4    4    0    0  0.12217764917E+01  0.82009416729E+00  0.31003952267E+00  0.15038007662E+01  0.00000000000E+00 0. -1.
<mgrwt>
<rscale>  0 0.91649417E+02</rscale>
<asrwt>0</asrwt>
<pdfrwt beam="2">  1        1 0.17997815E-01 0.91649417E+02</pdfrwt>
<pdfrwt beam="1">  1       -1 0.27615502E-02 0.91649417E+02</pdfrwt>
<totfact> 0.10576887E+05</totfact>
</mgrwt>
</event>
<event>
 7    1  0.2787125E-009  0.9136879E+02  0.7818608E-02  0.1299570E+00
          1   -1    0    0  501    0  0.00000000000E+00  0.00000000000E+00  0.71280543602E+03  0.71280543603E+03  0.50400000000E-02 0. -1.
         -1   -1    0    0    0  501 -0.00000000000E+00 -0.00000000000E+00 -0.29279549615E+01  0.29279592993E+01  0.50400000000E-02 0.  1.
         23    2    1    2    0    0  0.00000000000E+00  0.00000000000E+00  0.70987748105E+03  0.71573339533E+03  0.91368786173E+02 0.  0.
    9000005    2    3    3    0    0  0.11512228569E+02  0.89255613738E+01  0.69406005329E+03  0.69423018456E+03  0.48984211806E+01 0.  0.
         22    1    3    3    0    0 -0.11512228569E+02 -0.89255613738E+01  0.15817427767E+02  0.21503210775E+02  0.00000000000E+00 0.  1.
         22    1    4    4    0    0  0.65355492348E+01  0.70383536410E+01  0.52026022066E+03  0.52034887241E+03  0.00000000000E+00 0. -1.
         22    1    4    4    0    0  0.49766793340E+01  0.18872077328E+01  0.17379983263E+03  0.17388131214E+03  0.00000000000E+00 0. -1.
<mgrwt>
<rscale>  0 0.91368786E+02</rscale>
<asrwt>0</asrwt>
<pdfrwt beam="1">  1        1 0.10966235E+00 0.91368786E+02</pdfrwt>
<pdfrwt beam="2">  1       -1 0.45045503E-03 0.91368786E+02</pdfrwt>
<totfact> 0.14135117E+05</totfact>
</mgrwt>
</event>
<event>
 6    1  0.2787125E-009  0.1586283E+04  0.7818608E-02  0.8829019E-01
         -1   -1    0    0    0  501 -0.00000000000E+00  0.00000000000E+00  0.40188401618E+03  0.40188401621E+03  0.50400000000E-02 0.  1.
          1   -1    0    0  501    0  0.00000000000E+00 -0.00000000000E+00 -0.15653115562E+04  0.15653115562E+04  0.50400000000E-02 0. -1.
    9000005    2    1    2    0    0  0.39688052622E+03 -0.20359106034E+03 -0.13950131079E+04  0.14646069264E+04  0.69574154102E+01 0.  0.
         22    1    1    2    0    0 -0.39688052622E+03  0.20359106034E+03  0.23158556784E+03  0.50258864608E+03  0.00000000000E+00 0.  1.
         22    1    3    3    0    0  0.29180108689E+03 -0.15014831899E+03 -0.10362246018E+04  0.10869470168E+04  0.00000000000E+00 0.  1.
         22    1    3    3    0    0  0.10507943932E+03 -0.53442741349E+02 -0.35878850608E+03  0.37765990953E+03  0.00000000000E+00 0.  1.
<mgrwt>
<rscale>  0 0.15862833E+04</rscale>
<asrwt>0</asrwt>
<pdfrwt beam="2">  1        1 0.24081716E+00 0.15862833E+04</pdfrwt>
<pdfrwt beam="1">  1       -1 0.61828311E-01 0.15862833E+04</pdfrwt>
<totfact> 0.15025506E+01</totfact>
</mgrwt>
</event>
<event>
 7    1  0.2787125E-009  0.8901610E+02  0.7818608E-02  0.1305252E+00
          1   -1    0    0  501    0  0.00000000000E+00  0.00000000000E+00  0.66966768914E+02  0.66966769104E+02  0.50400000000E-02 0. -1.
         -1   -1    0    0    0  501 -0.00000000000E+00 -0.00000000000E+00 -0.29581333910E+02  0.29581334339E+02  0.50400000000E-02 0.  1.
         23    2    1    2    0    0  0.00000000000E+00  0.17763568394E-14  0.37385435004E+02  0.96548103443E+02  0.89016097016E+02 0.  0.
    9000005    2    3    3    0    0 -0.16480680293E+02  0.82695116635E+01 -0.23976404062E+02  0.32475699558E+02  0.11823936060E+02 0.  0.
         22    1    3    3    0    0  0.16480680293E+02 -0.82695116635E+01  0.61361839066E+02  0.64072403885E+02  0.00000000000E+00 0. -1.
         22    1    4    4    0    0 -0.17544736996E+02  0.97397557379E+01 -0.22374970656E+02  0.30055281565E+02  0.00000000000E+00 0. -1.
         22    1    4    4    0    0  0.10640567030E+01 -0.14702440743E+01 -0.16014334057E+01  0.24204179925E+01  0.00000000000E+00 0. -1.
<mgrwt>
<rscale>  0 0.89016097E+02</rscale>
<asrwt>0</asrwt>
<pdfrwt beam="1">  1        1 0.10302580E-01 0.89016097E+02</pdfrwt>
<pdfrwt beam="2">  1       -1 0.45509745E-02 0.89016097E+02</pdfrwt>
<totfact> 0.10469126E+05</totfact>
</mgrwt>
</event>
<event>
 7    1  0.2787125E-009  0.8888607E+02  0.7818608E-02  0.1305572E+00
         -1   -1    0    0    0  501 -0.00000000000E+00  0.00000000000E+00  0.47121069384E+02  0.47121069654E+02  0.50400000000E-02 0.  1.
          1   -1    0    0  501    0  0.00000000000E+00 -0.00000000000E+00 -0.41917205476E+02  0.41917205779E+02  0.50400000000E-02 0. -1.
         23    2    1    2    0    0  0.00000000000E+00 -0.35527136788E-14  0.52038639080E+01  0.89038275433E+02  0.88886074795E+02 0.  0.
    9000005    2    3    3    0    0  0.17123703551E+02 -0.22844821447E+02  0.35727164331E+02  0.47243790642E+02  0.11850670565E+02 0.  0.
         22    1    3    3    0    0 -0.17123703551E+02  0.22844821447E+02 -0.30523300423E+02  0.41794484791E+02  0.00000000000E+00 0. -1.
         22    1    4    4    0    0  0.16564954148E+02 -0.14176034054E+02  0.28863651705E+02  0.36172752690E+02  0.00000000000E+00 0.  1.
         22    1    4    4    0    0  0.55874940280E+00 -0.86687873932E+01  0.68635126256E+01  0.11071037952E+02  0.00000000000E+00 0.  1.
<mgrwt>
<rscale>  0 0.88886075E+02</rscale>
<asrwt>0</asrwt>
<pdfrwt beam="2">  1        1 0.64488009E-02 0.88886075E+02</pdfrwt>
<pdfrwt beam="1">  1       -1 0.72493953E-02 0.88886075E+02</pdfrwt>
<totfact> 0.98076643E+04</totfact>
</mgrwt>
</event>
<event>
 7    1  0.2787125E-009  0.9227723E+02  0.7818608E-02  0.1297429E+00
          1   -1    0    0  501    0  0.00000000000E+00  0.00000000000E+00  0.15074525828E+02  0.15074526670E+02  0.50400000000E-02 0. -1.
         -1   -1    0    0    0  501 -0.00000000000E+00 -0.00000000000E+00 -0.14121649244E+03  0.14121649253E+03  0.50400000000E-02 0.  1.
         23    2    1    2    0    0  0.00000000000E+00  0.00000000000E+00 -0.12614196662E+03  0.15629101920E+03  0.92277228730E+02 0.  0.
    9000005    2    3    3    0    0 -0.18845880233E+02 -0.24256368806E+02 -0.12107122561E+03  0.12515822229E+03  0.79246644157E+01 0.  0.
         22    1    3    3    0    0  0.18845880233E+02  0.24256368806E+02 -0.50707410053E+01  0.31132796915E+02  0.00000000000E+00 0. -1.
         22    1    4    4    0    0 -0.15891222800E+02 -0.19844019980E+02 -0.85723299438E+02  0.89413646372E+02  0.00000000000E+00 0. -1.
         22    1    4    4    0    0 -0.29546574326E+01 -0.44123488261E+01 -0.35347926174E+02  0.35744575917E+02  0.00000000000E+00 0. -1.
<mgrwt>
<rscale>  0 0.92277229E+02</rscale>
<asrwt>0</asrwt>
<pdfrwt beam="1">  1        1 0.23191580E-02 0.92277229E+02</pdfrwt>
<pdfrwt beam="2">  1       -1 0.21725613E-01 0.92277229E+02</pdfrwt>
<totfact> 0.73507107E+04</totfact>
</mgrwt>
</event>
<event>
 7    1  0.2787125E-009  0.8515706E+02  0.7818608E-02  0.1315022E+00
          1   -1    0    0  501    0  0.00000000000E+00  0.00000000000E+00  0.22919931557E+02  0.22919932111E+02  0.50400000000E-02 0. -1.
         -1   -1    0    0    0  501 -0.00000000000E+00 -0.00000000000E+00 -0.79098452925E+02  0.79098453086E+02  0.50400000000E-02 0.  1.
         23    2    1    2    0    0  0.00000000000E+00 -0.44408920985E-15 -0.56178521369E+02  0.10201838520E+03  0.85157058750E+02 0.  0.
    9000005    2    3    3    0    0 -0.15264023819E+02 -0.23270164197E+01  0.17822459554E+02  0.26423738520E+02  0.11923441796E+02 0.  0.
         22    1    3    3    0    0  0.15264023819E+02  0.23270164197E+01 -0.74000980923E+02  0.75594646676E+02  0.00000000000E+00 0.  1.
         22    1    4    4    0    0 -0.37390651509E+01  0.46328870817E+01  0.66753193495E+01  0.89445033027E+01  0.00000000000E+00 0.  1.
         22    1    4    4    0    0 -0.11524958668E+02 -0.69599035014E+01  0.11147140205E+02  0.17479235218E+02  0.00000000000E+00 0.  1.
<mgrwt>
<rscale>  0 0.85157059E+02</rscale>
<asrwt>0</asrwt>
<pdfrwt beam="1">  1        1 0.35261434E-02 0.85157059E+02</pdfrwt>
<pdfrwt beam="2">  1       -1 0.12168993E-01 0.85157059E+02</pdfrwt>
<totfact> 0.10098274E+05</totfact>
</mgrwt>
</event>
<event>
 7    1  0.2787125E-009  0.9229793E+02  0.7818608E-02  0.1297380E+00
         -1   -1    0    0    0  501 -0.00000000000E+00  0.00000000000E+00  0.88483159521E+01  0.88483173874E+01  0.50400000000E-02 0.  1.
          1   -1    0    0  501    0  0.00000000000E+00 -0.00000000000E+00 -0.24069287555E+03  0.24069287560E+03  0.50400000000E-02 0. -1.
         23    2    1    2    0    0 -0.35527136788E-14  0.00000000000E+00 -0.23184455960E+03  0.24954119299E+03  0.92297926216E+02 0.  0.
    9000005    2    3    3    0    0  0.21629217815E+02 -0.11077236178E+02 -0.22123682874E+03  0.22302606186E+03  0.14295511709E+02 0.  0.
         22    1    3    3    0    0 -0.21629217815E+02  0.11077236178E+02 -0.10607730856E+02  0.26515131125E+02  0.00000000000E+00 0.  1.
         22    1    4    4    0    0  0.54800956218E+01 -0.28421283953E+01 -0.12139876800E+03  0.12155562519E+03  0.00000000000E+00 0. -1.
         22    1    4    4    0    0  0.16149122193E+02 -0.82351077830E+01 -0.99838060735E+02  0.10147043668E+03  0.00000000000E+00 0. -1.
<mgrwt>
<rscale>  0 0.92297926E+02</rscale>
<asrwt>0</asrwt>
<pdfrwt beam="2">  1        1 0.37029668E-01 0.92297926E+02</pdfrwt>
<pdfrwt beam="1">  1       -1 0.13612797E-02 0.92297926E+02</pdfrwt>
<totfact> 0.11880819E+05</totfact>
</mgrwt>
</event>
<event>
 7    1  0.2787125E-009  0.9009375E+02  0.7818608E-02  0.1302625E+00
          1   -1    0    0  501    0  0.00000000000E+00  0.00000000000E+00  0.68851038199E+03  0.68851038201E+03  0.50400000000E-02 0. -1.
         -1   -1    0    0    0  501 -0.00000000000E+00 -0.00000000000E+00 -0.29472608134E+01  0.29472651228E+01  0.50400000000E-02 0.  1.
         23    2    1    2    0    0  0.00000000000E+00  0.17763568394E-14  0.68556312118E+03  0.69145764713E+03  0.90093754828E+02 0.  0.
    9000005    2    3    3    0    0  0.25435400348E+02  0.98254121416E+01  0.61764435893E+03  0.61826982997E+03  0.54341722898E+01 0.  0.
         22    1    3    3    0    0 -0.25435400348E+02 -0.98254121416E+01  0.67918762252E+02  0.73187817159E+02  0.00000000000E+00 0.  1.
         22    1    4    4    0    0  0.26504075979E+01  0.27608029418E+01  0.10733468299E+03  0.10740289039E+03  0.00000000000E+00 0. -1.
         22    1    4    4    0    0  0.22784992750E+02  0.70646091998E+01  0.51030967594E+03  0.51086693958E+03  0.00000000000E+00 0. -1.
<mgrwt>
<rscale>  0 0.90093755E+02</rscale>
<asrwt>0</asrwt>
<pdfrwt beam="1">  1        1 0.10592473E+00 0.90093755E+02</pdfrwt>
<pdfrwt beam="2">  1       -1 0.45342483E-03 0.90093755E+02</pdfrwt>
<totfact> 0.14674969E+05</totfact>
</mgrwt>
</event>
<event>
 7    1  0.2787125E-009  0.9119599E+02  0.7818608E-02  0.1299981E+00
          1   -1    0    0  501    0  0.00000000000E+00  0.00000000000E+00  0.86863153962E+02  0.86863154108E+02  0.50400000000E-02 0. -1.
         -1   -1    0    0    0  501 -0.00000000000E+00 -0.00000000000E+00 -0.23936236679E+02  0.23936237210E+02  0.50400000000E-02 0.  1.
         23    2    1    2    0    0  0.00000000000E+00  0.00000000000E+00  0.62926917283E+02  0.11079939132E+03  0.91195987838E+02 0.  0.
    9000005    2    3    3    0    0 -0.29150755905E+02 -0.34025172329E+02  0.27437837991E+02  0.53642119945E+02  0.10824193122E+02 0.  0.
         22    1    3    3    0    0  0.29150755905E+02  0.34025172329E+02  0.35489079292E+02  0.57157271373E+02  0.00000000000E+00 0.  1.
         22    1    4    4    0    0 -0.24447826579E+02 -0.21910227669E+02  0.16975998064E+02  0.36958609433E+02  0.00000000000E+00 0. -1.
         22    1    4    4    0    0 -0.47029293262E+01 -0.12114944660E+02  0.10461839926E+02  0.16683510512E+02  0.00000000000E+00 0. -1.
<mgrwt>
<rscale>  0 0.91195988E+02</rscale>
<asrwt>0</asrwt>
<pdfrwt beam="1">  1        1 0.13363562E-01 0.91195988E+02</pdfrwt>
<pdfrwt beam="2">  1       -1 0.36824980E-02 0.91195988E+02</pdfrwt>
<totfact> 0.10201511E+05</totfact>
</mgrwt>
</event>
<event>
 7    1  0.2787125E-009  0.9106401E+02  0.7818608E-02  0.1300295E+00
          1   -1    0    0  501    0  0.00000000000E+00  0.00000000000E+00  0.16181487753E+04  0.16181487753E+04  0.50400000000E-02 0. -1.
         -1   -1    0    0    0  501 -0.00000000000E+00 -0.00000000000E+00 -0.12811897375E+01  0.12811996508E+01  0.50400000000E-02 0.  1.
         23    2    1    2    0    0 -0.88817841970E-15  0.00000000000E+00  0.16168675856E+04  0.16194299750E+04  0.91064013485E+02 0.  0.
    9000005    2    3    3    0    0 -0.72267384478E+01  0.18135894194E+02  0.15393495711E+04  0.15394913799E+04  0.74478500316E+01 0.  0.
         22    1    3    3    0    0  0.72267384478E+01 -0.18135894194E+02  0.77518014492E+02  0.79938595043E+02  0.00000000000E+00 0.  1.
         22    1    4    4    0    0 -0.66952257323E+01  0.11678603101E+02  0.12318836634E+04  0.12319572135E+04  0.00000000000E+00 0.  1.
         22    1    4    4    0    0 -0.53151271556E+00  0.64572910932E+01  0.30746590774E+03  0.30753416645E+03  0.00000000000E+00 0.  1.
<mgrwt>
<rscale>  0 0.91064013E+02</rscale>
<asrwt>0</asrwt>
<pdfrwt beam="1">  1        1 0.24894400E+00 0.91064013E+02</pdfrwt>
<pdfrwt beam="2">  1       -1 0.19710843E-03 0.91064013E+02</pdfrwt>
<totfact> 0.10362072E+05</totfact>
</mgrwt>
</event>
<event>
 7    1  0.2787125E-009  0.1111894E+03  0.7818608E-02  0.1258383E+00
         -1   -1    0    0    0  501 -0.00000000000E+00  0.00000000000E+00  0.42402011690E+02  0.42402011990E+02  0.50400000000E-02 0.  1.
          1   -1    0    0  501    0  0.00000000000E+00 -0.00000000000E+00 -0.72892100574E+02  0.72892100749E+02  0.50400000000E-02 0. -1.
         23    2    1    2    0    0  0.88817841970E-15 -0.14210854715E-13 -0.30490088884E+02  0.11529411274E+03  0.11118941906E+03 0.  0.
    9000005    2    3    3    0    0  0.76090489659E+01 -0.54388674750E+02 -0.18949008565E+02  0.59176182429E+02  0.11257445273E+02 0.  0.
         22    1    3    3    0    0 -0.76090489659E+01  0.54388674750E+02 -0.11541080320E+02  0.56117930309E+02  0.00000000000E+00 0. -1.
         22    1    4    4    0    0  0.21205043532E+01 -0.10366084094E+02 -0.85669431928E+01  0.13614138013E+02  0.00000000000E+00 0.  1.
         22    1    4    4    0    0  0.54885446127E+01 -0.44022590656E+02 -0.10382065372E+02  0.45562044417E+02  0.00000000000E+00 0.  1.
<mgrwt>
<rscale>  0 0.11118942E+03</rscale>
<asrwt>0</asrwt>
<pdfrwt beam="2">  1        1 0.11214169E-01 0.11118942E+03</pdfrwt>
<pdfrwt beam="1">  1       -1 0.65233865E-02 0.11118942E+03</pdfrwt>
<totfact> 0.57016100E+04</totfact>
</mgrwt>
</event>
<event>
 7    1  0.2787125E-009  0.9584177E+02  0.7818608E-02  0.1289291E+00
          1   -1    0    0  501    0  0.00000000000E+00  0.00000000000E+00  0.14551888367E+02  0.14551889240E+02  0.50400000000E-02 0. -1.
         -1   -1    0    0    0  501 -0.00000000000E+00 -0.00000000000E+00 -0.15780845328E+03  0.15780845336E+03  0.50400000000E-02 0.  1.
         23    2    1    2    0    0 -0.71054273576E-14  0.00000000000E+00 -0.14325656491E+03  0.17236034260E+03  0.95841767048E+02 0.  0.
    9000005    2    3    3    0    0  0.39751861752E+02 -0.27181065451E+01 -0.27257999421E+02  0.49709350709E+02  0.11849995762E+02 0.  0.
         22    1    3    3    0    0 -0.39751861752E+02  0.27181065451E+01 -0.11599856549E+03  0.12265099189E+03  0.00000000000E+00 0.  1.
         22    1    4    4    0    0  0.35601194506E+02  0.10652459165E+01 -0.21202127879E+02  0.41450090780E+02  0.00000000000E+00 0. -1.
         22    1    4    4    0    0  0.41506672460E+01 -0.37833524616E+01 -0.60558715419E+01  0.82592599286E+01  0.00000000000E+00 0. -1.
<mgrwt>
<rscale>  0 0.95841767E+02</rscale>
<asrwt>0</asrwt>
<pdfrwt beam="1">  1        1 0.22387522E-02 0.95841767E+02</pdfrwt>
<pdfrwt beam="2">  1       -1 0.24278222E-01 0.95841767E+02</pdfrwt>
<totfact> 0.64891384E+04</totfact>
</mgrwt>
</event>
<event>
 7    1  0.2787125E-009  0.9104196E+02  0.7818608E-02  0.1300348E+00
          1   -1    0    0  501    0  0.00000000000E+00  0.00000000000E+00  0.32002348839E+02  0.32002349236E+02  0.50400000000E-02 0. -1.
         -1   -1    0    0    0  501 -0.00000000000E+00 -0.00000000000E+00 -0.64750238338E+02  0.64750238534E+02  0.50400000000E-02 0.  1.
         23    2    1    2    0    0 -0.71054273576E-14  0.00000000000E+00 -0.32747889500E+02  0.96752587770E+02  0.91041962707E+02 0.  0.
    9000005    2    3    3    0    0 -0.45096313461E+02 -0.32586905016E+01 -0.21838388376E+02  0.50241150829E+02  0.17208945806E+01 0.  0.
         22    1    3    3    0    0  0.45096313461E+02  0.32586905016E+01 -0.10909501124E+02  0.46511436941E+02  0.00000000000E+00 0.  1.
         22    1    4    4    0    0 -0.22084270295E+02 -0.21427972662E+01 -0.99752699835E+01  0.24327198479E+02  0.00000000000E+00 0. -1.
         22    1    4    4    0    0 -0.23012043166E+02 -0.11158932353E+01 -0.11863118392E+02  0.25913952349E+02  0.00000000000E+00 0. -1.
<mgrwt>
<rscale>  0 0.91041963E+02</rscale>
<asrwt>0</asrwt>
<pdfrwt beam="1">  1        1 0.49234383E-02 0.91041963E+02</pdfrwt>
<pdfrwt beam="2">  1       -1 0.99615751E-02 0.91041963E+02</pdfrwt>
<totfact> 0.87956560E+04</totfact>
</mgrwt>
</event>
<event>
 7    1  0.2787125E-009  0.9224368E+02  0.7818608E-02  0.1297508E+00
         -1   -1    0    0    0  501 -0.00000000000E+00  0.00000000000E+00  0.91141770210E+01  0.91141784146E+01  0.50400000000E-02 0.  1.
          1   -1    0    0  501    0  0.00000000000E+00 -0.00000000000E+00 -0.23339724381E+03  0.23339724386E+03  0.50400000000E-02 0. -1.
         23    2    1    2    0    0  0.00000000000E+00  0.00000000000E+00 -0.22428306679E+03  0.24251142228E+03  0.92243676680E+02 0.  0.
    9000005    2    3    3    0    0  0.34678448007E+02 -0.18022735252E+02 -0.56528885814E+02  0.70264857795E+02  0.14636309894E+02 0.  0.
         22    1    3    3    0    0 -0.34678448007E+02  0.18022735252E+02 -0.16775418097E+03  0.17224656448E+03  0.00000000000E+00 0. -1.
         22    1    4    4    0    0  0.85240275760E+01 -0.99586643943E+01 -0.10860293264E+02  0.17022926083E+02  0.00000000000E+00 0. -1.
         22    1    4    4    0    0  0.26154420431E+02 -0.80640708581E+01 -0.45668592550E+02  0.53241931712E+02  0.00000000000E+00 0. -1.
<mgrwt>
<rscale>  0 0.92243677E+02</rscale>
<asrwt>0</asrwt>
<pdfrwt beam="2">  1        1 0.35907264E-01 0.92243677E+02</pdfrwt>
<pdfrwt beam="1">  1       -1 0.14021814E-02 0.92243677E+02</pdfrwt>
<totfact> 0.11828075E+05</totfact>
</mgrwt>
</event>
<event>
 7    1  0.2787125E-009  0.9123659E+02  0.7818608E-02  0.1299884E+00
         -1   -1    0    0    0  501 -0.00000000000E+00  0.00000000000E+00  0.41265321191E+01  0.41265351969E+01  0.50400000000E-02 0.  1.
          1   -1    0    0  501    0  0.00000000000E+00 -0.00000000000E+00 -0.50430429475E+03  0.50430429477E+03  0.50400000000E-02 0. -1.
         23    2    1    2    0    0  0.00000000000E+00  0.00000000000E+00 -0.50017776263E+03  0.50843082997E+03  0.91236586058E+02 0.  0.
    9000005    2    3    3    0    0 -0.54854588133E+01  0.87042126389E+01 -0.49748049798E+03  0.49779462705E+03  0.14380238893E+02 0.  0.
         22    1    3    3    0    0  0.54854588133E+01 -0.87042126389E+01 -0.26972646506E+01  0.10636202924E+02  0.00000000000E+00 0.  1.
         22    1    4    4    0    0 -0.14571896493E+01  0.12228272594E+02 -0.33725140208E+03  0.33747616547E+03  0.00000000000E+00 0. -1.
         22    1    4    4    0    0 -0.40282691640E+01 -0.35240599555E+01 -0.16022909590E+03  0.16031846158E+03  0.00000000000E+00 0. -1.
<mgrwt>
<rscale>  0 0.91236586E+02</rscale>
<asrwt>0</asrwt>
<pdfrwt beam="2">  1        1 0.77585228E-01 0.91236586E+02</pdfrwt>
<pdfrwt beam="1">  1       -1 0.63485173E-03 0.91236586E+02</pdfrwt>
<totfact> 0.13916283E+05</totfact>
</mgrwt>
</event>
<event>
 7    1  0.2787125E-009  0.9038621E+02  0.7818608E-02  0.1301919E+00
          1   -1    0    0  501    0  0.00000000000E+00  0.00000000000E+00  0.18546962029E+01  0.18547030508E+01  0.50400000000E-02 0. -1.
         -1   -1    0    0    0  501 -0.00000000000E+00 -0.00000000000E+00 -0.11012115679E+04  0.11012115679E+04  0.50400000000E-02 0.  1.
         23    2    1    2    0    0  0.00000000000E+00  0.00000000000E+00 -0.10993568717E+04  0.11030662709E+04  0.90386209053E+02 0.  0.
    9000005    2    3    3    0    0 -0.21271142879E+02  0.24166370335E+02 -0.93634827397E+03  0.93690888199E+03  0.36997330003E+01 0.  0.
         22    1    3    3    0    0  0.21271142879E+02 -0.24166370335E+02 -0.16300859770E+03  0.16615738894E+03  0.00000000000E+00 0.  1.
         22    1    4    4    0    0 -0.33792668399E+00  0.10291508355E+01 -0.49648196832E+02  0.49660012027E+02  0.00000000000E+00 0.  1.
         22    1    4    4    0    0 -0.20933216195E+02  0.23137219500E+02 -0.88670007713E+03  0.88724886997E+03  0.00000000000E+00 0.  1.
<mgrwt>
<rscale>  0 0.90386209E+02</rscale>
<asrwt>0</asrwt>
<pdfrwt beam="1">  1        1 0.28533928E-03 0.90386209E+02</pdfrwt>
<pdfrwt beam="2">  1       -1 0.16941664E+00 0.90386209E+02</pdfrwt>
<totfact> 0.23204448E+04</totfact>
</mgrwt>
</event>
<event>
 7    1  0.2787125E-009  0.8814355E+02  0.7818608E-02  0.1307411E+00
          1   -1    0    0  501    0  0.00000000000E+00  0.00000000000E+00  0.92674388647E+02  0.92674388784E+02  0.50400000000E-02 0. -1.
         -1   -1    0    0    0  501 -0.00000000000E+00 -0.00000000000E+00 -0.20958555038E+02  0.20958555644E+02  0.50400000000E-02 0.  1.
         23    2    1    2    0    0  0.00000000000E+00  0.00000000000E+00  0.71715833609E+02  0.11363294443E+03  0.88143549220E+02 0.  0.
    9000005    2    3    3    0    0 -0.43224089022E+02  0.63017146777E+01  0.40299376726E+02  0.59827487058E+02  0.68742245826E+01 0.  0.
         22    1    3    3    0    0  0.43224089022E+02 -0.63017146777E+01  0.31416456883E+02  0.53805457369E+02  0.00000000000E+00 0.  1.
         22    1    4    4    0    0 -0.20639886245E+01  0.73797438753E+00  0.44534694908E+01  0.49636726065E+01  0.00000000000E+00 0.  1.
         22    1    4    4    0    0 -0.41160100397E+02  0.55637402902E+01  0.35845907235E+02  0.54863814452E+02  0.00000000000E+00 0.  1.
<mgrwt>
<rscale>  0 0.88143549E+02</rscale>
<asrwt>0</asrwt>
<pdfrwt beam="1">  1        1 0.14257599E-01 0.88143549E+02</pdfrwt>
<pdfrwt beam="2">  1       -1 0.32243931E-02 0.88143549E+02</pdfrwt>
<totfact> 0.11310883E+05</totfact>
</mgrwt>
</event>
<event>
 7    1  0.2787125E-009  0.9319439E+02  0.7818608E-02  0.1295295E+00
         -1   -1    0    0    0  501 -0.00000000000E+00  0.00000000000E+00  0.85000462119E+01  0.85000477061E+01  0.50400000000E-02 0.  1.
          1   -1    0    0  501    0  0.00000000000E+00 -0.00000000000E+00 -0.25544548677E+03  0.25544548682E+03  0.50400000000E-02 0. -1.
         23    2    1    2    0    0  0.71054273576E-14 -0.11102230246E-15 -0.24694544055E+03  0.26394553452E+03  0.93194391374E+02 0.  0.
    9000005    2    3    3    0    0  0.36195489461E+02 -0.59382747801E+00 -0.50241292313E+02  0.63938064602E+02  0.15919251345E+02 0.  0.
         22    1    3    3    0    0 -0.36195489461E+02  0.59382747801E+00 -0.19670414824E+03  0.20000746992E+03  0.00000000000E+00 0. -1.
         22    1    4    4    0    0  0.17722076036E+01 -0.24959807517E+01 -0.12289804307E+02  0.12665304165E+02  0.00000000000E+00 0.  1.
         22    1    4    4    0    0  0.34423281857E+02  0.19021532737E+01 -0.37951488006E+02  0.51272760437E+02  0.00000000000E+00 0.  1.
<mgrwt>
<rscale>  0 0.93194391E+02</rscale>
<asrwt>0</asrwt>
<pdfrwt beam="2">  1        1 0.39299300E-01 0.93194391E+02</pdfrwt>
<pdfrwt beam="1">  1       -1 0.13076997E-02 0.93194391E+02</pdfrwt>
<totfact> 0.11712626E+05</totfact>
</mgrwt>
</event>
<event>
 7    1  0.2787125E-009  0.9309441E+02  0.7818608E-02  0.1295527E+00
          1   -1    0    0  501    0  0.00000000000E+00  0.00000000000E+00  0.68221497259E+02  0.68221497446E+02  0.50400000000E-02 0. -1.
         -1   -1    0    0    0  501 -0.00000000000E+00 -0.00000000000E+00 -0.31758940844E+02  0.31758941244E+02  0.50400000000E-02 0.  1.
         23    2    1    2    0    0 -0.17763568394E-14 -0.71054273576E-14  0.36462556416E+02  0.99980438689E+02  0.93094414978E+02 0.  0.
    9000005    2    3    3    0    0  0.15492304978E+02  0.41588971754E+02  0.29823808721E+02  0.55105868429E+02  0.13324529397E+02 0.  0.
         22    1    3    3    0    0 -0.15492304978E+02 -0.41588971754E+02  0.66387476951E+01  0.44874570260E+02  0.00000000000E+00 0.  1.
         22    1    4    4    0    0  0.75741656553E+01  0.15293337853E+02  0.19127820119E+02  0.25634501567E+02  0.00000000000E+00 0. -1.
         22    1    4    4    0    0  0.79181393226E+01  0.26295633901E+02  0.10695988601E+02  0.29471366862E+02  0.00000000000E+00 0. -1.
<mgrwt>
<rscale>  0 0.93094415E+02</rscale>
<asrwt>0</asrwt>
<pdfrwt beam="1">  1        1 0.10495615E-01 0.93094415E+02</pdfrwt>
<pdfrwt beam="2">  1       -1 0.48859910E-02 0.93094415E+02</pdfrwt>
<totfact> 0.92776343E+04</totfact>
</mgrwt>
</event>
<event>
 7    1  0.2787125E-009  0.9050682E+02  0.7818608E-02  0.1301629E+00
         -1   -1    0    0    0  501 -0.00000000000E+00  0.00000000000E+00  0.97177501439E+01  0.97177514508E+01  0.50400000000E-02 0.  1.
          1   -1    0    0  501    0  0.00000000000E+00 -0.00000000000E+00 -0.21073509665E+03  0.21073509671E+03  0.50400000000E-02 0. -1.
         23    2    1    2    0    0  0.17763568394E-14  0.00000000000E+00 -0.20101734651E+03  0.22045284816E+03  0.90506821102E+02 0.  0.
    9000005    2    3    3    0    0 -0.11623743134E+02  0.41777445657E+02 -0.12566195361E+03  0.13351090426E+03  0.12400346862E+02 0.  0.
         22    1    3    3    0    0  0.11623743134E+02 -0.41777445657E+02 -0.75355392899E+02  0.86941943900E+02  0.00000000000E+00 0. -1.
         22    1    4    4    0    0  0.22560869115E+01  0.11111094070E+02 -0.27877129475E+02  0.30094529193E+02  0.00000000000E+00 0.  1.
         22    1    4    4    0    0 -0.13879830046E+02  0.30666351587E+02 -0.97784824131E+02  0.10341637507E+03  0.00000000000E+00 0.  1.
<mgrwt>
<rscale>  0 0.90506821E+02</rscale>
<asrwt>0</asrwt>
<pdfrwt beam="2">  1        1 0.32420781E-01 0.90506821E+02</pdfrwt>
<pdfrwt beam="1">  1       -1 0.14950387E-02 0.90506821E+02</pdfrwt>
<totfact> 0.12200085E+05</totfact>
</mgrwt>
</event>
<event>
 7    1  0.2787125E-009  0.9214362E+02  0.7818608E-02  0.1297742E+00
         -1   -1    0    0    0  501 -0.00000000000E+00  0.00000000000E+00  0.13975373625E+02  0.13975374534E+02  0.50400000000E-02 0.  1.
          1   -1    0    0  501    0  0.00000000000E+00 -0.00000000000E+00 -0.15188227301E+03  0.15188227309E+03  0.50400000000E-02 0. -1.
         23    2    1    2    0    0  0.00000000000E+00  0.00000000000E+00 -0.13790689938E+03  0.16585764763E+03  0.92143618219E+02 0.  0.
    9000005    2    3    3    0    0  0.41432339373E+02  0.49038406353E+01 -0.10007507750E+03  0.10953772979E+03  0.15582256264E+02 0.  0.
         22    1    3    3    0    0 -0.41432339373E+02 -0.49038406353E+01 -0.37831821880E+02  0.56319917841E+02  0.00000000000E+00 0. -1.
         22    1    4    4    0    0  0.42301077521E+01  0.52215967105E+01 -0.22860880956E+02  0.23828108651E+02  0.00000000000E+00 0. -1.
         22    1    4    4    0    0  0.37202231621E+02 -0.31775607524E+00 -0.77214196549E+02  0.85709621135E+02  0.00000000000E+00 0. -1.
<mgrwt>
<rscale>  0 0.92143618E+02</rscale>
<asrwt>0</asrwt>
<pdfrwt beam="2">  1        1 0.23366502E-01 0.92143618E+02</pdfrwt>
<pdfrwt beam="1">  1       -1 0.21500577E-02 0.92143618E+02</pdfrwt>
<totfact> 0.10923373E+05</totfact>
</mgrwt>
</event>
<event>
 7    1  0.2787125E-009  0.8865033E+02  0.7818608E-02  0.1306153E+00
          1   -1    0    0  501    0  0.00000000000E+00  0.00000000000E+00  0.67512108538E+02  0.67512108726E+02  0.50400000000E-02 0. -1.
         -1   -1    0    0    0  501 -0.00000000000E+00 -0.00000000000E+00 -0.29101746605E+02  0.29101747041E+02  0.50400000000E-02 0.  1.
         23    2    1    2    0    0  0.88817841970E-15 -0.35527136788E-14  0.38410361933E+02  0.96613855767E+02  0.88650331203E+02 0.  0.
    9000005    2    3    3    0    0  0.40586171365E+01 -0.31982782644E+02  0.51405902030E+02  0.61853895740E+02  0.11998620584E+02 0.  0.
         22    1    3    3    0    0 -0.40586171365E+01  0.31982782644E+02 -0.12995540097E+02  0.34759960028E+02  0.00000000000E+00 0.  1.
         22    1    4    4    0    0  0.54039141938E+01 -0.71388943643E+01  0.90469417209E+01  0.12728442790E+02  0.00000000000E+00 0. -1.
         22    1    4    4    0    0 -0.13452970572E+01 -0.24843888280E+02  0.42358960309E+02  0.49125452950E+02  0.00000000000E+00 0. -1.
<mgrwt>
<rscale>  0 0.88650331E+02</rscale>
<asrwt>0</asrwt>
<pdfrwt beam="1">  1        1 0.10386478E-01 0.88650331E+02</pdfrwt>
<pdfrwt beam="2">  1       -1 0.44771919E-02 0.88650331E+02</pdfrwt>
<totfact> 0.10601264E+05</totfact>
</mgrwt>
</event>
<event>
 7    1  0.2787125E-009  0.8888485E+02  0.7818608E-02  0.1305575E+00
         -1   -1    0    0    0  501 -0.00000000000E+00  0.00000000000E+00  0.11499622793E+02  0.11499623898E+02  0.50400000000E-02 0.  1.
          1   -1    0    0  501    0  0.00000000000E+00 -0.00000000000E+00 -0.17175597460E+03  0.17175597467E+03  0.50400000000E-02 0. -1.
         23    2    1    2    0    0  0.00000000000E+00  0.00000000000E+00 -0.16025635181E+03  0.18325559857E+03  0.88884847491E+02 0.  0.
    9000005    2    3    3    0    0  0.71347329939E+01 -0.26516502100E+02 -0.10114660844E+02  0.30623502787E+02  0.90256999955E+01 0.  0.
         22    1    3    3    0    0 -0.71347329939E+01  0.26516502100E+02 -0.15014169096E+03  0.15263209579E+03  0.00000000000E+00 0. -1.
         22    1    4    4    0    0 -0.20311154362E+01 -0.65272273936E+01 -0.14533131415E+01  0.69887228054E+01  0.00000000000E+00 0. -1.
         22    1    4    4    0    0  0.91658484301E+01 -0.19989274707E+02 -0.86613477025E+01  0.23634779981E+02  0.00000000000E+00 0. -1.
<mgrwt>
<rscale>  0 0.88884847E+02</rscale>
<asrwt>0</asrwt>
<pdfrwt beam="2">  1        1 0.26423994E-01 0.88884847E+02</pdfrwt>
<pdfrwt beam="1">  1       -1 0.17691730E-02 0.88884847E+02</pdfrwt>
<totfact> 0.12313058E+05</totfact>
</mgrwt>
</event>
<event>
 7    1  0.2787125E-009  0.9021284E+02  0.7818608E-02  0.1302337E+00
         -1   -1    0    0    0  501 -0.00000000000E+00  0.00000000000E+00  0.86786598825E+02  0.86786598971E+02  0.50400000000E-02 0.  1.
          1   -1    0    0  501    0  0.00000000000E+00 -0.00000000000E+00 -0.23443587776E+02  0.23443588318E+02  0.50400000000E-02 0. -1.
         23    2    1    2    0    0 -0.17763568394E-14 -0.35527136788E-14  0.63343011049E+02  0.11023018729E+03  0.90212843548E+02 0.  0.
    9000005    2    3    3    0    0 -0.12692308737E+02 -0.30689109204E+02 -0.28408624537E+01  0.36181411225E+02  0.14075080601E+02 0.  0.
         22    1    3    3    0    0  0.12692308737E+02  0.30689109204E+02  0.66183873502E+02  0.74048776064E+02  0.00000000000E+00 0.  1.
         22    1    4    4    0    0 -0.11006441651E+02 -0.16881673767E+02 -0.75131927936E+01  0.21507690088E+02  0.00000000000E+00 0.  1.
         22    1    4    4    0    0 -0.16858670861E+01 -0.13807435438E+02  0.46723303399E+01  0.14673721137E+02  0.00000000000E+00 0.  1.
<mgrwt>
<rscale>  0 0.90212844E+02</rscale>
<asrwt>0</asrwt>
<pdfrwt beam="2">  1        1 0.36067059E-02 0.90212844E+02</pdfrwt>
<pdfrwt beam="1">  1       -1 0.13351784E-01 0.90212844E+02</pdfrwt>
<totfact> 0.85780380E+04</totfact>
</mgrwt>
</event>
<event>
 7    1  0.2787125E-009  0.8998528E+02  0.7818608E-02  0.1302887E+00
          1   -1    0    0  501    0  0.00000000000E+00  0.00000000000E+00  0.54590128734E+02  0.54590128966E+02  0.50400000000E-02 0. -1.
         -1   -1    0    0    0  501 -0.00000000000E+00 -0.00000000000E+00 -0.37082482910E+02  0.37082483252E+02  0.50400000000E-02 0.  1.
         23    2    1    2    0    0  0.00000000000E+00 -0.35527136788E-14  0.17507645824E+02  0.91672612219E+02  0.89985277511E+02 0.  0.
    9000005    2    3    3    0    0 -0.25867073516E+02 -0.25320586276E+02  0.35740561338E+02  0.51142662925E+02  0.52864605038E+01 0.  0.
         22    1    3    3    0    0  0.25867073516E+02  0.25320586276E+02 -0.18232915515E+02  0.40529949294E+02  0.00000000000E+00 0.  1.
         22    1    4    4    0    0 -0.14285769617E+02 -0.15315050853E+02  0.17199525848E+02  0.27100879794E+02  0.00000000000E+00 0. -1.
         22    1    4    4    0    0 -0.11581303898E+02 -0.10005535422E+02  0.18541035490E+02  0.24041783131E+02  0.00000000000E+00 0. -1.
<mgrwt>
<rscale>  0 0.89985278E+02</rscale>
<asrwt>0</asrwt>
<pdfrwt beam="1">  1        1 0.83984814E-02 0.89985278E+02</pdfrwt>
<pdfrwt beam="2">  1       -1 0.57049974E-02 0.89985278E+02</pdfrwt>
<totfact> 0.98546351E+04</totfact>
</mgrwt>
</event>
<event>
 7    1  0.2787125E-009  0.9259359E+02  0.7818608E-02  0.1296690E+00
         -1   -1    0    0    0  501 -0.00000000000E+00  0.00000000000E+00  0.62178111821E+01  0.62178132247E+01  0.50400000000E-02 0.  1.
          1   -1    0    0  501    0  0.00000000000E+00 -0.00000000000E+00 -0.34471823099E+03  0.34471823102E+03  0.50400000000E-02 0. -1.
         23    2    1    2    0    0 -0.88817841970E-15  0.00000000000E+00 -0.33850041981E+03  0.35093604425E+03  0.92593590193E+02 0.  0.
    9000005    2    3    3    0    0 -0.74340303204E+01  0.16606817393E+02 -0.33029480282E+03  0.33097650165E+03  0.10942425757E+02 0.  0.
         22    1    3    3    0    0  0.74340303204E+01 -0.16606817393E+02 -0.82056169825E+01  0.19959542600E+02  0.00000000000E+00 0.  1.
         22    1    4    4    0    0  0.14371843814E+01  0.93100379216E+01 -0.12061918423E+03  0.12098648647E+03  0.00000000000E+00 0.  1.
         22    1    4    4    0    0 -0.88712147018E+01  0.72967794714E+01 -0.20967561860E+03  0.20999001518E+03  0.00000000000E+00 0.  1.
<mgrwt>
<rscale>  0 0.92593590E+02</rscale>
<asrwt>0</asrwt>
<pdfrwt beam="2">  1        1 0.53033559E-01 0.92593590E+02</pdfrwt>
<pdfrwt beam="1">  1       -1 0.95658676E-03 0.92593590E+02</pdfrwt>
<totfact> 0.12618401E+05</totfact>
</mgrwt>
</event>
<event>
 7    1  0.2787125E-009  0.9134621E+02  0.7818608E-02  0.1299624E+00
          1   -1    0    0  501    0  0.00000000000E+00  0.00000000000E+00  0.71129820085E+01  0.71129837940E+01  0.50400000000E-02 0. -1.
         -1   -1    0    0    0  501 -0.00000000000E+00 -0.00000000000E+00 -0.29327115231E+03  0.29327115235E+03  0.50400000000E-02 0.  1.
         23    2    1    2    0    0 -0.17763568394E-14 -0.35527136788E-14 -0.28615817030E+03  0.30038413615E+03  0.91346214035E+02 0.  0.
    9000005    2    3    3    0    0 -0.14238005921E+02 -0.27781501803E+02 -0.25269917823E+03  0.25462348924E+03  0.13091748631E+01 0.  0.
         22    1    3    3    0    0  0.14238005921E+02  0.27781501803E+02 -0.33458992070E+02  0.45760646907E+02  0.00000000000E+00 0. -1.
         22    1    4    4    0    0 -0.91210876800E+01 -0.16535926205E+02 -0.15046262700E+03  0.15164311135E+03  0.00000000000E+00 0. -1.
         22    1    4    4    0    0 -0.51169182413E+01 -0.11245575598E+02 -0.10223655123E+03  0.10298037789E+03  0.00000000000E+00 0. -1.
<mgrwt>
<rscale>  0 0.91346214E+02</rscale>
<asrwt>0</asrwt>
<pdfrwt beam="1">  1        1 0.10943053E-02 0.91346214E+02</pdfrwt>
<pdfrwt beam="2">  1       -1 0.45118630E-01 0.91346214E+02</pdfrwt>
<totfact> 0.60828700E+04</totfact>
</mgrwt>
</event>
<event>
 7    1  0.2787125E-009  0.9102490E+02  0.7818608E-02  0.1300389E+00
          1   -1    0    0  501    0  0.00000000000E+00  0.00000000000E+00  0.12699574603E+03  0.12699574613E+03  0.50400000000E-02 0. -1.
         -1   -1    0    0    0  501 -0.00000000000E+00 -0.00000000000E+00 -0.16310649981E+02  0.16310650760E+02  0.50400000000E-02 0.  1.
         23    2    1    2    0    0  0.00000000000E+00 -0.35527136788E-14  0.11068509605E+03  0.14330639689E+03  0.91024902649E+02 0.  0.
    9000005    2    3    3    0    0  0.17149206108E+01  0.24312762901E+02  0.11559190926E+03  0.11844421259E+03  0.85726667589E+01 0.  0.
         22    1    3    3    0    0 -0.17149206108E+01 -0.24312762901E+02 -0.49068132120E+01  0.24862184306E+02  0.00000000000E+00 0.  1.
         22    1    4    4    0    0  0.17185047861E+01  0.76729670815E+01  0.21509983671E+02  0.22902119553E+02  0.00000000000E+00 0.  1.
         22    1    4    4    0    0 -0.35841753682E-02  0.16639795819E+02  0.94081925593E+02  0.95542093033E+02  0.00000000000E+00 0.  1.
<mgrwt>
<rscale>  0 0.91024903E+02</rscale>
<asrwt>0</asrwt>
<pdfrwt beam="1">  1        1 0.19537807E-01 0.91024903E+02</pdfrwt>
<pdfrwt beam="2">  1       -1 0.25093308E-02 0.91024903E+02</pdfrwt>
<totfact> 0.10930800E+05</totfact>
</mgrwt>
</event>
<event>
 7    1  0.2787125E-009  0.9043692E+02  0.7818608E-02  0.1301797E+00
          1   -1    0    0  501    0  0.00000000000E+00  0.00000000000E+00  0.75397031419E+03  0.75397031421E+03  0.50400000000E-02 0. -1.
         -1   -1    0    0    0  501 -0.00000000000E+00 -0.00000000000E+00 -0.27119201906E+01  0.27119248739E+01  0.50400000000E-02 0.  1.
         23    2    1    2    0    0  0.00000000000E+00  0.00000000000E+00  0.75125839400E+03  0.75668223908E+03  0.90436919373E+02 0.  0.
    9000005    2    3    3    0    0 -0.17976609276E+02 -0.76656703180E+01  0.71596067367E+03  0.71633561539E+03  0.12454182318E+02 0.  0.
         22    1    3    3    0    0  0.17976609276E+02  0.76656703180E+01  0.35297720329E+02  0.40346623686E+02  0.00000000000E+00 0.  1.
         22    1    4    4    0    0 -0.45905316474E+01 -0.31725387124E+01  0.42117646022E+03  0.42121342408E+03  0.00000000000E+00 0.  1.
         22    1    4    4    0    0 -0.13386077628E+02 -0.44931316056E+01  0.29478421345E+03  0.29512219131E+03  0.00000000000E+00 0.  1.
<mgrwt>
<rscale>  0 0.90436919E+02</rscale>
<asrwt>0</asrwt>
<pdfrwt beam="1">  1        1 0.11599529E+00 0.90436919E+02</pdfrwt>
<pdfrwt beam="2">  1       -1 0.41721938E-03 0.90436919E+02</pdfrwt>
<totfact> 0.14495946E+05</totfact>
</mgrwt>
</event>
<event>
 7    1  0.2787125E-009  0.9900000E+02  0.7818608E-02  0.1282413E+00
         -1   -1    0    0    0  501 -0.00000000000E+00  0.00000000000E+00  0.44728140854E+01  0.44728169250E+01  0.50400000000E-02 0.  1.
          1   -1    0    0  501    0  0.00000000000E+00 -0.00000000000E+00 -0.54780936471E+03  0.54780936473E+03  0.50400000000E-02 0. -1.
         23    2    1    2    0    0  0.00000000000E+00  0.00000000000E+00 -0.54333655062E+03  0.55228218166E+03  0.99000004710E+02 0.  0.
    9000005    2    3    3    0    0 -0.30359698308E+02 -0.31628316320E+02 -0.39805128340E+03  0.40052622445E+03  0.73736411625E+01 0.  0.
         22    1    3    3    0    0  0.30359698308E+02  0.31628316320E+02 -0.14528526722E+03  0.15175595720E+03  0.00000000000E+00 0.  1.
         22    1    4    4    0    0  0.39114626079E+00 -0.90440176164E+00 -0.94699035166E+01  0.95210299105E+01  0.00000000000E+00 0. -1.
         22    1    4    4    0    0 -0.30750844569E+02 -0.30723914558E+02 -0.38858137988E+03  0.39100519454E+03  0.00000000000E+00 0. -1.
<mgrwt>
<rscale>  0 0.99000005E+02</rscale>
<asrwt>0</asrwt>
<pdfrwt beam="2">  1        1 0.84278311E-01 0.99000005E+02</pdfrwt>
<pdfrwt beam="1">  1       -1 0.68812590E-03 0.99000005E+02</pdfrwt>
<totfact> 0.11296327E+05</totfact>
</mgrwt>
</event>
<event>
 7    1  0.2787125E-009  0.9485773E+02  0.7818608E-02  0.1291497E+00
         -1   -1    0    0    0  501 -0.00000000000E+00  0.00000000000E+00  0.48250953789E+02  0.48250954053E+02  0.50400000000E-02 0.  1.
          1   -1    0    0  501    0  0.00000000000E+00 -0.00000000000E+00 -0.46620785916E+02  0.46620786189E+02  0.50400000000E-02 0. -1.
         23    2    1    2    0    0 -0.22204460493E-15  0.00000000000E+00  0.16301678730E+01  0.94871740242E+02  0.94857733734E+02 0.  0.
    9000005    2    3    3    0    0 -0.29094222591E+00 -0.45791042182E+02 -0.43160298637E+01  0.48695323544E+02  0.15990691975E+02 0.  0.
         22    1    3    3    0    0  0.29094222591E+00  0.45791042182E+02  0.59461977366E+01  0.46176416697E+02  0.00000000000E+00 0.  1.
         22    1    4    4    0    0  0.47635936555E+01 -0.48302619868E+01  0.16841777459E+01  0.69899721069E+01  0.00000000000E+00 0. -1.
         22    1    4    4    0    0 -0.50545358814E+01 -0.40960780195E+02 -0.60002076095E+01  0.41705351437E+02  0.00000000000E+00 0. -1.
<mgrwt>
<rscale>  0 0.94857734E+02</rscale>
<asrwt>0</asrwt>
<pdfrwt beam="2">  1        1 0.71724287E-02 0.94857734E+02</pdfrwt>
<pdfrwt beam="1">  1       -1 0.74232236E-02 0.94857734E+02</pdfrwt>
<totfact> 0.82999975E+04</totfact>
</mgrwt>
</event>
<event>
 7    1  0.2787125E-009  0.9534432E+02  0.7818608E-02  0.1290402E+00
         -1   -1    0    0    0  501 -0.00000000000E+00  0.00000000000E+00  0.58968721882E+02  0.58968722097E+02  0.50400000000E-02 0.  1.
          1   -1    0    0  501    0  0.00000000000E+00 -0.00000000000E+00 -0.38539668585E+02  0.38539668915E+02  0.50400000000E-02 0. -1.
         23    2    1    2    0    0  0.00000000000E+00  0.00000000000E+00  0.20429053297E+02  0.97508391012E+02  0.95344323896E+02 0.  0.
    9000005    2    3    3    0    0 -0.10010424460E+02 -0.29292280321E+02 -0.26047542624E+02  0.41666469012E+02  0.99686447862E+01 0.  0.
         22    1    3    3    0    0  0.10010424460E+02  0.29292280321E+02  0.46476595921E+02  0.55841922000E+02  0.00000000000E+00 0.  1.
         22    1    4    4    0    0 -0.44955132657E+01 -0.12276866375E+02 -0.48836949535E+01  0.13956416585E+02  0.00000000000E+00 0. -1.
         22    1    4    4    0    0 -0.55149111942E+01 -0.17015413946E+02 -0.21163847671E+02  0.27710052426E+02  0.00000000000E+00 0. -1.
<mgrwt>
<rscale>  0 0.95344324E+02</rscale>
<asrwt>0</asrwt>
<pdfrwt beam="2">  1        1 0.59291799E-02 0.95344324E+02</pdfrwt>
<pdfrwt beam="1">  1       -1 0.90721110E-02 0.95344324E+02</pdfrwt>
<totfact> 0.79391278E+04</totfact>
</mgrwt>
</event>
<event>
 7    1  0.2787125E-009  0.9514503E+02  0.7818608E-02  0.1290850E+00
          1   -1    0    0  501    0  0.00000000000E+00  0.00000000000E+00  0.18968711203E+02  0.18968711873E+02  0.50400000000E-02 0. -1.
         -1   -1    0    0    0  501 -0.00000000000E+00 -0.00000000000E+00 -0.11930932393E+03  0.11930932404E+03  0.50400000000E-02 0.  1.
         23    2    1    2    0    0 -0.35527136788E-14  0.71054273576E-14 -0.10034061273E+03  0.13827803591E+03  0.95145029575E+02 0.  0.
    9000005    2    3    3    0    0  0.29332623980E+02 -0.36288374833E+02 -0.60988214629E+02  0.77238211095E+02  0.83024063919E+01 0.  0.
         22    1    3    3    0    0 -0.29332623980E+02  0.36288374833E+02 -0.39352398102E+02  0.61039824819E+02  0.00000000000E+00 0. -1.
         22    1    4    4    0    0  0.20019810533E+01 -0.14188511129E+00 -0.35279513862E+01  0.40588792179E+01  0.00000000000E+00 0.  1.
         22    1    4    4    0    0  0.27330642926E+02 -0.36146489721E+02 -0.57460263243E+02  0.73179331877E+02  0.00000000000E+00 0.  1.
<mgrwt>
<rscale>  0 0.95145030E+02</rscale>
<asrwt>0</asrwt>
<pdfrwt beam="1">  1        1 0.29182634E-02 0.95145030E+02</pdfrwt>
<pdfrwt beam="2">  1       -1 0.18355280E-01 0.95145030E+02</pdfrwt>
<totfact> 0.70412058E+04</totfact>
</mgrwt>
</event>
<event>
 7    1  0.2787125E-009  0.8838719E+02  0.7818608E-02  0.1306805E+00
         -1   -1    0    0    0  501 -0.00000000000E+00  0.00000000000E+00  0.18346778693E+02  0.18346779385E+02  0.50400000000E-02 0. -1.
          1   -1    0    0  501    0  0.00000000000E+00 -0.00000000000E+00 -0.10645323038E+03  0.10645323050E+03  0.50400000000E-02 0.  1.
         23    2    1    2    0    0  0.35527136788E-14  0.35527136788E-14 -0.88106451687E+02  0.12480000988E+03  0.88387191595E+02 0.  0.
    9000005    2    3    3    0    0  0.26456192671E+02  0.29628121641E+02 -0.68065076320E+02  0.80309421562E+02  0.15459393729E+02 0.  0.
         22    1    3    3    0    0 -0.26456192671E+02 -0.29628121641E+02 -0.20041375366E+02  0.44490588321E+02  0.00000000000E+00 0. -1.
         22    1    4    4    0    0  0.25533998540E+02  0.29233189196E+02 -0.55622379842E+02  0.67826348650E+02  0.00000000000E+00 0.  1.
         22    1    4    4    0    0  0.92219413120E+00  0.39493244532E+00 -0.12442696479E+02  0.12483072912E+02  0.00000000000E+00 0.  1.
<mgrwt>
<rscale>  0 0.88387192E+02</rscale>
<asrwt>0</asrwt>
<pdfrwt beam="2">  1        1 0.16377420E-01 0.88387192E+02</pdfrwt>
<pdfrwt beam="1">  1       -1 0.28225815E-02 0.88387192E+02</pdfrwt>
<totfact> 0.11483771E+05</totfact>
</mgrwt>
</event>
<event>
 7    1  0.2787125E-009  0.9060440E+02  0.7818608E-02  0.1301395E+00
         -1   -1    0    0    0  501 -0.00000000000E+00  0.00000000000E+00  0.12407319705E+03  0.12407319715E+03  0.50400000000E-02 0. -1.
          1   -1    0    0  501    0  0.00000000000E+00 -0.00000000000E+00 -0.16540954202E+02  0.16540954969E+02  0.50400000000E-02 0.  1.
         23    2    1    2    0    0  0.00000000000E+00 -0.88817841970E-15  0.10753224285E+03  0.14061415212E+03  0.90604395725E+02 0.  0.
    9000005    2    3    3    0    0 -0.30675287224E+02  0.62367048869E+01  0.10445723731E+03  0.10916060871E+03  0.49854119618E+01 0.  0.
         22    1    3    3    0    0  0.30675287224E+02 -0.62367048869E+01  0.30750055342E+01  0.31453543412E+02  0.00000000000E+00 0.  1.
         22    1    4    4    0    0 -0.16246582082E+02  0.17054687681E+01  0.60883023479E+02  0.63036517995E+02  0.00000000000E+00 0. -1.
         22    1    4    4    0    0 -0.14428705143E+02  0.45312361188E+01  0.43574213833E+02  0.46124090713E+02  0.00000000000E+00 0. -1.
<mgrwt>
<rscale>  0 0.90604396E+02</rscale>
<asrwt>0</asrwt>
<pdfrwt beam="2">  1        1 0.25447622E-02 0.90604396E+02</pdfrwt>
<pdfrwt beam="1">  1       -1 0.19088185E-01 0.90604396E+02</pdfrwt>
<totfact> 0.79271208E+04</totfact>
</mgrwt>
</event>
<event>
 7    1  0.2787125E-009  0.8988492E+02  0.7818608E-02  0.1303131E+00
          1   -1    0    0  501    0  0.00000000000E+00  0.00000000000E+00  0.16802209155E+02  0.16802209911E+02  0.50400000000E-02 0. -1.
         -1   -1    0    0    0  501 -0.00000000000E+00 -0.00000000000E+00 -0.12021184732E+03  0.12021184743E+03  0.50400000000E-02 0.  1.
         23    2    1    2    0    0  0.00000000000E+00  0.00000000000E+00 -0.10340963816E+03  0.13701405734E+03  0.89884918883E+02 0.  0.
    9000005    2    3    3    0    0 -0.74556321084E+01 -0.38404918001E+02 -0.83229929763E+02  0.92994234439E+02  0.13790658200E+02 0.  0.
         22    1    3    3    0    0  0.74556321084E+01  0.38404918001E+02 -0.20179708402E+02  0.44019822898E+02  0.00000000000E+00 0. -1.
         22    1    4    4    0    0 -0.46807535728E+01 -0.79848358072E+01 -0.32360037500E+02  0.33657674963E+02  0.00000000000E+00 0.  1.
         22    1    4    4    0    0 -0.27748785356E+01 -0.30420082194E+02 -0.50869892263E+02  0.59336559476E+02  0.00000000000E+00 0.  1.
<mgrwt>
<rscale>  0 0.89884919E+02</rscale>
<asrwt>0</asrwt>
<pdfrwt beam="1">  1        1 0.25849554E-02 0.89884919E+02</pdfrwt>
<pdfrwt beam="2">  1       -1 0.18494130E-01 0.89884919E+02</pdfrwt>
<totfact> 0.81449471E+04</totfact>
</mgrwt>
</event>
<event>
 7    1  0.2787125E-009  0.9425563E+02  0.7818608E-02  0.1292861E+00
          1   -1    0    0  501    0  0.00000000000E+00  0.00000000000E+00  0.12090361508E+03  0.12090361518E+03  0.50400000000E-02 0. -1.
         -1   -1    0    0    0  501 -0.00000000000E+00 -0.00000000000E+00 -0.18370261885E+02  0.18370262577E+02  0.50400000000E-02 0.  1.
         23    2    1    2    0    0  0.00000000000E+00  0.00000000000E+00  0.10253335319E+03  0.13927387776E+03  0.94255633833E+02 0.  0.
    9000005    2    3    3    0    0 -0.25536809695E+02 -0.23089332273E+02  0.98427744517E+02  0.10460253604E+03  0.82718643948E+01 0.  0.
         22    1    3    3    0    0  0.25536809695E+02  0.23089332273E+02  0.41056086758E+01  0.34671341722E+02  0.00000000000E+00 0.  1.
         22    1    4    4    0    0 -0.34926518185E+01 -0.28147048031E+00  0.69865813501E+01  0.78160195316E+01  0.00000000000E+00 0. -1.
         22    1    4    4    0    0 -0.22044157876E+02 -0.22807861793E+02  0.91441163167E+02  0.96786516506E+02  0.00000000000E+00 0. -1.
<mgrwt>
<rscale>  0 0.94255634E+02</rscale>
<asrwt>0</asrwt>
<pdfrwt beam="1">  1        1 0.18600556E-01 0.94255634E+02</pdfrwt>
<pdfrwt beam="2">  1       -1 0.28261943E-02 0.94255634E+02</pdfrwt>
<totfact> 0.98563695E+04</totfact>
</mgrwt>
</event>
<event>
 7    1  0.2787125E-009  0.9235053E+02  0.7818608E-02  0.1297257E+00
         -1   -1    0    0    0  501 -0.00000000000E+00  0.00000000000E+00  0.13761411647E+01  0.13761503940E+01  0.50400000000E-02 0.  1.
          1   -1    0    0  501    0  0.00000000000E+00 -0.00000000000E+00 -0.15493671720E+04  0.15493671720E+04  0.50400000000E-02 0. -1.
         23    2    1    2    0    0 -0.17763568394E-14  0.00000000000E+00 -0.15479910308E+04  0.15507433224E+04  0.92350530202E+02 0.  0.
    9000005    2    3    3    0    0 -0.11312655682E+02  0.12857106748E+02 -0.14931030665E+04  0.14932457572E+04  0.11525749805E+02 0.  0.
         22    1    3    3    0    0  0.11312655682E+02 -0.12857106748E+02 -0.54887964365E+02  0.57497565207E+02  0.00000000000E+00 0.  1.
         22    1    4    4    0    0  0.98723721636E+00 -0.14534858262E+01 -0.11188001651E+03  0.11189381284E+03  0.00000000000E+00 0.  1.
         22    1    4    4    0    0 -0.12299892899E+02  0.14310592574E+02 -0.13812230500E+04  0.13813519444E+04  0.00000000000E+00 0.  1.
<mgrwt>
<rscale>  0 0.92350530E+02</rscale>
<asrwt>0</asrwt>
<pdfrwt beam="2">  1        1 0.23836279E+00 0.92350530E+02</pdfrwt>
<pdfrwt beam="1">  1       -1 0.21171597E-03 0.92350530E+02</pdfrwt>
<totfact> 0.10393115E+05</totfact>
</mgrwt>
</event>
<event>
 7    1  0.2787125E-009  0.9848624E+02  0.7818608E-02  0.1283512E+00
          1   -1    0    0  501    0  0.00000000000E+00  0.00000000000E+00  0.53605967392E+02  0.53605967629E+02  0.50400000000E-02 0. -1.
         -1   -1    0    0    0  501 -0.00000000000E+00 -0.00000000000E+00 -0.45235351297E+02  0.45235351577E+02  0.50400000000E-02 0.  1.
         23    2    1    2    0    0  0.00000000000E+00 -0.17763568394E-14  0.83706160954E+01  0.98841319207E+02  0.98486238474E+02 0.  0.
    9000005    2    3    3    0    0  0.14198170175E+02 -0.14356711917E+02  0.48328718101E+02  0.54071316646E+02  0.13429038581E+02 0.  0.
         22    1    3    3    0    0 -0.14198170175E+02  0.14356711917E+02 -0.39958102005E+02  0.44770002560E+02  0.00000000000E+00 0.  1.
         22    1    4    4    0    0  0.33460155441E+01 -0.12545539740E+02  0.22158247970E+02  0.25682179434E+02  0.00000000000E+00 0. -1.
         22    1    4    4    0    0  0.10852154631E+02 -0.18111721771E+01  0.26170470131E+02  0.28389137212E+02  0.00000000000E+00 0. -1.
<mgrwt>
<rscale>  0 0.98486238E+02</rscale>
<asrwt>0</asrwt>
<pdfrwt beam="1">  1        1 0.82470720E-02 0.98486238E+02</pdfrwt>
<pdfrwt beam="2">  1       -1 0.69592848E-02 0.98486238E+02</pdfrwt>
<totfact> 0.76313850E+04</totfact>
</mgrwt>
</event>
<event>
 7    1  0.2787125E-009  0.8205513E+02  0.7818608E-02  0.1323318E+00
          1   -1    0    0  501    0  0.00000000000E+00  0.00000000000E+00  0.18041021884E+01  0.18041092283E+01  0.50400000000E-02 0. -1.
         -1   -1    0    0    0  501 -0.00000000000E+00 -0.00000000000E+00 -0.93301683425E+03  0.93301683426E+03  0.50400000000E-02 0.  1.
         23    2    1    2    0    0 -0.35527136788E-14  0.33306690739E-15 -0.93121273206E+03  0.93482094349E+03  0.82055128039E+02 0.  0.
    9000005    2    3    3    0    0  0.26792744658E+02  0.39350552508E+00 -0.81749011752E+03  0.81798413820E+03  0.94843075313E+01 0.  0.
         22    1    3    3    0    0 -0.26792744658E+02 -0.39350552508E+00 -0.11372261454E+03  0.11683680529E+03  0.00000000000E+00 0. -1.
         22    1    4    4    0    0  0.22156362293E+01  0.20095828183E+01 -0.43771621636E+02  0.43873708843E+02  0.00000000000E+00 0. -1.
         22    1    4    4    0    0  0.24577108428E+02 -0.16160772932E+01 -0.77371849588E+03  0.77411042935E+03  0.00000000000E+00 0. -1.
<mgrwt>
<rscale>  0 0.82055128E+02</rscale>
<asrwt>0</asrwt>
<pdfrwt beam="1">  1        1 0.27755547E-03 0.82055128E+02</pdfrwt>
<pdfrwt beam="2">  1       -1 0.14354067E+00 0.82055128E+02</pdfrwt>
<totfact> 0.36646365E+04</totfact>
</mgrwt>
</event>
<event>
 7    1  0.2787125E-009  0.9397646E+02  0.7818608E-02  0.1293498E+00
          1   -1    0    0  501    0  0.00000000000E+00  0.00000000000E+00  0.11003847435E+02  0.11003848589E+02  0.50400000000E-02 0. -1.
         -1   -1    0    0    0  501 -0.00000000000E+00 -0.00000000000E+00 -0.20064741483E+03  0.20064741489E+03  0.50400000000E-02 0.  1.
         23    2    1    2    0    0  0.00000000000E+00 -0.35527136788E-14 -0.18964356739E+03  0.21165126348E+03  0.93976458110E+02 0.  0.
    9000005    2    3    3    0    0 -0.41066037907E+02  0.20120932371E+02 -0.11184325437E+03  0.12140626309E+03  0.11802363344E+02 0.  0.
         22    1    3    3    0    0  0.41066037907E+02 -0.20120932371E+02 -0.77800313021E+02  0.90245000388E+02  0.00000000000E+00 0. -1.
         22    1    4    4    0    0 -0.34242210443E+02  0.17671680220E+02 -0.80663978365E+02  0.89395160180E+02  0.00000000000E+00 0. -1.
         22    1    4    4    0    0 -0.68238274642E+01  0.24492521513E+01 -0.31179276004E+02  0.32011102910E+02  0.00000000000E+00 0. -1.
<mgrwt>
<rscale>  0 0.93976458E+02</rscale>
<asrwt>0</asrwt>
<pdfrwt beam="1">  1        1 0.16928998E-02 0.93976458E+02</pdfrwt>
<pdfrwt beam="2">  1       -1 0.30868830E-01 0.93976458E+02</pdfrwt>
<totfact> 0.64096241E+04</totfact>
</mgrwt>
</event>
<event>
 7    1  0.2787125E-009  0.9027174E+02  0.7818608E-02  0.1302195E+00
         -1   -1    0    0    0  501 -0.00000000000E+00  0.00000000000E+00  0.34666673144E+02  0.34666673510E+02  0.50400000000E-02 0.  1.
          1   -1    0    0  501    0  0.00000000000E+00 -0.00000000000E+00 -0.58766718163E+02  0.58766718379E+02  0.50400000000E-02 0. -1.
         23    2    1    2    0    0  0.44408920985E-15  0.00000000000E+00 -0.24100045019E+02  0.93433391890E+02  0.90271737272E+02 0.  0.
    9000005    2    3    3    0    0  0.26891941723E+01  0.32360599975E+02  0.19187750155E+02  0.39319868561E+02  0.11110450556E+02 0.  0.
         22    1    3    3    0    0 -0.26891941723E+01 -0.32360599975E+02 -0.43287795174E+02  0.54113523329E+02  0.00000000000E+00 0. -1.
         22    1    4    4    0    0  0.58519939320E+01  0.10166765353E+02  0.47556822959E+01  0.12658019783E+02  0.00000000000E+00 0.  1.
         22    1    4    4    0    0 -0.31627997597E+01  0.22193834622E+02  0.14432067859E+02  0.26661848777E+02  0.00000000000E+00 0.  1.
<mgrwt>
<rscale>  0 0.90271737E+02</rscale>
<asrwt>0</asrwt>
<pdfrwt beam="2">  1        1 0.90410336E-02 0.90271737E+02</pdfrwt>
<pdfrwt beam="1">  1       -1 0.53333344E-02 0.90271737E+02</pdfrwt>
<totfact> 0.98763006E+04</totfact>
</mgrwt>
</event>
<event>
 7    1  0.2787125E-009  0.9438933E+02  0.7818608E-02  0.1292557E+00
          1   -1    0    0  501    0  0.00000000000E+00  0.00000000000E+00  0.18430788045E+04  0.18430788045E+04  0.50400000000E-02 0. -1.
         -1   -1    0    0    0  501 -0.00000000000E+00 -0.00000000000E+00 -0.12084814975E+01  0.12084920072E+01  0.50400000000E-02 0.  1.
         23    2    1    2    0    0  0.00000000000E+00  0.00000000000E+00  0.18418703230E+04  0.18442872966E+04  0.94389328454E+02 0.  0.
    9000005    2    3    3    0    0  0.18931690810E+02 -0.12315289948E+02  0.17295083839E+04  0.17296780445E+04  0.87642707459E+01 0.  0.
         22    1    3    3    0    0 -0.18931690810E+02  0.12315289948E+02  0.11236193919E+03  0.11460925208E+03  0.00000000000E+00 0.  1.
         22    1    4    4    0    0  0.55835569761E+01 -0.73358210367E+01  0.90117335792E+03  0.90122051209E+03  0.00000000000E+00 0. -1.
         22    1    4    4    0    0  0.13348133834E+02 -0.49794689115E+01  0.82833502593E+03  0.82845753239E+03  0.00000000000E+00 0. -1.
<mgrwt>
<rscale>  0 0.94389328E+02</rscale>
<asrwt>0</asrwt>
<pdfrwt beam="1">  1        1 0.28354983E+00 0.94389328E+02</pdfrwt>
<pdfrwt beam="2">  1       -1 0.18592153E-03 0.94389328E+02</pdfrwt>
<totfact> 0.81461579E+04</totfact>
</mgrwt>
</event>
<event>
 7    1  0.2787125E-009  0.9358289E+02  0.7818608E-02  0.1294400E+00
          1   -1    0    0  501    0  0.00000000000E+00  0.00000000000E+00  0.54570227660E+03  0.54570227662E+03  0.50400000000E-02 0. -1.
         -1   -1    0    0    0  501 -0.00000000000E+00 -0.00000000000E+00 -0.40121483152E+01  0.40121514808E+01  0.50400000000E-02 0.  1.
         23    2    1    2    0    0  0.00000000000E+00  0.00000000000E+00  0.54169012828E+03  0.54971442810E+03  0.93582890448E+02 0.  0.
    9000005    2    3    3    0    0  0.60504268848E+01 -0.43004355647E+02  0.37263002995E+03  0.37516558360E+03  0.31770464684E+01 0.  0.
         22    1    3    3    0    0 -0.60504268848E+01  0.43004355647E+02  0.16906009833E+03  0.17454884450E+03  0.00000000000E+00 0.  1.
         22    1    4    4    0    0  0.45315688728E+01 -0.22620476056E+02  0.19019796198E+03  0.19159197738E+03  0.00000000000E+00 0.  1.
         22    1    4    4    0    0  0.15188580120E+01 -0.20383879591E+02  0.18243206797E+03  0.18357360622E+03  0.00000000000E+00 0.  1.
<mgrwt>
<rscale>  0 0.93582890E+02</rscale>
<asrwt>0</asrwt>
<pdfrwt beam="1">  1        1 0.83954263E-01 0.93582890E+02</pdfrwt>
<pdfrwt beam="2">  1       -1 0.61725334E-03 0.93582890E+02</pdfrwt>
<totfact> 0.13117661E+05</totfact>
</mgrwt>
</event>
<event>
 7    1  0.2787125E-009  0.8923616E+02  0.7818608E-02  0.1304712E+00
         -1   -1    0    0    0  501 -0.00000000000E+00  0.00000000000E+00  0.17657470973E+03  0.17657470981E+03  0.50400000000E-02 0.  1.
          1   -1    0    0  501    0  0.00000000000E+00 -0.00000000000E+00 -0.11274393910E+02  0.11274395037E+02  0.50400000000E-02 0. -1.
         23    2    1    2    0    0  0.00000000000E+00 -0.35527136788E-14  0.16530031582E+03  0.18784910484E+03  0.89236157351E+02 0.  0.
    9000005    2    3    3    0    0 -0.16599924146E+02 -0.21748170871E+02  0.15598866635E+03  0.15894846067E+03  0.13550228832E+02 0.  0.
         22    1    3    3    0    0  0.16599924146E+02  0.21748170871E+02  0.93116494764E+01  0.28900644177E+02  0.00000000000E+00 0. -1.
         22    1    4    4    0    0  0.18837279642E+01 -0.56331032970E+01  0.34872713864E+02  0.35374941074E+02  0.00000000000E+00 0.  1.
         22    1    4    4    0    0 -0.18483652110E+02 -0.16115067574E+02  0.12111595248E+03  0.12357351959E+03  0.00000000000E+00 0.  1.
<mgrwt>
<rscale>  0 0.89236157E+02</rscale>
<asrwt>0</asrwt>
<pdfrwt beam="2">  1        1 0.17345224E-02 0.89236157E+02</pdfrwt>
<pdfrwt beam="1">  1       -1 0.27165338E-01 0.89236157E+02</pdfrwt>
<totfact> 0.75961365E+04</totfact>
</mgrwt>
</event>
<event>
 7    1  0.2787125E-009  0.9623116E+02  0.7818608E-02  0.1288427E+00
          1   -1    0    0  501    0  0.00000000000E+00  0.00000000000E+00  0.51961839794E+03  0.51961839796E+03  0.50400000000E-02 0. -1.
         -1   -1    0    0    0  501 -0.00000000000E+00 -0.00000000000E+00 -0.44554013714E+01  0.44554042221E+01  0.50400000000E-02 0.  1.
         23    2    1    2    0    0  0.00000000000E+00 -0.44408920985E-15  0.51516299657E+03  0.52407380218E+03  0.96231164934E+02 0.  0.
    9000005    2    3    3    0    0  0.46460949755E+02 -0.16879766671E+01  0.23535856547E+03  0.24043320428E+03  0.15906044879E+02 0.  0.
         22    1    3    3    0    0 -0.46460949755E+02  0.16879766671E+01  0.27980443109E+03  0.28364059790E+03  0.00000000000E+00 0. -1.
         22    1    4    4    0    0  0.24768975536E+02 -0.87631854105E+01  0.12069928452E+03  0.12352575785E+03  0.00000000000E+00 0. -1.
         22    1    4    4    0    0  0.21691974219E+02  0.70752087435E+01  0.11465928095E+03  0.11690744644E+03  0.00000000000E+00 0. -1.
<mgrwt>
<rscale>  0 0.96231165E+02</rscale>
<asrwt>0</asrwt>
<pdfrwt beam="1">  1        1 0.79941309E-01 0.96231165E+02</pdfrwt>
<pdfrwt beam="2">  1       -1 0.68544644E-03 0.96231165E+02</pdfrwt>
<totfact> 0.12119140E+05</totfact>
</mgrwt>
</event>
<event>
 7    1  0.2787125E-009  0.1053378E+03  0.7818608E-02  0.1269456E+00
          1   -1    0    0  501    0  0.00000000000E+00  0.00000000000E+00  0.82912260212E+01  0.82912275531E+01  0.50400000000E-02 0. -1.
         -1   -1    0    0    0  501 -0.00000000000E+00 -0.00000000000E+00 -0.33457196950E+03  0.33457196954E+03  0.50400000000E-02 0.  1.
         23    2    1    2    0    0  0.00000000000E+00  0.00000000000E+00 -0.32628074348E+03  0.34286319709E+03  0.10533778218E+03 0.  0.
    9000005    2    3    3    0    0 -0.40212735962E+01  0.51693584437E+02 -0.17657678173E+03  0.18443443241E+03  0.12177959646E+02 0.  0.
         22    1    3    3    0    0  0.40212735962E+01 -0.51693584437E+02 -0.14970396175E+03  0.15842876468E+03  0.00000000000E+00 0. -1.
         22    1    4    4    0    0 -0.39999739733E-01  0.45385981492E+02 -0.15874125504E+03  0.16510201382E+03  0.00000000000E+00 0. -1.
         22    1    4    4    0    0 -0.39812738565E+01  0.63076029448E+01 -0.17835526693E+02  0.19332418598E+02  0.00000000000E+00 0. -1.
<mgrwt>
<rscale>  0 0.10533778E+03</rscale>
<asrwt>0</asrwt>
<pdfrwt beam="1">  1        1 0.12755736E-02 0.10533778E+03</pdfrwt>
<pdfrwt beam="2">  1       -1 0.51472600E-01 0.10533778E+03</pdfrwt>
<totfact> 0.39619570E+04</totfact>
</mgrwt>
</event>
<event>
 7    1  0.2787125E-009  0.9327835E+02  0.7818608E-02  0.1295101E+00
          1   -1    0    0  501    0  0.00000000000E+00  0.00000000000E+00  0.23037672095E+02  0.23037672647E+02  0.50400000000E-02 0. -1.
         -1   -1    0    0    0  501 -0.00000000000E+00 -0.00000000000E+00 -0.94419802588E+02  0.94419802723E+02  0.50400000000E-02 0.  1.
         23    2    1    2    0    0  0.00000000000E+00  0.71054273576E-14 -0.71382130493E+02  0.11745747537E+03  0.93278346718E+02 0.  0.
    9000005    2    3    3    0    0  0.14809955440E+02 -0.43883810927E+02 -0.33307917827E+02  0.57501080283E+02  0.71995279157E+01 0.  0.
         22    1    3    3    0    0 -0.14809955440E+02  0.43883810927E+02 -0.38074212666E+02  0.59956395086E+02  0.00000000000E+00 0.  1.
         22    1    4    4    0    0  0.55119301424E+01 -0.13276551334E+02 -0.14375880270E+02  0.20330128449E+02  0.00000000000E+00 0.  1.
         22    1    4    4    0    0  0.92980252973E+01 -0.30607259593E+02 -0.18932037557E+02  0.37170951835E+02  0.00000000000E+00 0.  1.
<mgrwt>
<rscale>  0 0.93278347E+02</rscale>
<asrwt>0</asrwt>
<pdfrwt beam="1">  1        1 0.35442573E-02 0.93278347E+02</pdfrwt>
<pdfrwt beam="2">  1       -1 0.14526123E-01 0.93278347E+02</pdfrwt>
<totfact> 0.77546464E+04</totfact>
</mgrwt>
</event>
<event>
 7    1  0.2787125E-009  0.9092997E+02  0.7818608E-02  0.1300615E+00
         -1   -1    0    0    0  501 -0.00000000000E+00  0.00000000000E+00  0.53059222553E+02  0.53059222793E+02  0.50400000000E-02 0.  1.
          1   -1    0    0  501    0  0.00000000000E+00 -0.00000000000E+00 -0.38957692455E+02  0.38957692781E+02  0.50400000000E-02 0. -1.
         23    2    1    2    0    0  0.00000000000E+00 -0.17763568394E-14  0.14101530098E+02  0.92016915574E+02  0.90929970860E+02 0.  0.
    9000005    2    3    3    0    0 -0.24264570045E+02 -0.14597214799E+02  0.41669150535E+02  0.52497025190E+02  0.14757083321E+02 0.  0.
         22    1    3    3    0    0  0.24264570045E+02  0.14597214799E+02 -0.27567620437E+02  0.39519890384E+02  0.00000000000E+00 0. -1.
         22    1    4    4    0    0 -0.15685750949E+02 -0.14415492233E+02  0.20122711964E+02  0.29304824448E+02  0.00000000000E+00 0. -1.
         22    1    4    4    0    0 -0.85788190965E+01 -0.18172256669E+00  0.21546438571E+02  0.23192200743E+02  0.00000000000E+00 0. -1.
<mgrwt>
<rscale>  0 0.90929971E+02</rscale>
<asrwt>0</asrwt>
<pdfrwt beam="2">  1        1 0.59934912E-02 0.90929971E+02</pdfrwt>
<pdfrwt beam="1">  1       -1 0.81629573E-02 0.90929971E+02</pdfrwt>
<totfact> 0.90995110E+04</totfact>
</mgrwt>
</event>
<event>
 7    1  0.2787125E-009  0.9245478E+02  0.7818608E-02  0.1297014E+00
          1   -1    0    0  501    0  0.00000000000E+00  0.00000000000E+00  0.15538051340E+03  0.15538051349E+03  0.50400000000E-02 0. -1.
         -1   -1    0    0    0  501 -0.00000000000E+00 -0.00000000000E+00 -0.13753150773E+02  0.13753151697E+02  0.50400000000E-02 0.  1.
         23    2    1    2    0    0  0.00000000000E+00 -0.44408920985E-15  0.14162736263E+03  0.16913366518E+03  0.92454782745E+02 0.  0.
    9000005    2    3    3    0    0 -0.30699389211E+02 -0.29195161599E+01  0.10812747265E+02  0.34733368807E+02  0.11769253703E+02 0.  0.
         22    1    3    3    0    0  0.30699389211E+02  0.29195161599E+01  0.13081461537E+03  0.13440029638E+03  0.00000000000E+00 0. -1.
         22    1    4    4    0    0 -0.15358642052E+02  0.39810793436E+01  0.76624786281E+01  0.17619604341E+02  0.00000000000E+00 0.  1.
         22    1    4    4    0    0 -0.15340747159E+02 -0.69005955035E+01  0.31502686370E+01  0.17113764466E+02  0.00000000000E+00 0.  1.
<mgrwt>
<rscale>  0 0.92454783E+02</rscale>
<asrwt>0</asrwt>
<pdfrwt beam="1">  1        1 0.23904695E-01 0.92454783E+02</pdfrwt>
<pdfrwt beam="2">  1       -1 0.21158694E-02 0.92454783E+02</pdfrwt>
<totfact> 0.10870131E+05</totfact>
</mgrwt>
</event>
<event>
 7    1  0.2787125E-009  0.8639850E+02  0.7818608E-02  0.1311815E+00
         -1   -1    0    0    0  501 -0.00000000000E+00  0.00000000000E+00  0.33191047888E+02  0.33191048271E+02  0.50400000000E-02 0.  1.
          1   -1    0    0  501    0  0.00000000000E+00 -0.00000000000E+00 -0.56225254978E+02  0.56225255204E+02  0.50400000000E-02 0. -1.
         23    2    1    2    0    0  0.00000000000E+00  0.00000000000E+00 -0.23034207090E+02  0.89416303475E+02  0.86398499008E+02 0.  0.
    9000005    2    3    3    0    0  0.14111593518E+02 -0.29742168936E+02 -0.38681646091E+02  0.52966666550E+02  0.15015469904E+02 0.  0.
         22    1    3    3    0    0 -0.14111593518E+02  0.29742168936E+02  0.15647439001E+02  0.36449636925E+02  0.00000000000E+00 0.  1.
         22    1    4    4    0    0  0.14747565872E+02 -0.14520041287E+02 -0.25320661317E+02  0.32702571575E+02  0.00000000000E+00 0. -1.
         22    1    4    4    0    0 -0.63597235357E+00 -0.15222127649E+02 -0.13360984775E+02  0.20264094975E+02  0.00000000000E+00 0. -1.
<mgrwt>
<rscale>  0 0.86398499E+02</rscale>
<asrwt>0</asrwt>
<pdfrwt beam="2">  1        1 0.86500393E-02 0.86398499E+02</pdfrwt>
<pdfrwt beam="1">  1       -1 0.51063151E-02 0.86398499E+02</pdfrwt>
<totfact> 0.11076071E+05</totfact>
</mgrwt>
</event>
<event>
 7    1  0.2787125E-009  0.9229480E+02  0.7818608E-02  0.1297388E+00
          1   -1    0    0  501    0  0.00000000000E+00  0.00000000000E+00  0.26777731621E+02  0.26777732096E+02  0.50400000000E-02 0. -1.
         -1   -1    0    0    0  501 -0.00000000000E+00 -0.00000000000E+00 -0.79528111373E+02  0.79528111532E+02  0.50400000000E-02 0.  1.
         23    2    1    2    0    0  0.00000000000E+00  0.00000000000E+00 -0.52750379751E+02  0.10630584363E+03  0.92294798475E+02 0.  0.
    9000005    2    3    3    0    0 -0.28722640159E+02  0.16626947733E+02 -0.63092345204E+02  0.71543770933E+02  0.60350383053E+01 0.  0.
         22    1    3    3    0    0  0.28722640159E+02 -0.16626947733E+02  0.10341965452E+02  0.34762072695E+02  0.00000000000E+00 0. -1.
         22    1    4    4    0    0 -0.25043102127E+02  0.15504474313E+02 -0.58899017080E+02  0.65853169254E+02  0.00000000000E+00 0. -1.
         22    1    4    4    0    0 -0.36795380321E+01  0.11224734203E+01 -0.41933281239E+01  0.56906016785E+01  0.00000000000E+00 0. -1.
<mgrwt>
<rscale>  0 0.92294798E+02</rscale>
<asrwt>0</asrwt>
<pdfrwt beam="1">  1        1 0.41196511E-02 0.92294798E+02</pdfrwt>
<pdfrwt beam="2">  1       -1 0.12235094E-01 0.92294798E+02</pdfrwt>
<totfact> 0.82130106E+04</totfact>
</mgrwt>
</event>
<event>
 7    1  0.2787125E-009  0.9265995E+02  0.7818608E-02  0.1296535E+00
          1   -1    0    0  501    0  0.00000000000E+00  0.00000000000E+00  0.38137887987E+03  0.38137887991E+03  0.50400000000E-02 0. -1.
         -1   -1    0    0    0  501 -0.00000000000E+00 -0.00000000000E+00 -0.56281725369E+01  0.56281747936E+01  0.50400000000E-02 0.  1.
         23    2    1    2    0    0  0.00000000000E+00  0.00000000000E+00  0.37575070734E+03  0.38700705470E+03  0.92659949945E+02 0.  0.
    9000005    2    3    3    0    0 -0.38295610161E+02  0.23935021853E+02  0.14553175531E+03  0.15240056523E+03  0.26460254152E+01 0.  0.
         22    1    3    3    0    0  0.38295610161E+02 -0.23935021853E+02  0.23021895203E+03  0.23460648947E+03  0.00000000000E+00 0.  1.
         22    1    4    4    0    0 -0.26558494992E+02  0.15686824605E+02  0.10250748525E+03  0.10704772139E+03  0.00000000000E+00 0. -1.
         22    1    4    4    0    0 -0.11737115169E+02  0.82481972480E+01  0.43024270060E+02  0.45352843842E+02  0.00000000000E+00 0. -1.
<mgrwt>
<rscale>  0 0.92659950E+02</rscale>
<asrwt>0</asrwt>
<pdfrwt beam="1">  1        1 0.58673661E-01 0.92659950E+02</pdfrwt>
<pdfrwt beam="2">  1       -1 0.86587306E-03 0.92659950E+02</pdfrwt>
<totfact> 0.12819845E+05</totfact>
</mgrwt>
</event>
<event>
 7    1  0.2787125E-009  0.8958252E+02  0.7818608E-02  0.1303866E+00
          1   -1    0    0  501    0  0.00000000000E+00  0.00000000000E+00  0.70682235429E+02  0.70682235609E+02  0.50400000000E-02 0. -1.
         -1   -1    0    0    0  501 -0.00000000000E+00 -0.00000000000E+00 -0.28384176941E+02  0.28384177389E+02  0.50400000000E-02 0.  1.
         23    2    1    2    0    0 -0.35527136788E-14  0.00000000000E+00  0.42298058488E+02  0.99066412997E+02  0.89582523029E+02 0.  0.
    9000005    2    3    3    0    0  0.26397056624E+02  0.12445894817E+02 -0.16341771589E+02  0.33565767446E+02  0.28111117711E+01 0.  0.
         22    1    3    3    0    0 -0.26397056624E+02 -0.12445894817E+02  0.58639830076E+02  0.65500645551E+02  0.00000000000E+00 0. -1.
         22    1    4    4    0    0  0.38605713835E+01  0.77881408316E+00 -0.23680822715E+01  0.45954734716E+01  0.00000000000E+00 0. -1.
         22    1    4    4    0    0  0.22536485241E+02  0.11667080733E+02 -0.13973689317E+02  0.28970293975E+02  0.00000000000E+00 0. -1.
<mgrwt>
<rscale>  0 0.89582523E+02</rscale>
<asrwt>0</asrwt>
<pdfrwt beam="1">  1        1 0.10874190E-01 0.89582523E+02</pdfrwt>
<pdfrwt beam="2">  1       -1 0.43667965E-02 0.89582523E+02</pdfrwt>
<totfact> 0.10372903E+05</totfact>
</mgrwt>
</event>
<event>
 7    1  0.2787125E-009  0.9153380E+02  0.7818608E-02  0.1299179E+00
          1   -1    0    0  501    0  0.00000000000E+00  0.00000000000E+00  0.89306137281E+01  0.89306151503E+01  0.50400000000E-02 0. -1.
         -1   -1    0    0    0  501 -0.00000000000E+00 -0.00000000000E+00 -0.23454254773E+03  0.23454254778E+03  0.50400000000E-02 0.  1.
         23    2    1    2    0    0  0.00000000000E+00  0.71054273576E-14 -0.22561193400E+03  0.24347316293E+03  0.91533798704E+02 0.  0.
    9000005    2    3    3    0    0  0.17235960195E+02  0.32554800048E+02 -0.43192625045E+02  0.57371852863E+02  0.83086288055E+01 0.  0.
         22    1    3    3    0    0 -0.17235960195E+02 -0.32554800048E+02 -0.18241930896E+03  0.18610131007E+03  0.00000000000E+00 0.  1.
         22    1    4    4    0    0 -0.56686110125E+00  0.44102776295E+01 -0.55730455106E+01  0.71295663642E+01  0.00000000000E+00 0. -1.
         22    1    4    4    0    0  0.17802821296E+02  0.28144522419E+02 -0.37619579535E+02  0.50242286499E+02  0.00000000000E+00 0. -1.
<mgrwt>
<rscale>  0 0.91533799E+02</rscale>
<asrwt>0</asrwt>
<pdfrwt beam="1">  1        1 0.13739409E-02 0.91533799E+02</pdfrwt>
<pdfrwt beam="2">  1       -1 0.36083464E-01 0.91533799E+02</pdfrwt>
<totfact> 0.65474161E+04</totfact>
</mgrwt>
</event>
<event>
 7    1  0.2787125E-009  0.9140607E+02  0.7818608E-02  0.1299482E+00
         -1   -1    0    0    0  501 -0.00000000000E+00  0.00000000000E+00  0.15040155181E+03  0.15040155190E+03  0.50400000000E-02 0.  1.
          1   -1    0    0  501    0  0.00000000000E+00 -0.00000000000E+00 -0.13887937600E+02  0.13887938514E+02  0.50400000000E-02 0. -1.
         23    2    1    2    0    0  0.00000000000E+00  0.00000000000E+00  0.13651361421E+03  0.16428949041E+03  0.91406070882E+02 0.  0.
    9000005    2    3    3    0    0  0.19140402180E+02 -0.32354065309E+02  0.26022614578E+02  0.47578730247E+02  0.13168848274E+02 0.  0.
         22    1    3    3    0    0 -0.19140402180E+02  0.32354065309E+02  0.11049099963E+03  0.11671076016E+03  0.00000000000E+00 0.  1.
         22    1    4    4    0    0  0.62785199450E+01 -0.30367167304E+01  0.87901648487E+01  0.11220893871E+02  0.00000000000E+00 0. -1.
         22    1    4    4    0    0  0.12861882235E+02 -0.29317348579E+02  0.17232449729E+02  0.36357836376E+02  0.00000000000E+00 0. -1.
<mgrwt>
<rscale>  0 0.91406071E+02</rscale>
<asrwt>0</asrwt>
<pdfrwt beam="2">  1        1 0.21366058E-02 0.91406071E+02</pdfrwt>
<pdfrwt beam="1">  1       -1 0.23138701E-01 0.91406071E+02</pdfrwt>
<totfact> 0.74255620E+04</totfact>
</mgrwt>
</event>
<event>
 7    1  0.2850061E-009  0.1048377E+03  0.7818608E-02  0.1270440E+00
         -1   -1    0    0    0  501 -0.00000000000E+00  0.00000000000E+00  0.17518418142E+02  0.17518418867E+02  0.50400000000E-02 0.  1.
          1   -1    0    0  501    0  0.00000000000E+00 -0.00000000000E+00 -0.15684827284E+03  0.15684827292E+03  0.50400000000E-02 0. -1.
         23    2    1    2    0    0  0.00000000000E+00  0.00000000000E+00 -0.13932985469E+03  0.17436669178E+03  0.10483765924E+03 0.  0.
    9000005    2    3    3    0    0 -0.33941199579E+02 -0.34615060863E+02 -0.43520142500E+02  0.66990211967E+02  0.15603788920E+02 0.  0.
         22    1    3    3    0    0  0.33941199579E+02  0.34615060863E+02 -0.95809712192E+02  0.10737647982E+03  0.00000000000E+00 0.  1.
         22    1    4    4    0    0 -0.17753204036E+02 -0.23020610051E+02 -0.16504394688E+02  0.33429325221E+02  0.00000000000E+00 0.  1.
         22    1    4    4    0    0 -0.16187995543E+02 -0.11594450812E+02 -0.27015747812E+02  0.33560886746E+02  0.00000000000E+00 0.  1.
<mgrwt>
<rscale>  0 0.10483766E+03</rscale>
<asrwt>0</asrwt>
<pdfrwt beam="2">  1        1 0.24130503E-01 0.10483766E+03</pdfrwt>
<pdfrwt beam="1">  1       -1 0.26951414E-02 0.10483766E+03</pdfrwt>
<totfact> 0.77353592E+04</totfact>
</mgrwt>
</event>
<event>
 7    1  0.2787125E-009  0.9509718E+02  0.7818608E-02  0.1290957E+00
         -1   -1    0    0    0  501 -0.00000000000E+00  0.00000000000E+00  0.17705668496E+02  0.17705669213E+02  0.50400000000E-02 0. -1.
          1   -1    0    0  501    0  0.00000000000E+00 -0.00000000000E+00 -0.12769178583E+03  0.12769178593E+03  0.50400000000E-02 0.  1.
         23    2    1    2    0    0  0.00000000000E+00 -0.88817841970E-15 -0.10998611733E+03  0.14539745514E+03  0.95097181639E+02 0.  0.
    9000005    2    3    3    0    0  0.24546506505E+02 -0.59398905416E+01  0.40308445163E+01  0.28616973593E+02  0.12840178693E+02 0.  0.
         22    1    3    3    0    0 -0.24546506505E+02  0.59398905416E+01 -0.11401696185E+03  0.11678048155E+03  0.00000000000E+00 0.  1.
         22    1    4    4    0    0  0.16425045360E+02  0.17361023350E+01 -0.58350120743E+00  0.16526846041E+02  0.00000000000E+00 0. -1.
         22    1    4    4    0    0  0.81214611452E+01 -0.76759928767E+01  0.46143457238E+01  0.12090127552E+02  0.00000000000E+00 0. -1.
<mgrwt>
<rscale>  0 0.95097182E+02</rscale>
<asrwt>0</asrwt>
<pdfrwt beam="2">  1        1 0.19644890E-01 0.95097182E+02</pdfrwt>
<pdfrwt beam="1">  1       -1 0.27239491E-02 0.95097182E+02</pdfrwt>
<totfact> 0.97147881E+04</totfact>
</mgrwt>
</event>
<event>
 7    1  0.2787125E-009  0.9095238E+02  0.7818608E-02  0.1300562E+00
          1   -1    0    0  501    0  0.00000000000E+00  0.00000000000E+00  0.73580777650E+02  0.73580777823E+02  0.50400000000E-02 0. -1.
         -1   -1    0    0    0  501 -0.00000000000E+00 -0.00000000000E+00 -0.28106306357E+02  0.28106306809E+02  0.50400000000E-02 0.  1.
         23    2    1    2    0    0  0.00000000000E+00  0.00000000000E+00  0.45474471292E+02  0.10168708463E+03  0.90952381176E+02 0.  0.
    9000005    2    3    3    0    0 -0.16216604937E+02 -0.38731086036E+02  0.80748994488E+01  0.45457170215E+02  0.15429679893E+02 0.  0.
         22    1    3    3    0    0  0.16216604937E+02  0.38731086036E+02  0.37399571844E+02  0.56229914417E+02  0.00000000000E+00 0. -1.
         22    1    4    4    0    0 -0.15591611090E+02 -0.17843498067E+02  0.60922470564E+01  0.24466389882E+02  0.00000000000E+00 0.  1.
         22    1    4    4    0    0 -0.62499384669E+00 -0.20887587969E+02  0.19826523924E+01  0.20990780333E+02  0.00000000000E+00 0.  1.
<mgrwt>
<rscale>  0 0.90952381E+02</rscale>
<asrwt>0</asrwt>
<pdfrwt beam="1">  1        1 0.11320119E-01 0.90952381E+02</pdfrwt>
<pdfrwt beam="2">  1       -1 0.43240473E-02 0.90952381E+02</pdfrwt>
<totfact> 0.10010985E+05</totfact>
</mgrwt>
</event>
<event>
 7    1  0.2787125E-009  0.9129710E+02  0.7818608E-02  0.1299741E+00
          1   -1    0    0  501    0  0.00000000000E+00  0.00000000000E+00  0.19625941935E+03  0.19625941941E+03  0.50400000000E-02 0. -1.
         -1   -1    0    0    0  501 -0.00000000000E+00 -0.00000000000E+00 -0.10617527492E+02  0.10617528689E+02  0.50400000000E-02 0.  1.
         23    2    1    2    0    0  0.00000000000E+00 -0.71054273576E-14  0.18564189185E+03  0.20687694810E+03  0.91297095484E+02 0.  0.
    9000005    2    3    3    0    0 -0.13218929661E+02  0.37623031085E+02  0.42852238633E+02  0.58623389503E+02  0.31866709367E+01 0.  0.
         22    1    3    3    0    0  0.13218929661E+02 -0.37623031085E+02  0.14278965322E+03  0.14825355860E+03  0.00000000000E+00 0. -1.
         22    1    4    4    0    0 -0.18025244463E+01  0.41444356088E+01  0.63553837458E+01  0.77984834072E+01  0.00000000000E+00 0.  1.
         22    1    4    4    0    0 -0.11416405215E+02  0.33478595476E+02  0.36496854887E+02  0.50824906096E+02  0.00000000000E+00 0.  1.
<mgrwt>
<rscale>  0 0.91297095E+02</rscale>
<asrwt>0</asrwt>
<pdfrwt beam="1">  1        1 0.30193755E-01 0.91297095E+02</pdfrwt>
<pdfrwt beam="2">  1       -1 0.16334660E-02 0.91297095E+02</pdfrwt>
<totfact> 0.11755689E+05</totfact>
</mgrwt>
</event>
<event>
 7    1  0.2787125E-009  0.9087974E+02  0.7818608E-02  0.1300735E+00
          1   -1    0    0  501    0  0.00000000000E+00  0.00000000000E+00  0.14928532919E+03  0.14928532928E+03  0.50400000000E-02 0. -1.
         -1   -1    0    0    0  501 -0.00000000000E+00 -0.00000000000E+00 -0.13831108207E+02  0.13831109125E+02  0.50400000000E-02 0.  1.
         23    2    1    2    0    0  0.17763568394E-14  0.00000000000E+00  0.13545422099E+03  0.16311643840E+03  0.90879736434E+02 0.  0.
    9000005    2    3    3    0    0  0.13899412892E+02  0.42192863043E+02  0.57822179201E+02  0.73672795352E+02  0.10528295057E+02 0.  0.
         22    1    3    3    0    0 -0.13899412892E+02 -0.42192863043E+02  0.77632041787E+02  0.89443643053E+02  0.00000000000E+00 0. -1.
         22    1    4    4    0    0 -0.17270672931E+01  0.34918003696E+01  0.55915545684E+01  0.68147570571E+01  0.00000000000E+00 0.  1.
         22    1    4    4    0    0  0.15626480186E+02  0.38701062674E+02  0.52230624633E+02  0.66858038295E+02  0.00000000000E+00 0.  1.
<mgrwt>
<rscale>  0 0.90879736E+02</rscale>
<asrwt>0</asrwt>
<pdfrwt beam="1">  1        1 0.22966974E-01 0.90879736E+02</pdfrwt>
<pdfrwt beam="2">  1       -1 0.21278629E-02 0.90879736E+02</pdfrwt>
<totfact> 0.11302508E+05</totfact>
</mgrwt>
</event>
<event>
 7    1  0.2787125E-009  0.8961955E+02  0.7818608E-02  0.1303776E+00
          1   -1    0    0  501    0  0.00000000000E+00  0.00000000000E+00  0.13263065427E+03  0.13263065437E+03  0.50400000000E-02 0. -1.
         -1   -1    0    0    0  501 -0.00000000000E+00 -0.00000000000E+00 -0.15139152334E+02  0.15139153173E+02  0.50400000000E-02 0.  1.
         23    2    1    2    0    0  0.00000000000E+00  0.00000000000E+00  0.11749150194E+03  0.14776980754E+03  0.89619545819E+02 0.  0.
    9000005    2    3    3    0    0  0.22892329665E+02 -0.38164989659E+02  0.60035770536E+02  0.75093908756E+02  0.73604480323E+01 0.  0.
         22    1    3    3    0    0 -0.22892329665E+02  0.38164989659E+02  0.57455731403E+02  0.72675898785E+02  0.00000000000E+00 0. -1.
         22    1    4    4    0    0  0.17767506286E+02 -0.29139173384E+02  0.50803826045E+02  0.61202977427E+02  0.00000000000E+00 0. -1.
         22    1    4    4    0    0  0.51248233793E+01 -0.90258162751E+01  0.92319444904E+01  0.13890931329E+02  0.00000000000E+00 0. -1.
<mgrwt>
<rscale>  0 0.89619546E+02</rscale>
<asrwt>0</asrwt>
<pdfrwt beam="1">  1        1 0.20404715E-01 0.89619546E+02</pdfrwt>
<pdfrwt beam="2">  1       -1 0.23291005E-02 0.89619546E+02</pdfrwt>
<totfact> 0.11488064E+05</totfact>
</mgrwt>
</event>
<event>
 7    1  0.2787125E-009  0.9144611E+02  0.7818608E-02  0.1299387E+00
          1   -1    0    0  501    0  0.00000000000E+00  0.00000000000E+00  0.74238102151E+02  0.74238102322E+02  0.50400000000E-02 0. -1.
         -1   -1    0    0    0  501 -0.00000000000E+00 -0.00000000000E+00 -0.28160708943E+02  0.28160709394E+02  0.50400000000E-02 0.  1.
         23    2    1    2    0    0  0.71054273576E-14  0.00000000000E+00  0.46077393208E+02  0.10239881172E+03  0.91446106949E+02 0.  0.
    9000005    2    3    3    0    0 -0.40799626752E+02 -0.17019856845E+02  0.35524322529E+02  0.56949363195E+02  0.51930152229E+01 0.  0.
         22    1    3    3    0    0  0.40799626752E+02  0.17019856845E+02  0.10553070679E+02  0.45449448521E+02  0.00000000000E+00 0.  1.
         22    1    4    4    0    0 -0.97792727780E+01 -0.21223088148E+01  0.95749187591E+01  0.13849817328E+02  0.00000000000E+00 0.  1.
         22    1    4    4    0    0 -0.31020353974E+02 -0.14897548030E+02  0.25949403770E+02  0.43099545868E+02  0.00000000000E+00 0.  1.
<mgrwt>
<rscale>  0 0.91446107E+02</rscale>
<asrwt>0</asrwt>
<pdfrwt beam="1">  1        1 0.11421246E-01 0.91446107E+02</pdfrwt>
<pdfrwt beam="2">  1       -1 0.43324169E-02 0.91446107E+02</pdfrwt>
<totfact> 0.98764763E+04</totfact>
</mgrwt>
</event>
<event>
 7    1  0.2787125E-009  0.9256334E+02  0.7818608E-02  0.1296760E+00
         -1   -1    0    0    0  501 -0.00000000000E+00  0.00000000000E+00  0.48391967736E+02  0.48391967999E+02  0.50400000000E-02 0.  1.
          1   -1    0    0  501    0  0.00000000000E+00 -0.00000000000E+00 -0.44263401653E+02  0.44263401940E+02  0.50400000000E-02 0. -1.
         23    2    1    2    0    0  0.00000000000E+00  0.00000000000E+00  0.41285660831E+01  0.92655369939E+02  0.92563343288E+02 0.  0.
    9000005    2    3    3    0    0 -0.29428827950E+01  0.97302943788E+01  0.46952132453E+02  0.48641769490E+02  0.76275690350E+01 0.  0.
         22    1    3    3    0    0  0.29428827950E+01 -0.97302943788E+01 -0.42823566370E+02  0.44013600449E+02  0.00000000000E+00 0. -1.
         22    1    4    4    0    0 -0.53402415191E+01  0.64935256952E+01  0.26678587631E+02  0.27971969781E+02  0.00000000000E+00 0.  1.
         22    1    4    4    0    0  0.23973587241E+01  0.32367686836E+01  0.20273544822E+02  0.20669799709E+02  0.00000000000E+00 0.  1.
<mgrwt>
<rscale>  0 0.92563343E+02</rscale>
<asrwt>0</asrwt>
<pdfrwt beam="2">  1        1 0.68097541E-02 0.92563343E+02</pdfrwt>
<pdfrwt beam="1">  1       -1 0.74449182E-02 0.92563343E+02</pdfrwt>
<totfact> 0.88230706E+04</totfact>
</mgrwt>
</event>
<event>
 7    1  0.3317792E-009  0.1014451E+03  0.7818608E-02  0.1277286E+00
         -1   -1    0    0    0  501 -0.00000000000E+00  0.00000000000E+00  0.51764966651E+02  0.51764966896E+02  0.50400000000E-02 0.  1.
          1   -1    0    0  501    0  0.00000000000E+00 -0.00000000000E+00 -0.49701102227E+02  0.49701102483E+02  0.50400000000E-02 0. -1.
         23    2    1    2    0    0  0.00000000000E+00 -0.71054273576E-14  0.20638644238E+01  0.10146606938E+03  0.10144507725E+03 0.  0.
    9000005    2    3    3    0    0  0.23292741811E+01  0.46533536402E+02  0.17863961116E+02  0.52268116335E+02  0.15557613896E+02 0.  0.
         22    1    3    3    0    0 -0.23292741811E+01 -0.46533536402E+02 -0.15800096692E+02  0.49197953044E+02  0.00000000000E+00 0.  1.
         22    1    4    4    0    0  0.58234521025E+01  0.61238946941E+01  0.44258467597E+01  0.95395387810E+01  0.00000000000E+00 0. -1.
         22    1    4    4    0    0 -0.34941779213E+01  0.40409641708E+02  0.13438114356E+02  0.42728577554E+02  0.00000000000E+00 0. -1.
<mgrwt>
<rscale>  0 0.10144508E+03</rscale>
<asrwt>0</asrwt>
<pdfrwt beam="2">  1        1 0.76463235E-02 0.10144508E+03</pdfrwt>
<pdfrwt beam="1">  1       -1 0.79638410E-02 0.10144508E+03</pdfrwt>
<totfact> 0.69318523E+04</totfact>
</mgrwt>
</event>
<event>
 7    1  0.2787125E-009  0.9599267E+02  0.7818608E-02  0.1288956E+00
          1   -1    0    0  501    0  0.00000000000E+00  0.00000000000E+00  0.10214531799E+03  0.10214531811E+03  0.50400000000E-02 0. -1.
         -1   -1    0    0    0  501 -0.00000000000E+00 -0.00000000000E+00 -0.22552654678E+02  0.22552655241E+02  0.50400000000E-02 0.  1.
         23    2    1    2    0    0  0.00000000000E+00  0.00000000000E+00  0.79592663311E+02  0.12469797335E+03  0.95992669020E+02 0.  0.
    9000005    2    3    3    0    0  0.42443187281E+02 -0.15852885820E+02  0.25561888551E+02  0.54185118097E+02  0.15161752586E+02 0.  0.
         22    1    3    3    0    0 -0.42443187281E+02  0.15852885820E+02  0.54030774759E+02  0.70512855257E+02  0.00000000000E+00 0.  1.
         22    1    4    4    0    0  0.20868648680E+02 -0.14303661664E+02  0.18807822751E+02  0.31525060370E+02  0.00000000000E+00 0.  1.
         22    1    4    4    0    0  0.21574538601E+02 -0.15492241563E+01  0.67540658000E+01  0.22660057726E+02  0.00000000000E+00 0.  1.
<mgrwt>
<rscale>  0 0.95992669E+02</rscale>
<asrwt>0</asrwt>
<pdfrwt beam="1">  1        1 0.15714664E-01 0.95992669E+02</pdfrwt>
<pdfrwt beam="2">  1       -1 0.34696392E-02 0.95992669E+02</pdfrwt>
<totfact> 0.91054243E+04</totfact>
</mgrwt>
</event>
<event>
 7    1  0.2787125E-009  0.9310833E+02  0.7818608E-02  0.1295494E+00
          1   -1    0    0  501    0  0.00000000000E+00  0.00000000000E+00  0.37386268762E+02  0.37386269102E+02  0.50400000000E-02 0. -1.
         -1   -1    0    0    0  501 -0.00000000000E+00 -0.00000000000E+00 -0.57970224904E+02  0.57970225123E+02  0.50400000000E-02 0.  1.
         23    2    1    2    0    0  0.00000000000E+00  0.00000000000E+00 -0.20583956141E+02  0.95356494225E+02  0.93108333357E+02 0.  0.
    9000005    2    3    3    0    0 -0.15483327082E+02  0.22886911358E+02  0.27836106320E+02  0.39606637025E+02  0.55038852009E+01 0.  0.
         22    1    3    3    0    0  0.15483327082E+02 -0.22886911358E+02 -0.48420062462E+02  0.55749857200E+02  0.00000000000E+00 0.  1.
         22    1    4    4    0    0 -0.74175725776E+01  0.11281789147E+02  0.97529193513E+01  0.16655887403E+02  0.00000000000E+00 0.  1.
         22    1    4    4    0    0 -0.80657545047E+01  0.11605122211E+02  0.18083186969E+02  0.22950749622E+02  0.00000000000E+00 0.  1.
<mgrwt>
<rscale>  0 0.93108333E+02</rscale>
<asrwt>0</asrwt>
<pdfrwt beam="1">  1        1 0.57517337E-02 0.93108333E+02</pdfrwt>
<pdfrwt beam="2">  1       -1 0.89184961E-02 0.93108333E+02</pdfrwt>
<totfact> 0.84542093E+04</totfact>
</mgrwt>
</event>
<event>
 7    1  0.2787125E-009  0.9059309E+02  0.7818608E-02  0.1301422E+00
         -1   -1    0    0    0  501 -0.00000000000E+00  0.00000000000E+00  0.11597092784E+03  0.11597092795E+03  0.50400000000E-02 0.  1.
          1   -1    0    0  501    0  0.00000000000E+00 -0.00000000000E+00 -0.17692166828E+02  0.17692167546E+02  0.50400000000E-02 0. -1.
         23    2    1    2    0    0  0.00000000000E+00  0.00000000000E+00  0.98278761010E+02  0.13366309549E+03  0.90593091520E+02 0.  0.
    9000005    2    3    3    0    0  0.18222268890E+02 -0.35112921357E+02  0.21730826386E+02  0.47497240162E+02  0.14791574558E+02 0.  0.
         22    1    3    3    0    0 -0.18222268890E+02  0.35112921357E+02  0.76547934624E+02  0.86165855331E+02  0.00000000000E+00 0.  1.
         22    1    4    4    0    0  0.15819496789E+02 -0.16513547418E+02  0.15919080712E+02  0.27863432267E+02  0.00000000000E+00 0.  1.
         22    1    4    4    0    0  0.24027721010E+01 -0.18599373939E+02  0.58117456734E+01  0.19633807895E+02  0.00000000000E+00 0.  1.
<mgrwt>
<rscale>  0 0.90593092E+02</rscale>
<asrwt>0</asrwt>
<pdfrwt beam="2">  1        1 0.27218720E-02 0.90593092E+02</pdfrwt>
<pdfrwt beam="1">  1       -1 0.17841681E-01 0.90593092E+02</pdfrwt>
<totfact> 0.80398072E+04</totfact>
</mgrwt>
</event>
<event>
 7    1  0.2787125E-009  0.9536121E+02  0.7818608E-02  0.1290365E+00
         -1   -1    0    0    0  501 -0.00000000000E+00  0.00000000000E+00  0.26734375782E+01  0.26734423289E+01  0.50400000000E-02 0.  1.
          1   -1    0    0  501    0  0.00000000000E+00 -0.00000000000E+00 -0.85038009513E+03  0.85038009514E+03  0.50400000000E-02 0. -1.
         23    2    1    2    0    0  0.00000000000E+00  0.71054273576E-14 -0.84770665755E+03  0.85305353747E+03  0.95361210872E+02 0.  0.
    9000005    2    3    3    0    0 -0.18872651266E+02  0.38007621766E+02 -0.60903521880E+03  0.61063899180E+03  0.12462916606E+02 0.  0.
         22    1    3    3    0    0  0.18872651266E+02 -0.38007621766E+02 -0.23867143875E+03  0.24241454567E+03  0.00000000000E+00 0.  1.
         22    1    4    4    0    0 -0.47268408526E+01  0.11442653313E+02 -0.26529416551E+03  0.26558289025E+03  0.00000000000E+00 0. -1.
         22    1    4    4    0    0 -0.14145810413E+02  0.26564968452E+02 -0.34374105329E+03  0.34505610155E+03  0.00000000000E+00 0. -1.
<mgrwt>
<rscale>  0 0.95361211E+02</rscale>
<asrwt>0</asrwt>
<pdfrwt beam="2">  1        1 0.13082749E+00 0.95361211E+02</pdfrwt>
<pdfrwt beam="1">  1       -1 0.41129913E-03 0.95361211E+02</pdfrwt>
<totfact> 0.12463738E+05</totfact>
</mgrwt>
</event>
<event>
 7    1  0.2787125E-009  0.8940637E+02  0.7818608E-02  0.1304296E+00
         -1   -1    0    0    0  501 -0.00000000000E+00  0.00000000000E+00  0.35913561525E+01  0.35913596890E+01  0.50400000000E-02 0.  1.
          1   -1    0    0  501    0  0.00000000000E+00 -0.00000000000E+00 -0.55643988184E+03  0.55643988186E+03  0.50400000000E-02 0. -1.
         23    2    1    2    0    0  0.00000000000E+00  0.00000000000E+00 -0.55284852569E+03  0.56003124155E+03  0.89406370910E+02 0.  0.
    9000005    2    3    3    0    0  0.40481261405E+02  0.15246283219E+02 -0.33135289435E+03  0.33435116627E+03  0.11170502053E+02 0.  0.
         22    1    3    3    0    0 -0.40481261405E+02 -0.15246283219E+02 -0.22149563134E+03  0.22568007528E+03  0.00000000000E+00 0.  1.
         22    1    4    4    0    0  0.34027898423E+02  0.11658061892E+02 -0.23751286063E+03  0.24022107993E+03  0.00000000000E+00 0. -1.
         22    1    4    4    0    0  0.64533629817E+01  0.35882213268E+01 -0.93840033721E+02  0.94130086342E+02  0.00000000000E+00 0. -1.
<mgrwt>
<rscale>  0 0.89406371E+02</rscale>
<asrwt>0</asrwt>
<pdfrwt beam="2">  1        1 0.85606068E-01 0.89406371E+02</pdfrwt>
<pdfrwt beam="1">  1       -1 0.55251705E-03 0.89406371E+02</pdfrwt>
<totfact> 0.14830017E+05</totfact>
</mgrwt>
</event>
<event>
 7    1  0.2787125E-009  0.9055982E+02  0.7818608E-02  0.1301502E+00
         -1   -1    0    0    0  501 -0.00000000000E+00  0.00000000000E+00  0.23970409473E+02  0.23970410003E+02  0.50400000000E-02 0.  1.
          1   -1    0    0  501    0  0.00000000000E+00 -0.00000000000E+00 -0.85533379615E+02  0.85533379764E+02  0.50400000000E-02 0. -1.
         23    2    1    2    0    0  0.00000000000E+00  0.00000000000E+00 -0.61562970142E+02  0.10950378977E+03  0.90559818245E+02 0.  0.
    9000005    2    3    3    0    0 -0.14737587077E+02 -0.59106525367E+01 -0.81356647660E+02  0.84128172416E+02  0.14370559811E+02 0.  0.
         22    1    3    3    0    0  0.14737587077E+02  0.59106525367E+01  0.19793677518E+02  0.25375617351E+02  0.00000000000E+00 0.  1.
         22    1    4    4    0    0 -0.55136537685E+01  0.37092179818E+01 -0.43263795393E+02  0.43771162513E+02  0.00000000000E+00 0. -1.
         22    1    4    4    0    0 -0.92239333084E+01 -0.96198705184E+01 -0.38092852267E+02  0.40357009902E+02  0.00000000000E+00 0. -1.
<mgrwt>
<rscale>  0 0.90559818E+02</rscale>
<asrwt>0</asrwt>
<pdfrwt beam="2">  1        1 0.13158981E-01 0.90559818E+02</pdfrwt>
<pdfrwt beam="1">  1       -1 0.36877554E-02 0.90559818E+02</pdfrwt>
<totfact> 0.10373072E+05</totfact>
</mgrwt>
</event>
<event>
 7    1  0.2787125E-009  0.9259966E+02  0.7818608E-02  0.1296676E+00
         -1   -1    0    0    0  501 -0.00000000000E+00  0.00000000000E+00  0.51057054474E+02  0.51057054723E+02  0.50400000000E-02 0.  1.
          1   -1    0    0  501    0  0.00000000000E+00 -0.00000000000E+00 -0.41985858646E+02  0.41985858948E+02  0.50400000000E-02 0. -1.
         23    2    1    2    0    0  0.00000000000E+00  0.00000000000E+00  0.90711958281E+01  0.93042913671E+02  0.92599660856E+02 0.  0.
    9000005    2    3    3    0    0  0.40519516291E+02  0.79565483786E+01 -0.13169478063E+02  0.46141043370E+02  0.15824754919E+02 0.  0.
         22    1    3    3    0    0 -0.40519516291E+02 -0.79565483786E+01  0.22240673891E+02  0.46901870301E+02  0.00000000000E+00 0. -1.
         22    1    4    4    0    0  0.26364561943E+02  0.11005436334E+02 -0.13629917014E+02  0.31654137062E+02  0.00000000000E+00 0. -1.
         22    1    4    4    0    0  0.14154954348E+02 -0.30488879550E+01  0.46043895015E+00  0.14486906308E+02  0.00000000000E+00 0. -1.
<mgrwt>
<rscale>  0 0.92599661E+02</rscale>
<asrwt>0</asrwt>
<pdfrwt beam="2">  1        1 0.64593629E-02 0.92599661E+02</pdfrwt>
<pdfrwt beam="1">  1       -1 0.78549315E-02 0.92599661E+02</pdfrwt>
<totfact> 0.87423722E+04</totfact>
</mgrwt>
</event>
<event>
 7    1  0.2787125E-009  0.8981466E+02  0.7818608E-02  0.1303301E+00
          1   -1    0    0  501    0  0.00000000000E+00  0.00000000000E+00  0.25321345509E+03  0.25321345514E+03  0.50400000000E-02 0. -1.
         -1   -1    0    0    0  501 -0.00000000000E+00 -0.00000000000E+00 -0.79643003240E+01  0.79643019187E+01  0.50400000000E-02 0.  1.
         23    2    1    2    0    0 -0.35527136788E-14  0.00000000000E+00  0.24524915476E+03  0.26117775706E+03  0.89814658429E+02 0.  0.
    9000005    2    3    3    0    0  0.19614906753E+02 -0.22705550271E+02  0.21931459465E+03  0.22151810517E+03  0.84316610320E+01 0.  0.
         22    1    3    3    0    0 -0.19614906753E+02  0.22705550271E+02  0.25934560109E+02  0.39659651891E+02  0.00000000000E+00 0.  1.
         22    1    4    4    0    0  0.67976441364E+01 -0.35403584461E+01  0.40035631974E+02  0.40762653634E+02  0.00000000000E+00 0. -1.
         22    1    4    4    0    0  0.12817262617E+02 -0.19165191824E+02  0.17927896268E+03  0.18075545153E+03  0.00000000000E+00 0. -1.
<mgrwt>
<rscale>  0 0.89814658E+02</rscale>
<asrwt>0</asrwt>
<pdfrwt beam="1">  1        1 0.38955918E-01 0.89814658E+02</pdfrwt>
<pdfrwt beam="2">  1       -1 0.12252771E-02 0.89814658E+02</pdfrwt>
<totfact> 0.12905695E+05</totfact>
</mgrwt>
</event>
<event>
 7    1  0.2787125E-009  0.8826608E+02  0.7818608E-02  0.1307106E+00
         -1   -1    0    0    0  501 -0.00000000000E+00  0.00000000000E+00  0.93228789098E+01  0.93228802721E+01  0.50400000000E-02 0.  1.
          1   -1    0    0  501    0  0.00000000000E+00 -0.00000000000E+00 -0.20891882201E+03  0.20891882207E+03  0.50400000000E-02 0. -1.
         23    2    1    2    0    0  0.35527136788E-14 -0.71054273576E-14 -0.19959594310E+03  0.21824170234E+03  0.88266075813E+02 0.  0.
    9000005    2    3    3    0    0 -0.26272778033E+02  0.34165026027E+02 -0.12171835667E+03  0.12923368958E+03  0.53366938467E+01 0.  0.
         22    1    3    3    0    0  0.26272778033E+02 -0.34165026027E+02 -0.77877586424E+02  0.89008012764E+02  0.00000000000E+00 0.  1.
         22    1    4    4    0    0 -0.15908721299E+02  0.16382599892E+02 -0.65391720520E+02  0.69264378328E+02  0.00000000000E+00 0. -1.
         22    1    4    4    0    0 -0.10364056733E+02  0.17782426135E+02 -0.56326636154E+02  0.59969311249E+02  0.00000000000E+00 0. -1.
<mgrwt>
<rscale>  0 0.88266076E+02</rscale>
<asrwt>0</asrwt>
<pdfrwt beam="2">  1        1 0.32141354E-01 0.88266076E+02</pdfrwt>
<pdfrwt beam="1">  1       -1 0.14342893E-02 0.88266076E+02</pdfrwt>
<totfact> 0.13023393E+05</totfact>
</mgrwt>
</event>
<event>
 7    1  0.2787125E-009  0.8629112E+02  0.7818608E-02  0.1312090E+00
          1   -1    0    0  501    0  0.00000000000E+00  0.00000000000E+00  0.20285749766E+03  0.20285749772E+03  0.50400000000E-02 0. -1.
         -1   -1    0    0    0  501 -0.00000000000E+00 -0.00000000000E+00 -0.91765858732E+01  0.91765872572E+01  0.50400000000E-02 0.  1.
         23    2    1    2    0    0  0.00000000000E+00  0.00000000000E+00  0.19368091179E+03  0.21203408498E+03  0.86291121227E+02 0.  0.
    9000005    2    3    3    0    0  0.38017807473E+02 -0.19905301858E+02  0.86302653370E+02  0.96398168813E+02  0.16983063990E+01 0.  0.
         22    1    3    3    0    0 -0.38017807473E+02  0.19905301858E+02  0.10737825842E+03  0.11563591617E+03  0.00000000000E+00 0.  1.
         22    1    4    4    0    0  0.83186092945E+01 -0.39098578025E+01  0.19795434352E+02  0.21825340085E+02  0.00000000000E+00 0. -1.
         22    1    4    4    0    0  0.29699198179E+02 -0.15995444055E+02  0.66507219018E+02  0.74572828728E+02  0.00000000000E+00 0. -1.
<mgrwt>
<rscale>  0 0.86291121E+02</rscale>
<asrwt>0</asrwt>
<pdfrwt beam="1">  1        1 0.31208843E-01 0.86291121E+02</pdfrwt>
<pdfrwt beam="2">  1       -1 0.14117827E-02 0.86291121E+02</pdfrwt>
<totfact> 0.13755160E+05</totfact>
</mgrwt>
</event>
<event>
 7    1  0.2787125E-009  0.9267475E+02  0.7818608E-02  0.1296501E+00
          1   -1    0    0  501    0  0.00000000000E+00  0.00000000000E+00  0.54698060454E+03  0.54698060456E+03  0.50400000000E-02 0. -1.
         -1   -1    0    0    0  501 -0.00000000000E+00 -0.00000000000E+00 -0.39254621195E+01  0.39254653550E+01  0.50400000000E-02 0.  1.
         23    2    1    2    0    0  0.35527136788E-14  0.22204460493E-15  0.54305514242E+03  0.55090606992E+03  0.92674754726E+02 0.  0.
    9000005    2    3    3    0    0  0.28274143246E+02 -0.14831341860E+01  0.48727256368E+03  0.48834951188E+03  0.15781874719E+02 0.  0.
         22    1    3    3    0    0 -0.28274143246E+02  0.14831341860E+01  0.55782578740E+02  0.62556558043E+02  0.00000000000E+00 0.  1.
         22    1    4    4    0    0  0.17298541393E+02 -0.85830456494E+01  0.30108918046E+03  0.30170781030E+03  0.00000000000E+00 0.  1.
         22    1    4    4    0    0  0.10975601853E+02  0.70999114634E+01  0.18618338323E+03  0.18664170158E+03  0.00000000000E+00 0.  1.
<mgrwt>
<rscale>  0 0.92674755E+02</rscale>
<asrwt>0</asrwt>
<pdfrwt beam="1">  1        1 0.84150860E-01 0.92674755E+02</pdfrwt>
<pdfrwt beam="2">  1       -1 0.60391752E-03 0.92674755E+02</pdfrwt>
<totfact> 0.13464566E+05</totfact>
</mgrwt>
</event>
<event>
 7    1  0.2787125E-009  0.8946771E+02  0.7818608E-02  0.1304146E+00
         -1   -1    0    0    0  501 -0.00000000000E+00  0.00000000000E+00  0.18298613935E+03  0.18298613942E+03  0.50400000000E-02 0.  1.
          1   -1    0    0  501    0  0.00000000000E+00 -0.00000000000E+00 -0.10935896355E+02  0.10935897516E+02  0.50400000000E-02 0. -1.
         23    2    1    2    0    0  0.00000000000E+00 -0.17763568394E-14  0.17205024299E+03  0.19392203693E+03  0.89467705314E+02 0.  0.
    9000005    2    3    3    0    0  0.26393808612E+02  0.11511373720E+02  0.12849836375E+02  0.32138495356E+02  0.62144775225E+01 0.  0.
         22    1    3    3    0    0 -0.26393808612E+02 -0.11511373720E+02  0.15920040662E+03  0.16178354158E+03  0.00000000000E+00 0.  1.
         22    1    4    4    0    0  0.67301015935E+01  0.60335775352E+01  0.36288266857E+01  0.97399542323E+01  0.00000000000E+00 0.  1.
         22    1    4    4    0    0  0.19663707019E+02  0.54777961844E+01  0.92210096895E+01  0.22398541123E+02  0.00000000000E+00 0.  1.
<mgrwt>
<rscale>  0 0.89467705E+02</rscale>
<asrwt>0</asrwt>
<pdfrwt beam="2">  1        1 0.16824457E-02 0.89467705E+02</pdfrwt>
<pdfrwt beam="1">  1       -1 0.28151714E-01 0.89467705E+02</pdfrwt>
<totfact> 0.74743733E+04</totfact>
</mgrwt>
</event>
<event>
 7    1  0.2787125E-009  0.9170216E+02  0.7818608E-02  0.1298781E+00
          1   -1    0    0  501    0  0.00000000000E+00  0.00000000000E+00  0.77849134984E+01  0.77849151299E+01  0.50400000000E-02 0. -1.
         -1   -1    0    0    0  501 -0.00000000000E+00 -0.00000000000E+00 -0.27005070138E+03  0.27005070143E+03  0.50400000000E-02 0.  1.
         23    2    1    2    0    0  0.35527136788E-14  0.00000000000E+00 -0.26226578789E+03  0.27783561656E+03  0.91702161013E+02 0.  0.
    9000005    2    3    3    0    0  0.23828017173E+02  0.37833124449E+02 -0.14729098756E+03  0.15447304356E+03  0.12967901206E+02 0.  0.
         22    1    3    3    0    0 -0.23828017173E+02 -0.37833124449E+02 -0.11497480033E+03  0.12336257300E+03  0.00000000000E+00 0. -1.
         22    1    4    4    0    0  0.25128436438E+02  0.33071826222E+02 -0.12858967844E+03  0.13513137833E+03  0.00000000000E+00 0. -1.
         22    1    4    4    0    0 -0.13004192650E+01  0.47612982273E+01 -0.18701309120E+02  0.19341665231E+02  0.00000000000E+00 0. -1.
<mgrwt>
<rscale>  0 0.91702161E+02</rscale>
<asrwt>0</asrwt>
<pdfrwt beam="1">  1        1 0.11976793E-02 0.91702161E+02</pdfrwt>
<pdfrwt beam="2">  1       -1 0.41546255E-01 0.91702161E+02</pdfrwt>
<totfact> 0.62098633E+04</totfact>
</mgrwt>
</event>
<event>
 7    1  0.2787125E-009  0.8852059E+02  0.7818608E-02  0.1306474E+00
         -1   -1    0    0    0  501 -0.00000000000E+00  0.00000000000E+00  0.21032785285E+03  0.21032785291E+03  0.50400000000E-02 0.  1.
          1   -1    0    0  501    0  0.00000000000E+00 -0.00000000000E+00 -0.93139047672E+01  0.93139061308E+01  0.50400000000E-02 0. -1.
         23    2    1    2    0    0  0.22204460493E-15  0.00000000000E+00  0.20101394808E+03  0.21964175904E+03  0.88520590773E+02 0.  0.
    9000005    2    3    3    0    0 -0.17710704842E+01 -0.44103748956E+02  0.94615808378E+02  0.10445130156E+03  0.31057751550E+01 0.  0.
         22    1    3    3    0    0  0.17710704842E+01  0.44103748956E+02  0.10639813970E+03  0.11519045748E+03  0.00000000000E+00 0.  1.
         22    1    4    4    0    0  0.50767145123E+00 -0.24165135123E+01  0.44592540731E+01  0.50972752276E+01  0.00000000000E+00 0.  1.
         22    1    4    4    0    0 -0.22787419355E+01 -0.41687235444E+02  0.90156554305E+02  0.99354026330E+02  0.00000000000E+00 0.  1.
<mgrwt>
<rscale>  0 0.88520591E+02</rscale>
<asrwt>0</asrwt>
<pdfrwt beam="2">  1        1 0.14329085E-02 0.88520591E+02</pdfrwt>
<pdfrwt beam="1">  1       -1 0.32358133E-01 0.88520591E+02</pdfrwt>
<totfact> 0.73885958E+04</totfact>
</mgrwt>
</event>
<event>
 7    1  0.2787125E-009  0.8771540E+02  0.7818608E-02  0.1308480E+00
          1   -1    0    0  501    0  0.00000000000E+00  0.00000000000E+00  0.63619835704E+01  0.63619855667E+01  0.50400000000E-02 0. -1.
         -1   -1    0    0    0  501 -0.00000000000E+00 -0.00000000000E+00 -0.30234245261E+03  0.30234245265E+03  0.50400000000E-02 0.  1.
         23    2    1    2    0    0  0.71054273576E-14  0.00000000000E+00 -0.29598046904E+03  0.30870443822E+03  0.87715404137E+02 0.  0.
    9000005    2    3    3    0    0  0.40935724315E+02  0.98407219019E+01 -0.10807679239E+03  0.11614181196E+03  0.59794731773E+01 0.  0.
         22    1    3    3    0    0 -0.40935724315E+02 -0.98407219019E+01 -0.18790367665E+03  0.19256262626E+03  0.00000000000E+00 0. -1.
         22    1    4    4    0    0  0.13030785250E+02  0.41860033547E+00 -0.31046764071E+02  0.33673107219E+02  0.00000000000E+00 0.  1.
         22    1    4    4    0    0  0.27904939065E+02  0.94221215664E+01 -0.77030028316E+02  0.82468704739E+02  0.00000000000E+00 0.  1.
<mgrwt>
<rscale>  0 0.87715404E+02</rscale>
<asrwt>0</asrwt>
<pdfrwt beam="1">  1        1 0.97876709E-03 0.87715404E+02</pdfrwt>
<pdfrwt beam="2">  1       -1 0.46514212E-01 0.87715404E+02</pdfrwt>
<totfact> 0.66821877E+04</totfact>
</mgrwt>
</event>
<event>
 7    1  0.2787125E-009  0.9079865E+02  0.7818608E-02  0.1300929E+00
          1   -1    0    0  501    0  0.00000000000E+00  0.00000000000E+00  0.36220854331E+03  0.36220854334E+03  0.50400000000E-02 0. -1.
         -1   -1    0    0    0  501 -0.00000000000E+00 -0.00000000000E+00 -0.56903630880E+01  0.56903653200E+01  0.50400000000E-02 0.  1.
         23    2    1    2    0    0  0.00000000000E+00 -0.71054273576E-14  0.35651818022E+03  0.36789890866E+03  0.90798646290E+02 0.  0.
    9000005    2    3    3    0    0  0.22041300862E+02 -0.35754683031E+02  0.10912953740E+03  0.11696992090E+03  0.29137879832E+01 0.  0.
         22    1    3    3    0    0 -0.22041300862E+02  0.35754683031E+02  0.24738864282E+03  0.25092898776E+03  0.00000000000E+00 0. -1.
         22    1    4    4    0    0  0.19713627179E+02 -0.33377971292E+02  0.99725951386E+02  0.10699524029E+03  0.00000000000E+00 0. -1.
         22    1    4    4    0    0  0.23276736828E+01 -0.23767117390E+01  0.94035860122E+01  0.99746806141E+01  0.00000000000E+00 0. -1.
<mgrwt>
<rscale>  0 0.90798646E+02</rscale>
<asrwt>0</asrwt>
<pdfrwt beam="1">  1        1 0.55724400E-01 0.90798646E+02</pdfrwt>
<pdfrwt beam="2">  1       -1 0.87544051E-03 0.90798646E+02</pdfrwt>
<totfact> 0.13410701E+05</totfact>
</mgrwt>
</event>
<event>
 7    1  0.2787125E-009  0.8997250E+02  0.7818608E-02  0.1302918E+00
          1   -1    0    0  501    0  0.00000000000E+00  0.00000000000E+00  0.43421859179E+03  0.43421859181E+03  0.50400000000E-02 0. -1.
         -1   -1    0    0    0  501 -0.00000000000E+00 -0.00000000000E+00 -0.46606988920E+01  0.46607016171E+01  0.50400000000E-02 0.  1.
         23    2    1    2    0    0  0.44408920985E-15  0.00000000000E+00  0.42955789289E+03  0.43887929343E+03  0.89972500555E+02 0.  0.
    9000005    2    3    3    0    0  0.37053002685E+01 -0.26752577323E+02  0.38906476256E+03  0.39020565326E+03  0.12634584500E+02 0.  0.
         22    1    3    3    0    0 -0.37053002685E+01  0.26752577323E+02  0.40493130331E+02  0.48673640171E+02  0.00000000000E+00 0.  1.
         22    1    4    4    0    0 -0.32047200921E+01 -0.16028506209E+02  0.25951106241E+03  0.26002533483E+03  0.00000000000E+00 0. -1.
         22    1    4    4    0    0  0.69100203606E+01 -0.10724071114E+02  0.12955370016E+03  0.13018031843E+03  0.00000000000E+00 0. -1.
<mgrwt>
<rscale>  0 0.89972501E+02</rscale>
<asrwt>0</asrwt>
<pdfrwt beam="1">  1        1 0.66802859E-01 0.89972501E+02</pdfrwt>
<pdfrwt beam="2">  1       -1 0.71703082E-03 0.89972501E+02</pdfrwt>
<totfact> 0.14154328E+05</totfact>
</mgrwt>
</event>
<event>
 7    1  0.2787125E-009  0.9179724E+02  0.7818608E-02  0.1298557E+00
         -1   -1    0    0    0  501 -0.00000000000E+00  0.00000000000E+00  0.21516170942E+03  0.21516170948E+03  0.50400000000E-02 0.  1.
          1   -1    0    0  501    0  0.00000000000E+00 -0.00000000000E+00 -0.97911624958E+01  0.97911637929E+01  0.50400000000E-02 0. -1.
         23    2    1    2    0    0  0.00000000000E+00  0.00000000000E+00  0.20537054692E+03  0.22495287327E+03  0.91797242057E+02 0.  0.
    9000005    2    3    3    0    0 -0.32430846830E+02  0.21131788057E+02  0.16264818082E+03  0.16730295690E+03  0.61266931440E+01 0.  0.
         22    1    3    3    0    0  0.32430846830E+02 -0.21131788057E+02  0.42722366098E+02  0.57649916371E+02  0.00000000000E+00 0.  1.
         22    1    4    4    0    0 -0.24504095291E+02  0.15812492066E+02  0.11022484977E+03  0.11401755609E+03  0.00000000000E+00 0. -1.
         22    1    4    4    0    0 -0.79267515396E+01  0.53192959914E+01  0.52423331056E+02  0.53285400804E+02  0.00000000000E+00 0. -1.
<mgrwt>
<rscale>  0 0.91797242E+02</rscale>
<asrwt>0</asrwt>
<pdfrwt beam="2">  1        1 0.15063330E-02 0.91797242E+02</pdfrwt>
<pdfrwt beam="1">  1       -1 0.33101798E-01 0.91797242E+02</pdfrwt>
<totfact> 0.66757444E+04</totfact>
</mgrwt>
</event>
<event>
 7    1  0.2787125E-009  0.9177230E+02  0.7818608E-02  0.1298616E+00
         -1   -1    0    0    0  501 -0.00000000000E+00  0.00000000000E+00  0.69863794505E+02  0.69863794687E+02  0.50400000000E-02 0.  1.
          1   -1    0    0  501    0  0.00000000000E+00 -0.00000000000E+00 -0.30137769191E+02  0.30137769613E+02  0.50400000000E-02 0. -1.
         23    2    1    2    0    0  0.00000000000E+00 -0.35527136788E-14  0.39726025314E+02  0.10000156430E+03  0.91772303965E+02 0.  0.
    9000005    2    3    3    0    0  0.24612340257E+02  0.17685605194E+02  0.57214172905E+02  0.65010376407E+02  0.58599944879E+01 0.  0.
         22    1    3    3    0    0 -0.24612340257E+02 -0.17685605194E+02 -0.17488147590E+02  0.34991187893E+02  0.00000000000E+00 0. -1.
         22    1    4    4    0    0  0.82324394841E+01  0.33096450499E+01  0.20085207919E+02  0.21957740944E+02  0.00000000000E+00 0. -1.
         22    1    4    4    0    0  0.16379900773E+02  0.14375960144E+02  0.37128964986E+02  0.43052635463E+02  0.00000000000E+00 0. -1.
<mgrwt>
<rscale>  0 0.91772304E+02</rscale>
<asrwt>0</asrwt>
<pdfrwt beam="2">  1        1 0.46365800E-02 0.91772304E+02</pdfrwt>
<pdfrwt beam="1">  1       -1 0.10748276E-01 0.91772304E+02</pdfrwt>
<totfact> 0.85140308E+04</totfact>
</mgrwt>
</event>
<event>
 7    1  0.2787125E-009  0.9141726E+02  0.7818608E-02  0.1299455E+00
         -1   -1    0    0    0  501 -0.00000000000E+00  0.00000000000E+00  0.64938610024E+02  0.64938610219E+02  0.50400000000E-02 0.  1.
          1   -1    0    0  501    0  0.00000000000E+00 -0.00000000000E+00 -0.32173139635E+02  0.32173140030E+02  0.50400000000E-02 0. -1.
         23    2    1    2    0    0  0.35527136788E-14  0.71054273576E-14  0.32765470388E+02  0.97111750249E+02  0.91417263067E+02 0.  0.
    9000005    2    3    3    0    0 -0.26996013155E+02 -0.35707193667E+02  0.71841320367E+01  0.45554080813E+02  0.44468100656E+01 0.  0.
         22    1    3    3    0    0  0.26996013155E+02  0.35707193667E+02  0.25581338352E+02  0.51557669436E+02  0.00000000000E+00 0. -1.
         22    1    4    4    0    0 -0.20735610870E+02 -0.24081407757E+02  0.49239734415E+01  0.32157818212E+02  0.00000000000E+00 0. -1.
         22    1    4    4    0    0 -0.62604022848E+01 -0.11625785910E+02  0.22601585953E+01  0.13396262601E+02  0.00000000000E+00 0. -1.
<mgrwt>
<rscale>  0 0.91417263E+02</rscale>
<asrwt>0</asrwt>
<pdfrwt beam="2">  1        1 0.49497139E-02 0.91417263E+02</pdfrwt>
<pdfrwt beam="1">  1       -1 0.99905553E-02 0.91417263E+02</pdfrwt>
<totfact> 0.87000244E+04</totfact>
</mgrwt>
</event>
<event>
 7    1  0.2787125E-009  0.9057017E+02  0.7818608E-02  0.1301477E+00
         -1   -1    0    0    0  501 -0.00000000000E+00  0.00000000000E+00  0.71799213542E+02  0.71799213718E+02  0.50400000000E-02 0.  1.
          1   -1    0    0  501    0  0.00000000000E+00 -0.00000000000E+00 -0.28562133830E+02  0.28562134275E+02  0.50400000000E-02 0. -1.
         23    2    1    2    0    0  0.00000000000E+00  0.00000000000E+00  0.43237079712E+02  0.10036134799E+03  0.90570166771E+02 0.  0.
    9000005    2    3    3    0    0  0.21126099378E+02  0.28036514410E+02 -0.78543263243E+01  0.38371913522E+02  0.13354964999E+02 0.  0.
         22    1    3    3    0    0 -0.21126099378E+02 -0.28036514410E+02  0.51091406036E+02  0.61989434470E+02  0.00000000000E+00 0.  1.
         22    1    4    4    0    0  0.25012930863E+01 -0.84414221180E+00  0.10988326367E+01  0.28594538536E+01  0.00000000000E+00 0.  1.
         22    1    4    4    0    0  0.18624806292E+02  0.28880656622E+02 -0.89531589610E+01  0.35512459669E+02  0.00000000000E+00 0.  1.
<mgrwt>
<rscale>  0 0.90570167E+02</rscale>
<asrwt>0</asrwt>
<pdfrwt beam="2">  1        1 0.43941745E-02 0.90570167E+02</pdfrwt>
<pdfrwt beam="1">  1       -1 0.11046033E-01 0.90570167E+02</pdfrwt>
<totfact> 0.87663087E+04</totfact>
</mgrwt>
</event>
<event>
 7    1  0.2787125E-009  0.9969300E+02  0.7818608E-02  0.1280943E+00
          1   -1    0    0  501    0  0.00000000000E+00  0.00000000000E+00  0.10044634310E+03  0.10044634323E+03  0.50400000000E-02 0. -1.
         -1   -1    0    0    0  501 -0.00000000000E+00 -0.00000000000E+00 -0.24736324847E+02  0.24736325361E+02  0.50400000000E-02 0.  1.
         23    2    1    2    0    0  0.35527136788E-14  0.00000000000E+00  0.75710018255E+02  0.12518266859E+03  0.99692997001E+02 0.  0.
    9000005    2    3    3    0    0  0.30983880773E+02  0.29321775001E+02  0.63570255898E+01  0.43760282549E+02  0.74015672250E+01 0.  0.
         22    1    3    3    0    0 -0.30983880773E+02 -0.29321775001E+02  0.69352992666E+02  0.81422386041E+02  0.00000000000E+00 0. -1.
         22    1    4    4    0    0  0.14942953461E+02  0.19162827748E+02  0.31380408716E+01  0.24502104521E+02  0.00000000000E+00 0. -1.
         22    1    4    4    0    0  0.16040927312E+02  0.10158947253E+02  0.32189847182E+01  0.19258178028E+02  0.00000000000E+00 0. -1.
<mgrwt>
<rscale>  0 0.99692997E+02</rscale>
<asrwt>0</asrwt>
<pdfrwt beam="1">  1        1 0.15453284E-01 0.99692997E+02</pdfrwt>
<pdfrwt beam="2">  1       -1 0.38055885E-02 0.99692997E+02</pdfrwt>
<totfact> 0.81817164E+04</totfact>
</mgrwt>
</event>
<event>
 7    1  0.2787125E-009  0.8851701E+02  0.7818608E-02  0.1306483E+00
          1   -1    0    0  501    0  0.00000000000E+00  0.00000000000E+00  0.11121457271E+02  0.11121458413E+02  0.50400000000E-02 0. -1.
         -1   -1    0    0    0  501 -0.00000000000E+00 -0.00000000000E+00 -0.17612934060E+03  0.17612934067E+03  0.50400000000E-02 0.  1.
         23    2    1    2    0    0  0.00000000000E+00  0.00000000000E+00 -0.16500788333E+03  0.18725079909E+03  0.88517005131E+02 0.  0.
    9000005    2    3    3    0    0  0.59502175407E+01  0.43130292554E+02 -0.69013600017E+02  0.81844301880E+02  0.63234119115E+01 0.  0.
         22    1    3    3    0    0 -0.59502175407E+01 -0.43130292554E+02 -0.95994283314E+02  0.10540649721E+03  0.00000000000E+00 0.  1.
         22    1    4    4    0    0  0.13120894738E+01  0.31137920323E+01 -0.85121990186E+01  0.91583192639E+01  0.00000000000E+00 0. -1.
         22    1    4    4    0    0  0.46381280669E+01  0.40016500522E+02 -0.60501400999E+02  0.72685982616E+02  0.00000000000E+00 0. -1.
<mgrwt>
<rscale>  0 0.88517005E+02</rscale>
<asrwt>0</asrwt>
<pdfrwt beam="1">  1        1 0.17109937E-02 0.88517005E+02</pdfrwt>
<pdfrwt beam="2">  1       -1 0.27096820E-01 0.88517005E+02</pdfrwt>
<totfact> 0.77624620E+04</totfact>
</mgrwt>
</event>
<event>
 7    1  0.2787125E-009  0.9184599E+02  0.7818608E-02  0.1298442E+00
         -1   -1    0    0    0  501 -0.00000000000E+00  0.00000000000E+00  0.14126598922E+02  0.14126599821E+02  0.50400000000E-02 0.  1.
          1   -1    0    0  501    0  0.00000000000E+00 -0.00000000000E+00 -0.14928728597E+03  0.14928728606E+03  0.50400000000E-02 0. -1.
         23    2    1    2    0    0  0.00000000000E+00  0.00000000000E+00 -0.13516068705E+03  0.16341388588E+03  0.91845994871E+02 0.  0.
    9000005    2    3    3    0    0  0.28979726807E+02  0.11820032373E+02 -0.12636473809E+03  0.13090378823E+03  0.13719220450E+02 0.  0.
         22    1    3    3    0    0 -0.28979726807E+02 -0.11820032373E+02 -0.87959489656E+01  0.32510097651E+02  0.00000000000E+00 0.  1.
         22    1    4    4    0    0  0.29698076196E+01  0.23428403506E+01 -0.42454694611E+01  0.56861823002E+01  0.00000000000E+00 0. -1.
         22    1    4    4    0    0  0.26009919187E+02  0.94771920221E+01 -0.12211926863E+03  0.12521760593E+03  0.00000000000E+00 0. -1.
<mgrwt>
<rscale>  0 0.91845995E+02</rscale>
<asrwt>0</asrwt>
<pdfrwt beam="2">  1        1 0.22967274E-01 0.91845995E+02</pdfrwt>
<pdfrwt beam="1">  1       -1 0.21733231E-02 0.91845995E+02</pdfrwt>
<totfact> 0.10984313E+05</totfact>
</mgrwt>
</event>
<event>
 7    1  0.2787125E-009  0.8676903E+02  0.7818608E-02  0.1310870E+00
          1   -1    0    0  501    0  0.00000000000E+00  0.00000000000E+00  0.20125057032E+03  0.20125057038E+03  0.50400000000E-02 0. -1.
         -1   -1    0    0    0  501 -0.00000000000E+00 -0.00000000000E+00 -0.93526003961E+01  0.93526017541E+01  0.50400000000E-02 0.  1.
         23    2    1    2    0    0  0.17763568394E-14  0.35527136788E-14  0.19189796992E+03  0.21060317213E+03  0.86769033954E+02 0.  0.
    9000005    2    3    3    0    0 -0.15559488771E+02 -0.29400310348E+02  0.29543710120E+02  0.44876343845E+02  0.58804327957E+01 0.  0.
         22    1    3    3    0    0  0.15559488771E+02  0.29400310348E+02  0.16235425980E+03  0.16572682829E+03  0.00000000000E+00 0. -1.
         22    1    4    4    0    0 -0.63611294185E+01 -0.11192639244E+02  0.15303405401E+02  0.19998333870E+02  0.00000000000E+00 0. -1.
         22    1    4    4    0    0 -0.91983593530E+01 -0.18207671104E+02  0.14240304719E+02  0.24878009975E+02  0.00000000000E+00 0. -1.
<mgrwt>
<rscale>  0 0.86769034E+02</rscale>
<asrwt>0</asrwt>
<pdfrwt beam="1">  1        1 0.30961628E-01 0.86769034E+02</pdfrwt>
<pdfrwt beam="2">  1       -1 0.14388617E-02 0.86769034E+02</pdfrwt>
<totfact> 0.13533560E+05</totfact>
</mgrwt>
</event>
<event>
 7    1  0.2787125E-009  0.9093903E+02  0.7818608E-02  0.1300593E+00
         -1   -1    0    0    0  501 -0.00000000000E+00  0.00000000000E+00  0.79861068912E+02  0.79861069071E+02  0.50400000000E-02 0.  1.
          1   -1    0    0  501    0  0.00000000000E+00 -0.00000000000E+00 -0.25888419951E+02  0.25888420442E+02  0.50400000000E-02 0. -1.
         23    2    1    2    0    0 -0.71054273576E-14  0.00000000000E+00  0.53972648961E+02  0.10574948951E+03  0.90939032853E+02 0.  0.
    9000005    2    3    3    0    0  0.41183485097E+02  0.74358022259E+01  0.11761178098E+02  0.46308940458E+02  0.15963146826E+02 0.  0.
         22    1    3    3    0    0 -0.41183485097E+02 -0.74358022259E+01  0.42211470863E+02  0.59440549054E+02  0.00000000000E+00 0.  1.
         22    1    4    4    0    0  0.20905365843E+02  0.88422997791E+01  0.12606957855E+02  0.25964513721E+02  0.00000000000E+00 0.  1.
         22    1    4    4    0    0  0.20278119254E+02 -0.14064975532E+01 -0.84577975744E+00  0.20344426737E+02  0.00000000000E+00 0.  1.
<mgrwt>
<rscale>  0 0.90939033E+02</rscale>
<asrwt>0</asrwt>
<pdfrwt beam="2">  1        1 0.39828340E-02 0.90939033E+02</pdfrwt>
<pdfrwt beam="1">  1       -1 0.12286318E-01 0.90939033E+02</pdfrwt>
<totfact> 0.85243562E+04</totfact>
</mgrwt>
</event>
<event>
 7    1  0.2787125E-009  0.9138959E+02  0.7818608E-02  0.1299521E+00
          1   -1    0    0  501    0  0.00000000000E+00  0.00000000000E+00  0.41146714046E+03  0.41146714049E+03  0.50400000000E-02 0. -1.
         -1   -1    0    0    0  501 -0.00000000000E+00 -0.00000000000E+00 -0.50745575673E+01  0.50745600702E+01  0.50400000000E-02 0.  1.
         23    2    1    2    0    0 -0.35527136788E-14  0.00000000000E+00  0.40639258289E+03  0.41654170056E+03  0.91389588445E+02 0.  0.
    9000005    2    3    3    0    0  0.28855624938E+02 -0.14885915313E+02  0.34714241062E+03  0.34897824535E+03  0.14957436724E+02 0.  0.
         22    1    3    3    0    0 -0.28855624938E+02  0.14885915313E+02  0.59250172272E+02  0.67563455207E+02  0.00000000000E+00 0.  1.
         22    1    4    4    0    0  0.31024587304E+01  0.21903970294E+01  0.18465268540E+02  0.18851769985E+02  0.00000000000E+00 0. -1.
         22    1    4    4    0    0  0.25753166208E+02 -0.17076312342E+02  0.32867714208E+03  0.33012647537E+03  0.00000000000E+00 0. -1.
<mgrwt>
<rscale>  0 0.91389588E+02</rscale>
<asrwt>0</asrwt>
<pdfrwt beam="1">  1        1 0.63302672E-01 0.91389588E+02</pdfrwt>
<pdfrwt beam="2">  1       -1 0.78070093E-03 0.91389588E+02</pdfrwt>
<totfact> 0.13467261E+05</totfact>
</mgrwt>
</event>
<event>
 7    1  0.2787125E-009  0.9026022E+02  0.7818608E-02  0.1302223E+00
         -1   -1    0    0    0  501 -0.00000000000E+00  0.00000000000E+00  0.46229685671E+02  0.46229685945E+02  0.50400000000E-02 0.  1.
          1   -1    0    0  501    0  0.00000000000E+00 -0.00000000000E+00 -0.44056691204E+02  0.44056691492E+02  0.50400000000E-02 0. -1.
         23    2    1    2    0    0  0.00000000000E+00  0.00000000000E+00  0.21729944665E+01  0.90286377438E+02  0.90260224052E+02 0.  0.
    9000005    2    3    3    0    0 -0.20403952478E+02 -0.24929436891E+02  0.32540200556E+02  0.46014882025E+02  0.45504521913E+01 0.  0.
         22    1    3    3    0    0  0.20403952478E+02  0.24929436891E+02 -0.30367206089E+02  0.44271495413E+02  0.00000000000E+00 0. -1.
         22    1    4    4    0    0 -0.10903570414E+02 -0.16808734616E+02  0.20218551477E+02  0.28464209650E+02  0.00000000000E+00 0.  1.
         22    1    4    4    0    0 -0.95003820640E+01 -0.81207022751E+01  0.12321649078E+02  0.17550672375E+02  0.00000000000E+00 0.  1.
<mgrwt>
<rscale>  0 0.90260224E+02</rscale>
<asrwt>0</asrwt>
<pdfrwt beam="2">  1        1 0.67779525E-02 0.90260224E+02</pdfrwt>
<pdfrwt beam="1">  1       -1 0.71122594E-02 0.90260224E+02</pdfrwt>
<totfact> 0.94644607E+04</totfact>
</mgrwt>
</event>
<event>
 7    1  0.2787125E-009  0.1010914E+03  0.7818608E-02  0.1278017E+00
         -1   -1    0    0    0  501 -0.00000000000E+00  0.00000000000E+00  0.99809544907E+02  0.99809545035E+02  0.50400000000E-02 0.  1.
          1   -1    0    0  501    0  0.00000000000E+00 -0.00000000000E+00 -0.25597447001E+02  0.25597447497E+02  0.50400000000E-02 0. -1.
         23    2    1    2    0    0  0.00000000000E+00  0.00000000000E+00  0.74212097906E+02  0.12540699253E+03  0.10109143535E+03 0.  0.
    9000005    2    3    3    0    0 -0.22181145107E+02 -0.44020075855E+02  0.25858357616E+02  0.56357340276E+02  0.88161708170E+01 0.  0.
         22    1    3    3    0    0  0.22181145107E+02  0.44020075855E+02  0.48353740291E+02  0.69049652256E+02  0.00000000000E+00 0. -1.
         22    1    4    4    0    0 -0.18733735528E+02 -0.37889243909E+02  0.18379703045E+02  0.46090792299E+02  0.00000000000E+00 0.  1.
         22    1    4    4    0    0 -0.34474095799E+01 -0.61308319461E+01  0.74786545709E+01  0.10266547976E+02  0.00000000000E+00 0.  1.
<mgrwt>
<rscale>  0 0.10109144E+03</rscale>
<asrwt>0</asrwt>
<pdfrwt beam="2">  1        1 0.39380688E-02 0.10109144E+03</pdfrwt>
<pdfrwt beam="1">  1       -1 0.15355315E-01 0.10109144E+03</pdfrwt>
<totfact> 0.62365227E+04</totfact>
</mgrwt>
</event>
<event>
 7    1  0.2787125E-009  0.8786239E+02  0.7818608E-02  0.1308112E+00
         -1   -1    0    0    0  501 -0.00000000000E+00  0.00000000000E+00  0.50773612798E+02  0.50773613048E+02  0.50400000000E-02 0.  1.
          1   -1    0    0  501    0  0.00000000000E+00 -0.00000000000E+00 -0.38010887051E+02  0.38010887385E+02  0.50400000000E-02 0. -1.
         23    2    1    2    0    0  0.00000000000E+00  0.35527136788E-14  0.12762725747E+02  0.88784500433E+02  0.87862394394E+02 0.  0.
    9000005    2    3    3    0    0 -0.10444264854E+02  0.18383974234E+02  0.44802428024E+02  0.50397058490E+02  0.92494740693E+01 0.  0.
         22    1    3    3    0    0  0.10444264854E+02 -0.18383974234E+02 -0.32039702277E+02  0.38387441944E+02  0.00000000000E+00 0. -1.
         22    1    4    4    0    0 -0.30808982567E+00 -0.10469897262E+01  0.31013635979E+01  0.32877899863E+01  0.00000000000E+00 0. -1.
         22    1    4    4    0    0 -0.10136175029E+02  0.19430963961E+02  0.41701064426E+02  0.47109268503E+02  0.00000000000E+00 0. -1.
<mgrwt>
<rscale>  0 0.87862394E+02</rscale>
<asrwt>0</asrwt>
<pdfrwt beam="2">  1        1 0.58478289E-02 0.87862394E+02</pdfrwt>
<pdfrwt beam="1">  1       -1 0.78113250E-02 0.87862394E+02</pdfrwt>
<totfact> 0.99865545E+04</totfact>
</mgrwt>
</event>
<event>
 7    1  0.2787125E-009  0.9069897E+02  0.7818608E-02  0.1301168E+00
          1   -1    0    0  501    0  0.00000000000E+00  0.00000000000E+00  0.15645510207E+02  0.15645511019E+02  0.50400000000E-02 0. -1.
         -1   -1    0    0    0  501 -0.00000000000E+00 -0.00000000000E+00 -0.13144828801E+03  0.13144828810E+03  0.50400000000E-02 0.  1.
         23    2    1    2    0    0  0.00000000000E+00  0.00000000000E+00 -0.11580277780E+03  0.14709379912E+03  0.90698965783E+02 0.  0.
    9000005    2    3    3    0    0 -0.40645711381E+02  0.57358006280E+01 -0.31651613270E+02  0.53464787837E+02  0.13102887214E+02 0.  0.
         22    1    3    3    0    0  0.40645711381E+02 -0.57358006280E+01 -0.84151164529E+02  0.93629011285E+02  0.00000000000E+00 0.  1.
         22    1    4    4    0    0 -0.37911857255E+02  0.73036369362E+01 -0.24704550242E+02  0.45836304778E+02  0.00000000000E+00 0. -1.
         22    1    4    4    0    0 -0.27338541263E+01 -0.15678363081E+01 -0.69470630280E+01  0.76284830594E+01  0.00000000000E+00 0. -1.
<mgrwt>
<rscale>  0 0.90698966E+02</rscale>
<asrwt>0</asrwt>
<pdfrwt beam="1">  1        1 0.24070017E-02 0.90698966E+02</pdfrwt>
<pdfrwt beam="2">  1       -1 0.20222813E-01 0.90698966E+02</pdfrwt>
<totfact> 0.78095985E+04</totfact>
</mgrwt>
</event>
<event>
 7    1  0.2787125E-009  0.8510519E+02  0.7818608E-02  0.1315158E+00
          1   -1    0    0  501    0  0.00000000000E+00  0.00000000000E+00  0.11515016660E+04  0.11515016660E+04  0.50400000000E-02 0. -1.
         -1   -1    0    0    0  501 -0.00000000000E+00 -0.00000000000E+00 -0.15724845199E+01  0.15724925968E+01  0.50400000000E-02 0.  1.
         23    2    1    2    0    0  0.17763568394E-14 -0.88817841970E-15  0.11499291815E+04  0.11530741586E+04  0.85105186856E+02 0.  0.
    9000005    2    3    3    0    0 -0.92767142656E+01  0.59770983396E+01  0.11315126876E+04  0.11316044036E+04  0.92618015979E+01 0.  0.
         22    1    3    3    0    0  0.92767142656E+01 -0.59770983396E+01  0.18416493861E+02  0.21469754965E+02  0.00000000000E+00 0.  1.
         22    1    4    4    0    0 -0.34515677960E+01  0.73870913804E+01  0.54325346306E+03  0.54331464877E+03  0.00000000000E+00 0.  1.
         22    1    4    4    0    0 -0.58251464696E+01 -0.14099930408E+01  0.58825922456E+03  0.58828975487E+03  0.00000000000E+00 0.  1.
<mgrwt>
<rscale>  0 0.85105187E+02</rscale>
<asrwt>0</asrwt>
<pdfrwt beam="1">  1        1 0.17715335E+00 0.85105187E+02</pdfrwt>
<pdfrwt beam="2">  1       -1 0.24192234E-03 0.85105187E+02</pdfrwt>
<totfact> 0.15548457E+05</totfact>
</mgrwt>
</event>
<event>
 7    1  0.2787125E-009  0.9105245E+02  0.7818608E-02  0.1300323E+00
          1   -1    0    0  501    0  0.00000000000E+00  0.00000000000E+00  0.30348615490E+03  0.30348615494E+03  0.50400000000E-02 0. -1.
         -1   -1    0    0    0  501 -0.00000000000E+00 -0.00000000000E+00 -0.68294287724E+01  0.68294306322E+01  0.50400000000E-02 0.  1.
         23    2    1    2    0    0 -0.35527136788E-14  0.00000000000E+00  0.29665672613E+03  0.31031558557E+03  0.91052454626E+02 0.  0.
    9000005    2    3    3    0    0  0.24056235908E+02 -0.27670771348E+02  0.23791960795E+03  0.24107381260E+03  0.12902294387E+02 0.  0.
         22    1    3    3    0    0 -0.24056235908E+02  0.27670771348E+02  0.58737118177E+02  0.69241772975E+02  0.00000000000E+00 0.  1.
         22    1    4    4    0    0  0.84474009753E+01 -0.43072902383E+01  0.36847070429E+02  0.38047574583E+02  0.00000000000E+00 0. -1.
         22    1    4    4    0    0  0.15608834933E+02 -0.23363481109E+02  0.20107253752E+03  0.20302623801E+03  0.00000000000E+00 0. -1.
<mgrwt>
<rscale>  0 0.91052455E+02</rscale>
<asrwt>0</asrwt>
<pdfrwt beam="1">  1        1 0.46690165E-01 0.91052455E+02</pdfrwt>
<pdfrwt beam="2">  1       -1 0.10506818E-02 0.91052455E+02</pdfrwt>
<totfact> 0.12887202E+05</totfact>
</mgrwt>
</event>
<event>
 7    1  0.2787125E-009  0.1011642E+03  0.7818608E-02  0.1277867E+00
         -1   -1    0    0    0  501 -0.00000000000E+00  0.00000000000E+00  0.21998194152E+02  0.21998194730E+02  0.50400000000E-02 0.  1.
          1   -1    0    0  501    0  0.00000000000E+00 -0.00000000000E+00 -0.11630712683E+03  0.11630712694E+03  0.50400000000E-02 0. -1.
         23    2    1    2    0    0  0.00000000000E+00 -0.17763568394E-14 -0.94308932679E+02  0.13830532167E+03  0.10116415976E+03 0.  0.
    9000005    2    3    3    0    0 -0.14833627726E+02 -0.11918044343E+02  0.16671697408E+02  0.25705248194E+02  0.45538991851E+01 0.  0.
         22    1    3    3    0    0  0.14833627726E+02  0.11918044343E+02 -0.11098063009E+03  0.11260007348E+03  0.00000000000E+00 0. -1.
         22    1    4    4    0    0 -0.14881479155E+01 -0.84626691588E+00  0.36119441237E+01  0.39971104893E+01  0.00000000000E+00 0.  1.
         22    1    4    4    0    0 -0.13345479810E+02 -0.11071777427E+02  0.13059753284E+02  0.21708137704E+02  0.00000000000E+00 0.  1.
<mgrwt>
<rscale>  0 0.10116416E+03</rscale>
<asrwt>0</asrwt>
<pdfrwt beam="2">  1        1 0.17893404E-01 0.10116416E+03</pdfrwt>
<pdfrwt beam="1">  1       -1 0.33843377E-02 0.10116416E+03</pdfrwt>
<totfact> 0.80648717E+04</totfact>
</mgrwt>
</event>
<event>
 7    1  0.3081262E-009  0.9085026E+02  0.7818608E-02  0.1300806E+00
          1   -1    0    0  501    0  0.00000000000E+00  0.00000000000E+00  0.52202621702E+03  0.52202621704E+03  0.50400000000E-02 0. -1.
         -1   -1    0    0    0  501 -0.00000000000E+00 -0.00000000000E+00 -0.39527548486E+01  0.39527580617E+01  0.50400000000E-02 0.  1.
         23    2    1    2    0    0  0.00000000000E+00  0.00000000000E+00  0.51807346217E+03  0.52597897510E+03  0.90850261680E+02 0.  0.
    9000005    2    3    3    0    0 -0.66031384229E+01 -0.20297226363E+02  0.49008893635E+03  0.49078362711E+03  0.15027450635E+02 0.  0.
         22    1    3    3    0    0  0.66031384229E+01  0.20297226363E+02  0.27984525824E+02  0.35195347998E+02  0.00000000000E+00 0.  1.
         22    1    4    4    0    0 -0.82049089416E+01 -0.20749044727E+02  0.36372143883E+03  0.36440517072E+03  0.00000000000E+00 0. -1.
         22    1    4    4    0    0  0.16017705186E+01  0.45181836382E+00  0.12636749752E+03  0.12637845638E+03  0.00000000000E+00 0. -1.
<mgrwt>
<rscale>  0 0.90850262E+02</rscale>
<asrwt>0</asrwt>
<pdfrwt beam="1">  1        1 0.80311712E-01 0.90850262E+02</pdfrwt>
<pdfrwt beam="2">  1       -1 0.60811648E-03 0.90850262E+02</pdfrwt>
<totfact> 0.14127642E+05</totfact>
</mgrwt>
</event>
<event>
 7    1  0.2787125E-009  0.9276102E+02  0.7818608E-02  0.1296300E+00
          1   -1    0    0  501    0  0.00000000000E+00  0.00000000000E+00  0.72704151048E+02  0.72704151222E+02  0.50400000000E-02 0. -1.
         -1   -1    0    0    0  501 -0.00000000000E+00 -0.00000000000E+00 -0.29587740031E+02  0.29587740461E+02  0.50400000000E-02 0.  1.
         23    2    1    2    0    0  0.00000000000E+00  0.00000000000E+00  0.43116411016E+02  0.10229189168E+03  0.92761016624E+02 0.  0.
    9000005    2    3    3    0    0 -0.16526898328E+02 -0.38527394461E+02  0.33839514663E+01  0.44532331139E+02  0.14634852130E+02 0.  0.
         22    1    3    3    0    0  0.16526898328E+02  0.38527394461E+02  0.39732459550E+02  0.57759560544E+02  0.00000000000E+00 0. -1.
         22    1    4    4    0    0 -0.19284959776E+01 -0.19145287309E+01 -0.35917368833E+01  0.45038972941E+01  0.00000000000E+00 0. -1.
         22    1    4    4    0    0 -0.14598402350E+02 -0.36612865730E+02  0.69756883495E+01  0.40028433845E+02  0.00000000000E+00 0. -1.
<mgrwt>
<rscale>  0 0.92761017E+02</rscale>
<asrwt>0</asrwt>
<pdfrwt beam="1">  1        1 0.11185254E-01 0.92761017E+02</pdfrwt>
<pdfrwt beam="2">  1       -1 0.45519601E-02 0.92761017E+02</pdfrwt>
<totfact> 0.94639300E+04</totfact>
</mgrwt>
</event>
<event>
 7    1  0.2787125E-009  0.9286474E+02  0.7818608E-02  0.1296059E+00
         -1   -1    0    0    0  501 -0.00000000000E+00  0.00000000000E+00  0.13383442063E+02  0.13383443012E+02  0.50400000000E-02 0.  1.
          1   -1    0    0  501    0  0.00000000000E+00 -0.00000000000E+00 -0.16109194983E+03  0.16109194991E+03  0.50400000000E-02 0. -1.
         23    2    1    2    0    0  0.00000000000E+00  0.00000000000E+00 -0.14770850777E+03  0.17447539293E+03  0.92864737486E+02 0.  0.
    9000005    2    3    3    0    0 -0.12289082707E+02 -0.24331688399E+02 -0.14399641161E+03  0.14696480820E+03  0.10983427478E+02 0.  0.
         22    1    3    3    0    0  0.12289082707E+02  0.24331688399E+02 -0.37120961657E+01  0.27510584728E+02  0.00000000000E+00 0.  1.
         22    1    4    4    0    0 -0.71589248952E+00 -0.10988960859E+02 -0.40422782637E+02  0.41895955878E+02  0.00000000000E+00 0.  1.
         22    1    4    4    0    0 -0.11573190218E+02 -0.13342727539E+02 -0.10357362897E+03  0.10506885232E+03  0.00000000000E+00 0.  1.
<mgrwt>
<rscale>  0 0.92864737E+02</rscale>
<asrwt>0</asrwt>
<pdfrwt beam="2">  1        1 0.24783376E-01 0.92864737E+02</pdfrwt>
<pdfrwt beam="1">  1       -1 0.20589913E-02 0.92864737E+02</pdfrwt>
<totfact> 0.10813660E+05</totfact>
</mgrwt>
</event>
<event>
 7    1  0.2787125E-009  0.8832287E+02  0.7818608E-02  0.1306965E+00
          1   -1    0    0  501    0  0.00000000000E+00  0.00000000000E+00  0.74382607699E+02  0.74382607870E+02  0.50400000000E-02 0. -1.
         -1   -1    0    0    0  501 -0.00000000000E+00 -0.00000000000E+00 -0.26218928222E+02  0.26218928706E+02  0.50400000000E-02 0.  1.
         23    2    1    2    0    0 -0.22204460493E-15  0.00000000000E+00  0.48163679478E+02  0.10060153658E+03  0.88322868730E+02 0.  0.
    9000005    2    3    3    0    0  0.85309360016E+00 -0.37903855128E+02  0.48781414276E+02  0.62683050338E+02  0.10588126309E+02 0.  0.
         22    1    3    3    0    0 -0.85309360016E+00  0.37903855128E+02 -0.61773479808E+00  0.37918486237E+02  0.00000000000E+00 0.  1.
         22    1    4    4    0    0 -0.10061771971E+01 -0.26691938131E+02  0.26264807099E+02  0.37460806794E+02  0.00000000000E+00 0. -1.
         22    1    4    4    0    0  0.18592707972E+01 -0.11211916997E+02  0.22516607177E+02  0.25222243544E+02  0.00000000000E+00 0. -1.
<mgrwt>
<rscale>  0 0.88322869E+02</rscale>
<asrwt>0</asrwt>
<pdfrwt beam="1">  1        1 0.11443478E-01 0.88322869E+02</pdfrwt>
<pdfrwt beam="2">  1       -1 0.40336814E-02 0.88322869E+02</pdfrwt>
<totfact> 0.10868011E+05</totfact>
</mgrwt>
</event>
<event>
 7    1  0.2787125E-009  0.9025609E+02  0.7818608E-02  0.1302233E+00
         -1   -1    0    0    0  501 -0.00000000000E+00  0.00000000000E+00  0.76846872843E+01  0.76846889370E+01  0.50400000000E-02 0.  1.
          1   -1    0    0  501    0  0.00000000000E+00 -0.00000000000E+00 -0.26501276792E+03  0.26501276797E+03  0.50400000000E-02 0. -1.
         23    2    1    2    0    0  0.00000000000E+00  0.00000000000E+00 -0.25732808063E+03  0.27269745690E+03  0.90256090757E+02 0.  0.
    9000005    2    3    3    0    0 -0.27442270772E+02  0.14549761653E+02 -0.22585605101E+03  0.22847910734E+03  0.15065620620E+02 0.  0.
         22    1    3    3    0    0  0.27442270772E+02 -0.14549761653E+02 -0.31472029624E+02  0.44218349561E+02  0.00000000000E+00 0.  1.
         22    1    4    4    0    0 -0.12362163558E+01 -0.21311484730E+01 -0.37296601533E+02  0.37377887990E+02  0.00000000000E+00 0. -1.
         22    1    4    4    0    0 -0.26206054416E+02  0.16680910126E+02 -0.18855944948E+03  0.19110121935E+03  0.00000000000E+00 0. -1.
<mgrwt>
<rscale>  0 0.90256091E+02</rscale>
<asrwt>0</asrwt>
<pdfrwt beam="2">  1        1 0.40771188E-01 0.90256091E+02</pdfrwt>
<pdfrwt beam="1">  1       -1 0.11822599E-02 0.90256091E+02</pdfrwt>
<totfact> 0.12851779E+05</totfact>
</mgrwt>
</event>
<event>
 7    1  0.2787125E-009  0.9111655E+02  0.7818608E-02  0.1300170E+00
          1   -1    0    0  501    0  0.00000000000E+00  0.00000000000E+00  0.27793053194E+03  0.27793053198E+03  0.50400000000E-02 0. -1.
         -1   -1    0    0    0  501 -0.00000000000E+00 -0.00000000000E+00 -0.74678948424E+01  0.74678965431E+01  0.50400000000E-02 0.  1.
         23    2    1    2    0    0  0.00000000000E+00  0.00000000000E+00  0.27046263709E+03  0.28539842853E+03  0.91116545922E+02 0.  0.
    9000005    2    3    3    0    0  0.43795929024E+02  0.44629809169E+01  0.16851749114E+03  0.17435422840E+03  0.79530210177E+01 0.  0.
         22    1    3    3    0    0 -0.43795929024E+02 -0.44629809169E+01  0.10194514596E+03  0.11104420013E+03  0.00000000000E+00 0.  1.
         22    1    4    4    0    0  0.26658862354E+02  0.26279428469E+01  0.86828484884E+02  0.90866863118E+02  0.00000000000E+00 0.  1.
         22    1    4    4    0    0  0.17137066670E+02  0.18350380700E+01  0.81689006255E+02  0.83487365282E+02  0.00000000000E+00 0.  1.
<mgrwt>
<rscale>  0 0.91116546E+02</rscale>
<asrwt>0</asrwt>
<pdfrwt beam="1">  1        1 0.42758554E-01 0.91116546E+02</pdfrwt>
<pdfrwt beam="2">  1       -1 0.11489067E-02 0.91116546E+02</pdfrwt>
<totfact> 0.12647444E+05</totfact>
</mgrwt>
</event>
<event>
 7    1  0.2787125E-009  0.9195706E+02  0.7818608E-02  0.1298180E+00
          1   -1    0    0  501    0  0.00000000000E+00  0.00000000000E+00  0.24510095942E+03  0.24510095947E+03  0.50400000000E-02 0. -1.
         -1   -1    0    0    0  501 -0.00000000000E+00 -0.00000000000E+00 -0.86251197630E+01  0.86251212356E+01  0.50400000000E-02 0.  1.
         23    2    1    2    0    0  0.17763568394E-14  0.00000000000E+00  0.23647583965E+03  0.25372608070E+03  0.91957062206E+02 0.  0.
    9000005    2    3    3    0    0  0.80750424051E+01 -0.34380614030E+02  0.38277478614E+02  0.52405879905E+02  0.58290607045E+01 0.  0.
         22    1    3    3    0    0 -0.80750424051E+01  0.34380614030E+02  0.19819836104E+03  0.20132020080E+03  0.00000000000E+00 0. -1.
         22    1    4    4    0    0 -0.60779089163E+00 -0.73328959582E+00  0.17324076843E+01  0.19769572034E+01  0.00000000000E+00 0. -1.
         22    1    4    4    0    0  0.86828332967E+01 -0.33647324434E+02  0.36545070930E+02  0.50428922702E+02  0.00000000000E+00 0. -1.
<mgrwt>
<rscale>  0 0.91957062E+02</rscale>
<asrwt>0</asrwt>
<pdfrwt beam="1">  1        1 0.37707840E-01 0.91957062E+02</pdfrwt>
<pdfrwt beam="2">  1       -1 0.13269416E-02 0.91957062E+02</pdfrwt>
<totfact> 0.12041739E+05</totfact>
</mgrwt>
</event>
<event>
 7    1  0.2787125E-009  0.9215179E+02  0.7818608E-02  0.1297723E+00
          1   -1    0    0  501    0  0.00000000000E+00  0.00000000000E+00  0.44700525419E+03  0.44700525422E+03  0.50400000000E-02 0. -1.
         -1   -1    0    0    0  501 -0.00000000000E+00 -0.00000000000E+00 -0.47493571935E+01  0.47493598677E+01  0.50400000000E-02 0.  1.
         23    2    1    2    0    0  0.00000000000E+00  0.00000000000E+00  0.44225589700E+03  0.45175461409E+03  0.92151792820E+02 0.  0.
    9000005    2    3    3    0    0  0.17944950962E+02 -0.30004447746E+02  0.36451459127E+03  0.36651378604E+03  0.15465444083E+02 0.  0.
         22    1    3    3    0    0 -0.17944950962E+02  0.30004447746E+02  0.77741305725E+02  0.85240828042E+02  0.00000000000E+00 0.  1.
         22    1    4    4    0    0  0.16624900225E+02 -0.31785829678E+02  0.34956974515E+03  0.35140536849E+03  0.00000000000E+00 0. -1.
         22    1    4    4    0    0  0.13200507365E+01  0.17813819318E+01  0.14944846121E+02  0.15108417558E+02  0.00000000000E+00 0. -1.
<mgrwt>
<rscale>  0 0.92151793E+02</rscale>
<asrwt>0</asrwt>
<pdfrwt beam="1">  1        1 0.68770049E-01 0.92151793E+02</pdfrwt>
<pdfrwt beam="2">  1       -1 0.73067045E-03 0.92151793E+02</pdfrwt>
<totfact> 0.13340485E+05</totfact>
</mgrwt>
</event>
<event>
 7    1  0.2787125E-009  0.9472550E+02  0.7818608E-02  0.1291796E+00
         -1   -1    0    0    0  501 -0.00000000000E+00  0.00000000000E+00  0.23191161158E+02  0.23191161706E+02  0.50400000000E-02 0.  1.
          1   -1    0    0  501    0  0.00000000000E+00 -0.00000000000E+00 -0.96727795528E+02  0.96727795659E+02  0.50400000000E-02 0. -1.
         23    2    1    2    0    0 -0.17763568394E-14  0.00000000000E+00 -0.73536634370E+02  0.11991895736E+03  0.94725496784E+02 0.  0.
    9000005    2    3    3    0    0  0.12355662948E+02 -0.23711725694E+02 -0.86230985305E+02  0.90320732960E+02  0.26727576619E+01 0.  0.
         22    1    3    3    0    0 -0.12355662948E+02  0.23711725694E+02  0.12694350935E+02  0.29598224405E+02  0.00000000000E+00 0.  1.
         22    1    4    4    0    0  0.32661919189E+01 -0.90372670216E+01 -0.30680236920E+02  0.32149916677E+02  0.00000000000E+00 0. -1.
         22    1    4    4    0    0  0.90894710289E+01 -0.14674458672E+02 -0.55550748385E+02  0.58170816283E+02  0.00000000000E+00 0. -1.
<mgrwt>
<rscale>  0 0.94725497E+02</rscale>
<asrwt>0</asrwt>
<pdfrwt beam="2">  1        1 0.14881199E-01 0.94725497E+02</pdfrwt>
<pdfrwt beam="1">  1       -1 0.35678710E-02 0.94725497E+02</pdfrwt>
<totfact> 0.93567103E+04</totfact>
</mgrwt>
</event>
<event>
 7    1  0.2787125E-009  0.9088219E+02  0.7818608E-02  0.1300729E+00
         -1   -1    0    0    0  501 -0.00000000000E+00  0.00000000000E+00  0.14330253317E+02  0.14330254204E+02  0.50400000000E-02 0.  1.
          1   -1    0    0  501    0  0.00000000000E+00 -0.00000000000E+00 -0.14409325875E+03  0.14409325884E+03  0.50400000000E-02 0. -1.
         23    2    1    2    0    0  0.00000000000E+00  0.00000000000E+00 -0.12976300543E+03  0.15842351304E+03  0.90882186954E+02 0.  0.
    9000005    2    3    3    0    0 -0.32527827652E+02 -0.62717972617E+01 -0.11908631599E+03  0.12361853193E+03  0.16111388399E+01 0.  0.
         22    1    3    3    0    0  0.32527827652E+02  0.62717972617E+01 -0.10676689444E+02  0.34804981111E+02  0.00000000000E+00 0.  1.
         22    1    4    4    0    0 -0.15116605577E+02 -0.27816136620E+01 -0.52307443662E+02  0.54518967353E+02  0.00000000000E+00 0. -1.
         22    1    4    4    0    0 -0.17411222075E+02 -0.34901835997E+01 -0.66778872325E+02  0.69099564577E+02  0.00000000000E+00 0. -1.
<mgrwt>
<rscale>  0 0.90882187E+02</rscale>
<asrwt>0</asrwt>
<pdfrwt beam="2">  1        1 0.22168193E-01 0.90882187E+02</pdfrwt>
<pdfrwt beam="1">  1       -1 0.22046545E-02 0.90882187E+02</pdfrwt>
<totfact> 0.11228810E+05</totfact>
</mgrwt>
</event>
<event>
 7    1  0.2787125E-009  0.9118406E+02  0.7818608E-02  0.1300009E+00
          1   -1    0    0  501    0  0.00000000000E+00  0.00000000000E+00  0.15562474392E+03  0.15562474400E+03  0.50400000000E-02 0. -1.
         -1   -1    0    0    0  501 -0.00000000000E+00 -0.00000000000E+00 -0.13356700184E+02  0.13356701134E+02  0.50400000000E-02 0.  1.
         23    2    1    2    0    0  0.35527136788E-14 -0.44408920985E-15  0.14226804374E+03  0.16898144514E+03  0.91184058539E+02 0.  0.
    9000005    2    3    3    0    0 -0.27289945206E+02  0.28428761868E+01  0.49901332408E+01  0.28988417580E+02  0.79122607174E+01 0.  0.
         22    1    3    3    0    0  0.27289945206E+02 -0.28428761868E+01  0.13727791050E+03  0.13999302756E+03  0.00000000000E+00 0. -1.
         22    1    4    4    0    0 -0.97471200456E+01  0.30860529988E+01 -0.13937439534E+01  0.10318555834E+02  0.00000000000E+00 0. -1.
         22    1    4    4    0    0 -0.17542825160E+02 -0.24317681201E+00  0.63838771943E+01  0.18669861746E+02  0.00000000000E+00 0. -1.
<mgrwt>
<rscale>  0 0.91184059E+02</rscale>
<asrwt>0</asrwt>
<pdfrwt beam="1">  1        1 0.23942268E-01 0.91184059E+02</pdfrwt>
<pdfrwt beam="2">  1       -1 0.20548770E-02 0.91184059E+02</pdfrwt>
<totfact> 0.11287304E+05</totfact>
</mgrwt>
</event>
<event>
 7    1  0.2787125E-009  0.8542592E+02  0.7818608E-02  0.1314322E+00
         -1   -1    0    0    0  501 -0.00000000000E+00  0.00000000000E+00  0.43394361401E+01  0.43394390669E+01  0.50400000000E-02 0.  1.
          1   -1    0    0  501    0  0.00000000000E+00 -0.00000000000E+00 -0.42042243508E+03  0.42042243511E+03  0.50400000000E-02 0. -1.
         23    2    1    2    0    0  0.35527136788E-14 -0.88817841970E-15 -0.41608299894E+03  0.42476187417E+03  0.85425919647E+02 0.  0.
    9000005    2    3    3    0    0  0.18127778342E+02 -0.78100718968E+01 -0.39532004550E+03  0.39611377116E+03  0.15445638902E+02 0.  0.
         22    1    3    3    0    0 -0.18127778342E+02  0.78100718968E+01 -0.20762953438E+02  0.28648103011E+02  0.00000000000E+00 0.  1.
         22    1    4    4    0    0  0.13048887100E+02  0.17397603123E+01 -0.15804440094E+03  0.15859171759E+03  0.00000000000E+00 0. -1.
         22    1    4    4    0    0  0.50788912426E+01 -0.95498322091E+01 -0.23727564456E+03  0.23752205357E+03  0.00000000000E+00 0. -1.
<mgrwt>
<rscale>  0 0.85425920E+02</rscale>
<asrwt>0</asrwt>
<pdfrwt beam="2">  1        1 0.64680343E-01 0.85425920E+02</pdfrwt>
<pdfrwt beam="1">  1       -1 0.66760612E-03 0.85425920E+02</pdfrwt>
<totfact> 0.16153475E+05</totfact>
</mgrwt>
</event>
<event>
 7    1  0.2787125E-009  0.9199689E+02  0.7818608E-02  0.1298087E+00
         -1   -1    0    0    0  501 -0.00000000000E+00  0.00000000000E+00  0.13226616784E+03  0.13226616794E+03  0.50400000000E-02 0.  1.
          1   -1    0    0  501    0  0.00000000000E+00 -0.00000000000E+00 -0.15996962388E+02  0.15996963182E+02  0.50400000000E-02 0. -1.
         23    2    1    2    0    0  0.00000000000E+00  0.00000000000E+00  0.11626920545E+03  0.14826313112E+03  0.91996890777E+02 0.  0.
    9000005    2    3    3    0    0 -0.14445198878E+02  0.19697345382E+02 -0.28947588205E+01  0.26621445965E+02  0.10181972841E+02 0.  0.
         22    1    3    3    0    0  0.14445198878E+02 -0.19697345382E+02  0.11916396427E+03  0.12164168515E+03  0.00000000000E+00 0.  1.
         22    1    4    4    0    0 -0.15720893064E+02  0.19561631757E+02 -0.22811405020E+01  0.25199355502E+02  0.00000000000E+00 0. -1.
         22    1    4    4    0    0  0.12756941861E+01  0.13571362490E+00 -0.61361831854E+00  0.14220904631E+01  0.00000000000E+00 0. -1.
<mgrwt>
<rscale>  0 0.91996891E+02</rscale>
<asrwt>0</asrwt>
<pdfrwt beam="2">  1        1 0.24610711E-02 0.91996891E+02</pdfrwt>
<pdfrwt beam="1">  1       -1 0.20348642E-01 0.91996891E+02</pdfrwt>
<totfact> 0.75171965E+04</totfact>
</mgrwt>
</event>
<event>
 7    1  0.2787125E-009  0.9044436E+02  0.7818608E-02  0.1301779E+00
         -1   -1    0    0    0  501 -0.00000000000E+00  0.00000000000E+00  0.10552968750E+02  0.10552969954E+02  0.50400000000E-02 0.  1.
          1   -1    0    0  501    0  0.00000000000E+00 -0.00000000000E+00 -0.19378862082E+03  0.19378862088E+03  0.50400000000E-02 0. -1.
         23    2    1    2    0    0  0.00000000000E+00 -0.88817841970E-15 -0.18323565207E+03  0.20434159084E+03  0.90444356139E+02 0.  0.
    9000005    2    3    3    0    0  0.21348081893E+02 -0.58462557884E+01 -0.18023471570E+03  0.18200496338E+03  0.12301814612E+02 0.  0.
         22    1    3    3    0    0 -0.21348081893E+02  0.58462557884E+01 -0.30009363668E+01  0.22336627461E+02  0.00000000000E+00 0.  1.
         22    1    4    4    0    0  0.15344514321E+02 -0.73875440997E+01 -0.92720790978E+02  0.94271814489E+02  0.00000000000E+00 0.  1.
         22    1    4    4    0    0  0.60035675718E+01  0.15412883113E+01 -0.87513924724E+02  0.87733148889E+02  0.00000000000E+00 0.  1.
<mgrwt>
<rscale>  0 0.90444356E+02</rscale>
<asrwt>0</asrwt>
<pdfrwt beam="2">  1        1 0.29813632E-01 0.90444356E+02</pdfrwt>
<pdfrwt beam="1">  1       -1 0.16235339E-02 0.90444356E+02</pdfrwt>
<totfact> 0.12025753E+05</totfact>
</mgrwt>
</event>
<event>
 7    1  0.3835404E-009  0.9020749E+02  0.7818608E-02  0.1302350E+00
         -1   -1    0    0    0  501 -0.00000000000E+00  0.00000000000E+00  0.29314889723E+02  0.29314890156E+02  0.50400000000E-02 0.  1.
          1   -1    0    0  501    0  0.00000000000E+00 -0.00000000000E+00 -0.69396394264E+02  0.69396394447E+02  0.50400000000E-02 0. -1.
         23    2    1    2    0    0  0.00000000000E+00  0.00000000000E+00 -0.40081504542E+02  0.98711284603E+02  0.90207486949E+02 0.  0.
    9000005    2    3    3    0    0 -0.11295133545E+02  0.19477906013E+02 -0.61707225739E+02  0.67492048838E+02  0.15505679077E+02 0.  0.
         22    1    3    3    0    0  0.11295133545E+02 -0.19477906013E+02  0.21625721197E+02  0.31219235764E+02  0.00000000000E+00 0.  1.
         22    1    4    4    0    0 -0.13285309478E+02  0.13294663738E+02 -0.32249320504E+02  0.37326481280E+02  0.00000000000E+00 0.  1.
         22    1    4    4    0    0  0.19901759333E+01  0.61832422751E+01 -0.29457905235E+02  0.30165567558E+02  0.00000000000E+00 0.  1.
<mgrwt>
<rscale>  0 0.90207487E+02</rscale>
<asrwt>0</asrwt>
<pdfrwt beam="2">  1        1 0.10676368E-01 0.90207487E+02</pdfrwt>
<pdfrwt beam="1">  1       -1 0.45099831E-02 0.90207487E+02</pdfrwt>
<totfact> 0.10147958E+05</totfact>
</mgrwt>
</event>
<event>
 7    1  0.2787125E-009  0.9061934E+02  0.7818608E-02  0.1301359E+00
          1   -1    0    0  501    0  0.00000000000E+00  0.00000000000E+00  0.17815282327E+03  0.17815282334E+03  0.50400000000E-02 0.  1.
         -1   -1    0    0    0  501 -0.00000000000E+00 -0.00000000000E+00 -0.11523623884E+02  0.11523624987E+02  0.50400000000E-02 0. -1.
         23    2    1    2    0    0  0.00000000000E+00 -0.71054273576E-14  0.16662919939E+03  0.18967644833E+03  0.90619340996E+02 0.  0.
    9000005    2    3    3    0    0  0.17087077204E+02  0.40660371761E+02  0.92506405206E+02  0.10342436049E+03  0.13925850060E+02 0.  0.
         22    1    3    3    0    0 -0.17087077204E+02 -0.40660371761E+02  0.74122794182E+02  0.86252087838E+02  0.00000000000E+00 0.  1.
         22    1    4    4    0    0  0.91260231770E+01  0.84446693836E+01  0.18167404808E+02  0.22014798148E+02  0.00000000000E+00 0. -1.
         22    1    4    4    0    0  0.79610540274E+01  0.32215702378E+02  0.74339000398E+02  0.81409562345E+02  0.00000000000E+00 0. -1.
<mgrwt>
<rscale>  0 0.90619341E+02</rscale>
<asrwt>0</asrwt>
<pdfrwt beam="1">  1        1 0.27408127E-01 0.90619341E+02</pdfrwt>
<pdfrwt beam="2">  1       -1 0.17728653E-02 0.90619341E+02</pdfrwt>
<totfact> 0.11772087E+05</totfact>
</mgrwt>
</event>
<event>
 7    1  0.2787125E-009  0.6029075E+02  0.7818608E-02  0.1396616E+00
         -1   -1    0    0    0  501 -0.00000000000E+00  0.00000000000E+00  0.97367869181E+01  0.97367882225E+01  0.50400000000E-02 0.  1.
          1   -1    0    0  501    0  0.00000000000E+00 -0.00000000000E+00 -0.93330936103E+02  0.93330936239E+02  0.50400000000E-02 0. -1.
         23    2    1    2    0    0  0.00000000000E+00  0.00000000000E+00 -0.83594149185E+02  0.10306772446E+03  0.60290745954E+02 0.  0.
    9000005    2    3    3    0    0 -0.23380544952E+02 -0.16308270403E+02 -0.52033071627E+02  0.60538779231E+02  0.12037179156E+02 0.  0.
         22    1    3    3    0    0  0.23380544952E+02  0.16308270403E+02 -0.31561077558E+02  0.42528945230E+02  0.00000000000E+00 0.  1.
         22    1    4    4    0    0 -0.11147807717E+01  0.14291035555E+01 -0.91902755479E+00  0.20321625889E+01  0.00000000000E+00 0. -1.
         22    1    4    4    0    0 -0.22265764181E+02 -0.17737373959E+02 -0.51114044072E+02  0.58506616642E+02  0.00000000000E+00 0. -1.
<mgrwt>
<rscale>  0 0.60290746E+02</rscale>
<asrwt>0</asrwt>
<pdfrwt beam="2">  1        1 0.14358605E-01 0.60290746E+02</pdfrwt>
<pdfrwt beam="1">  1       -1 0.14979674E-02 0.60290746E+02</pdfrwt>
<totfact> 0.31004080E+05</totfact>
</mgrwt>
</event>
<event>
 7    1  0.5234597E-009  0.8893632E+02  0.7818608E-02  0.1305448E+00
          1   -1    0    0  501    0  0.00000000000E+00  0.00000000000E+00  0.16569830664E+03  0.16569830671E+03  0.50400000000E-02 0. -1.
         -1   -1    0    0    0  501 -0.00000000000E+00 -0.00000000000E+00 -0.11933840608E+02  0.11933841673E+02  0.50400000000E-02 0.  1.
         23    2    1    2    0    0  0.17763568394E-14  0.35527136788E-14  0.15376446603E+03  0.17763214839E+03  0.88936320630E+02 0.  0.
    9000005    2    3    3    0    0 -0.13950595305E+02  0.27500373950E+02  0.13940187927E+03  0.14361489431E+03  0.15539119844E+02 0.  0.
         22    1    3    3    0    0  0.13950595305E+02 -0.27500373950E+02  0.14362586758E+02  0.34017254080E+02  0.00000000000E+00 0.  1.
         22    1    4    4    0    0 -0.27672548104E+01  0.21732449013E+02  0.85200293797E+02  0.87971854035E+02  0.00000000000E+00 0.  1.
         22    1    4    4    0    0 -0.11183340495E+02  0.57679249372E+01  0.54201585474E+02  0.55643040271E+02  0.00000000000E+00 0.  1.
<mgrwt>
<rscale>  0 0.88936321E+02</rscale>
<asrwt>0</asrwt>
<pdfrwt beam="1">  1        1 0.25492049E-01 0.88936321E+02</pdfrwt>
<pdfrwt beam="2">  1       -1 0.18359754E-02 0.88936321E+02</pdfrwt>
<totfact> 0.12211830E+05</totfact>
</mgrwt>
</event>
<event>
 7    1  0.2787125E-009  0.9088986E+02  0.7818608E-02  0.1300711E+00
          1   -1    0    0  501    0  0.00000000000E+00  0.00000000000E+00  0.15942673584E+03  0.15942673592E+03  0.50400000000E-02 0. -1.
         -1   -1    0    0    0  501 -0.00000000000E+00 -0.00000000000E+00 -0.12954173134E+02  0.12954174115E+02  0.50400000000E-02 0.  1.
         23    2    1    2    0    0  0.00000000000E+00  0.00000000000E+00  0.14647256271E+03  0.17238091004E+03  0.90889859274E+02 0.  0.
    9000005    2    3    3    0    0  0.20049984512E+02  0.37541301130E+02  0.99186680366E+02  0.10876247058E+03  0.13413660061E+02 0.  0.
         22    1    3    3    0    0 -0.20049984512E+02 -0.37541301130E+02  0.47285882342E+02  0.63618439452E+02  0.00000000000E+00 0.  1.
         22    1    4    4    0    0  0.87195189615E+01  0.50822461629E+01  0.26447866330E+02  0.28308106090E+02  0.00000000000E+00 0. -1.
         22    1    4    4    0    0  0.11330465550E+02  0.32459054967E+02  0.72738814036E+02  0.80454364495E+02  0.00000000000E+00 0. -1.
<mgrwt>
<rscale>  0 0.90889859E+02</rscale>
<asrwt>0</asrwt>
<pdfrwt beam="1">  1        1 0.24527191E-01 0.90889859E+02</pdfrwt>
<pdfrwt beam="2">  1       -1 0.19929497E-02 0.90889859E+02</pdfrwt>
<totfact> 0.11437135E+05</totfact>
</mgrwt>
</event>
<event>
 7    1  0.2787125E-009  0.9150729E+02  0.7818608E-02  0.1299242E+00
         -1   -1    0    0    0  501 -0.00000000000E+00  0.00000000000E+00  0.11112470592E+02  0.11112471734E+02  0.50400000000E-02 0.  1.
          1   -1    0    0  501    0  0.00000000000E+00 -0.00000000000E+00 -0.18838259142E+03  0.18838259149E+03  0.50400000000E-02 0. -1.
         23    2    1    2    0    0 -0.35527136788E-14  0.88817841970E-15 -0.17727012083E+03  0.19949506322E+03  0.91507292121E+02 0.  0.
    9000005    2    3    3    0    0  0.30525217792E+02 -0.47449910128E+01 -0.16406284471E+02  0.35691895644E+02  0.71022097674E+01 0.  0.
         22    1    3    3    0    0 -0.30525217792E+02  0.47449910128E+01 -0.16086383636E+03  0.16380316758E+03  0.00000000000E+00 0. -1.
         22    1    4    4    0    0  0.58983059584E+01  0.15565151021E+01 -0.17375089642E+01  0.63428455636E+01  0.00000000000E+00 0.  1.
         22    1    4    4    0    0  0.24626911833E+02 -0.63015061149E+01 -0.14668775507E+02  0.29349050080E+02  0.00000000000E+00 0.  1.
<mgrwt>
<rscale>  0 0.91507292E+02</rscale>
<asrwt>0</asrwt>
<pdfrwt beam="2">  1        1 0.28981935E-01 0.91507292E+02</pdfrwt>
<pdfrwt beam="1">  1       -1 0.17096111E-02 0.91507292E+02</pdfrwt>
<totfact> 0.11591181E+05</totfact>
</mgrwt>
</event>
<event>
 7    1  0.2787125E-009  0.8950811E+02  0.7818608E-02  0.1304047E+00
          1   -1    0    0  501    0  0.00000000000E+00  0.00000000000E+00  0.28101640181E+02  0.28101640633E+02  0.50400000000E-02 0. -1.
         -1   -1    0    0    0  501 -0.00000000000E+00 -0.00000000000E+00 -0.71274327744E+02  0.71274327923E+02  0.50400000000E-02 0.  1.
         23    2    1    2    0    0  0.00000000000E+00  0.00000000000E+00 -0.43172687563E+02  0.99375968556E+02  0.89508112342E+02 0.  0.
    9000005    2    3    3    0    0 -0.37332702230E+02  0.11521805700E+02 -0.11090737712E+01  0.41966646424E+02  0.15280271761E+02 0.  0.
         22    1    3    3    0    0  0.37332702230E+02 -0.11521805700E+02 -0.42063613792E+02  0.57409322132E+02  0.00000000000E+00 0.  1.
         22    1    4    4    0    0 -0.79788935669E+01  0.94703502176E+01  0.12523835140E+01  0.12446635701E+02  0.00000000000E+00 0.  1.
         22    1    4    4    0    0 -0.29353808663E+02  0.20514554829E+01 -0.23614572852E+01  0.29520010724E+02  0.00000000000E+00 0.  1.
<mgrwt>
<rscale>  0 0.89508112E+02</rscale>
<asrwt>0</asrwt>
<pdfrwt beam="1">  1        1 0.43233293E-02 0.89508112E+02</pdfrwt>
<pdfrwt beam="2">  1       -1 0.10965281E-01 0.89508112E+02</pdfrwt>
<totfact> 0.90445052E+04</totfact>
</mgrwt>
</event>
<event>
 6    1  0.2787125E-009  0.1322593E+03  0.7818608E-02  0.1224141E+00
         -1   -1    0    0    0  501 -0.00000000000E+00  0.00000000000E+00  0.21021127957E+02  0.21021128561E+02  0.50400000000E-02 0.  1.
          1   -1    0    0  501    0  0.00000000000E+00 -0.00000000000E+00 -0.20803499127E+03  0.20803499133E+03  0.50400000000E-02 0. -1.
    9000005    2    1    2    0    0 -0.25523621731E+02  0.47641451939E+02 -0.15902903654E+03  0.16819304620E+03  0.88035856127E+01 0.  0.
         22    1    1    2    0    0  0.25523621731E+02 -0.47641451939E+02 -0.27984826772E+02  0.60863073687E+02  0.00000000000E+00 0.  1.
         22    1    3    3    0    0 -0.16306005081E+02  0.32411114179E+02 -0.11841538083E+03  0.12384897473E+03  0.00000000000E+00 0. -1.
         22    1    3    3    0    0 -0.92176166496E+01  0.15230337760E+02 -0.40613655704E+02  0.44344071472E+02  0.00000000000E+00 0. -1.
<mgrwt>
<rscale>  0 0.13225929E+03</rscale>
<asrwt>0</asrwt>
<pdfrwt beam="2">  1        1 0.32005382E-01 0.13225929E+03</pdfrwt>
<pdfrwt beam="1">  1       -1 0.32340199E-02 0.13225929E+03</pdfrwt>
<totfact> 0.43085603E+04</totfact>
</mgrwt>
</event>
<event>
 7    1  0.2787125E-009  0.9168403E+02  0.7818608E-02  0.1298824E+00
         -1   -1    0    0    0  501 -0.00000000000E+00  0.00000000000E+00  0.25234420624E+02  0.25234421127E+02  0.50400000000E-02 0.  1.
          1   -1    0    0  501    0  0.00000000000E+00 -0.00000000000E+00 -0.83278723912E+02  0.83278724065E+02  0.50400000000E-02 0. -1.
         23    2    1    2    0    0 -0.17763568394E-14  0.00000000000E+00 -0.58044303289E+02  0.10851314519E+03  0.91684030971E+02 0.  0.
    9000005    2    3    3    0    0 -0.14912623727E+02  0.43207431212E+02 -0.29693604296E+02  0.54726245377E+02  0.48972786932E+01 0.  0.
         22    1    3    3    0    0  0.14912623727E+02 -0.43207431212E+02 -0.28350698992E+02  0.53786899815E+02  0.00000000000E+00 0.  1.
         22    1    4    4    0    0 -0.12456718793E+02  0.33271655101E+02 -0.25150787045E+02  0.43528553448E+02  0.00000000000E+00 0.  1.
         22    1    4    4    0    0 -0.24559049337E+01  0.99357761104E+01 -0.45428172518E+01  0.11197691929E+02  0.00000000000E+00 0.  1.
<mgrwt>
<rscale>  0 0.91684031E+02</rscale>
<asrwt>0</asrwt>
<pdfrwt beam="2">  1        1 0.12812111E-01 0.91684031E+02</pdfrwt>
<pdfrwt beam="1">  1       -1 0.38822187E-02 0.91684031E+02</pdfrwt>
<totfact> 0.99855443E+04</totfact>
</mgrwt>
</event>
<event>
 7    1  0.2787125E-009  0.9085568E+02  0.7818608E-02  0.1300793E+00
         -1   -1    0    0    0  501 -0.00000000000E+00  0.00000000000E+00  0.58544694894E+02  0.58544695111E+02  0.50400000000E-02 0.  1.
          1   -1    0    0  501    0  0.00000000000E+00 -0.00000000000E+00 -0.35249793431E+02  0.35249793792E+02  0.50400000000E-02 0. -1.
         23    2    1    2    0    0  0.00000000000E+00  0.35527136788E-14  0.23294901462E+02  0.93794488902E+02  0.90855675190E+02 0.  0.
    9000005    2    3    3    0    0 -0.21746124857E+01 -0.16427994801E+02  0.55121607930E+02  0.57912080995E+02  0.63882322882E+01 0.  0.
         22    1    3    3    0    0  0.21746124857E+01  0.16427994801E+02 -0.31826706467E+02  0.35882407907E+02  0.00000000000E+00 0. -1.
         22    1    4    4    0    0  0.13057839451E+01 -0.35267514656E+01  0.67301024740E+01  0.77095607476E+01  0.00000000000E+00 0.  1.
         22    1    4    4    0    0 -0.34803964308E+01 -0.12901243336E+02  0.48391505456E+02  0.50202520248E+02  0.00000000000E+00 0.  1.
<mgrwt>
<rscale>  0 0.90855675E+02</rscale>
<asrwt>0</asrwt>
<pdfrwt beam="2">  1        1 0.54230453E-02 0.90855675E+02</pdfrwt>
<pdfrwt beam="1">  1       -1 0.90068760E-02 0.90855675E+02</pdfrwt>
<totfact> 0.89818654E+04</totfact>
</mgrwt>
</event>
<event>
 6    1  0.2787125E-009  0.1858552E+03  0.7818608E-02  0.1162254E+00
         -1   -1    0    0    0  501 -0.00000000000E+00  0.00000000000E+00  0.29788235767E+03  0.29788235771E+03  0.50400000000E-02 0.  1.
          1   -1    0    0  501    0  0.00000000000E+00 -0.00000000000E+00 -0.28989764584E+02  0.28989765022E+02  0.50400000000E-02 0. -1.
    9000005    2    1    2    0    0 -0.85368737064E+02  0.32149409770E+02  0.10476743253E+03  0.13909972288E+03  0.71492777413E+01 0.  0.
         22    1    1    2    0    0  0.85368737064E+02 -0.32149409770E+02  0.16412516056E+03  0.18777239985E+03  0.00000000000E+00 0. -1.
         22    1    3    3    0    0 -0.53309028068E+02  0.16548073633E+02  0.65626455825E+02  0.86154065016E+02  0.00000000000E+00 0.  1.
         22    1    3    3    0    0 -0.32059708995E+02  0.15601336138E+02  0.39140976700E+02  0.52945657868E+02  0.00000000000E+00 0.  1.
<mgrwt>
<rscale>  0 0.18585521E+03</rscale>
<asrwt>0</asrwt>
<pdfrwt beam="2">  1        1 0.44599638E-02 0.18585521E+03</pdfrwt>
<pdfrwt beam="1">  1       -1 0.45828055E-01 0.18585521E+03</pdfrwt>
<totfact> 0.91137259E+03</totfact>
</mgrwt>
</event>
<event>
 7    1  0.2787125E-009  0.8943962E+02  0.7818608E-02  0.1304214E+00
          1   -1    0    0  501    0  0.00000000000E+00  0.00000000000E+00  0.28786810352E+02  0.28786810793E+02  0.50400000000E-02 0.  1.
         -1   -1    0    0    0  501 -0.00000000000E+00 -0.00000000000E+00 -0.69471447357E+02  0.69471447540E+02  0.50400000000E-02 0. -1.
         23    2    1    2    0    0 -0.17763568394E-14  0.17763568394E-14 -0.40684637005E+02  0.98258258333E+02  0.89439620093E+02 0.  0.
    9000005    2    3    3    0    0 -0.15220854310E+02  0.91704994761E+01  0.22526632716E+02  0.32596724035E+02  0.15470125071E+02 0.  0.
         22    1    3    3    0    0  0.15220854310E+02 -0.91704994761E+01 -0.63211269721E+02  0.65661534298E+02  0.00000000000E+00 0. -1.
         22    1    4    4    0    0 -0.12639671605E+01 -0.25516319782E+01 -0.83383078660E+00  0.29671050732E+01  0.00000000000E+00 0.  1.
         22    1    4    4    0    0 -0.13956887150E+02  0.11722131454E+02  0.23360463503E+02  0.29629618962E+02  0.00000000000E+00 0.  1.
<mgrwt>
<rscale>  0 0.89439620E+02</rscale>
<asrwt>0</asrwt>
<pdfrwt beam="1">  1        1 0.44287401E-02 0.89439620E+02</pdfrwt>
<pdfrwt beam="2">  1       -1 0.10687915E-01 0.89439620E+02</pdfrwt>
<totfact> 0.90994792E+04</totfact>
</mgrwt>
</event>
<event>
 7    1  0.2787125E-009  0.8923936E+02  0.7818608E-02  0.1304704E+00
         -1   -1    0    0    0  501 -0.00000000000E+00  0.00000000000E+00  0.63506497664E+02  0.63506497864E+02  0.50400000000E-02 0.  1.
          1   -1    0    0  501    0  0.00000000000E+00 -0.00000000000E+00 -0.31349794437E+02  0.31349794842E+02  0.50400000000E-02 0. -1.
         23    2    1    2    0    0  0.44408920985E-15  0.00000000000E+00  0.32156703227E+02  0.94856292705E+02  0.89239356247E+02 0.  0.
    9000005    2    3    3    0    0 -0.34801529376E+01 -0.35412178184E+02  0.44208756778E+02  0.57287877474E+02  0.78328092999E+01 0.  0.
         22    1    3    3    0    0  0.34801529376E+01  0.35412178184E+02 -0.12052053550E+02  0.37568415231E+02  0.00000000000E+00 0. -1.
         22    1    4    4    0    0 -0.36290900348E+01 -0.18151993579E+02  0.28284075805E+02  0.33803167152E+02  0.00000000000E+00 0.  1.
         22    1    4    4    0    0  0.14893709724E+00 -0.17260184605E+02  0.15924680973E+02  0.23484710323E+02  0.00000000000E+00 0.  1.
<mgrwt>
<rscale>  0 0.89239356E+02</rscale>
<asrwt>0</asrwt>
<pdfrwt beam="2">  1        1 0.48230454E-02 0.89239356E+02</pdfrwt>
<pdfrwt beam="1">  1       -1 0.97702303E-02 0.89239356E+02</pdfrwt>
<totfact> 0.92819517E+04</totfact>
</mgrwt>
</event>
<event>
 7    1  0.2787125E-009  0.9334687E+02  0.7818608E-02  0.1294943E+00
          1   -1    0    0  501    0  0.00000000000E+00  0.00000000000E+00  0.17374239589E+03  0.17374239597E+03  0.50400000000E-02 0. -1.
         -1   -1    0    0    0  501 -0.00000000000E+00 -0.00000000000E+00 -0.12538156534E+02  0.12538157547E+02  0.50400000000E-02 0.  1.
         23    2    1    2    0    0  0.00000000000E+00  0.00000000000E+00  0.16120423936E+03  0.18628055351E+03  0.93346868345E+02 0.  0.
    9000005    2    3    3    0    0  0.42636344268E+02 -0.48771432545E+01  0.48828987957E+02  0.65989899236E+02  0.11346909595E+02 0.  0.
         22    1    3    3    0    0 -0.42636344268E+02  0.48771432545E+01  0.11237525140E+03  0.12029065428E+03  0.00000000000E+00 0. -1.
         22    1    4    4    0    0  0.15769865568E+02  0.30143658648E+01  0.14012237828E+02  0.21310041543E+02  0.00000000000E+00 0.  1.
         22    1    4    4    0    0  0.26866478700E+02 -0.78915091194E+01  0.34816750129E+02  0.44679857693E+02  0.00000000000E+00 0.  1.
<mgrwt>
<rscale>  0 0.93346868E+02</rscale>
<asrwt>0</asrwt>
<pdfrwt beam="1">  1        1 0.26729596E-01 0.93346868E+02</pdfrwt>
<pdfrwt beam="2">  1       -1 0.19289475E-02 0.93346868E+02</pdfrwt>
<totfact> 0.10816984E+05</totfact>
</mgrwt>
</event>
<event>
 7    1  0.2787125E-009  0.9210993E+02  0.7818608E-02  0.1297821E+00
          1   -1    0    0  501    0  0.00000000000E+00  0.00000000000E+00  0.77189975179E+02  0.77189975344E+02  0.50400000000E-02 0. -1.
         -1   -1    0    0    0  501 -0.00000000000E+00 -0.00000000000E+00 -0.27478433376E+02  0.27478433838E+02  0.50400000000E-02 0.  1.
         23    2    1    2    0    0  0.00000000000E+00 -0.71054273576E-14  0.49711541803E+02  0.10466840918E+03  0.92109926133E+02 0.  0.
    9000005    2    3    3    0    0 -0.17212638147E+02 -0.39463269276E+02  0.99069991802E+01  0.46033725356E+02  0.12935636957E+02 0.  0.
         22    1    3    3    0    0  0.17212638147E+02  0.39463269276E+02  0.39804542623E+02  0.58634683826E+02  0.00000000000E+00 0. -1.
         22    1    4    4    0    0 -0.40338287088E+01 -0.20685552518E+01 -0.15023900181E+01  0.47757586464E+01  0.00000000000E+00 0.  1.
         22    1    4    4    0    0 -0.13178809438E+02 -0.37394714024E+02  0.11409389198E+02  0.41257966710E+02  0.00000000000E+00 0.  1.
<mgrwt>
<rscale>  0 0.92109926E+02</rscale>
<asrwt>0</asrwt>
<pdfrwt beam="1">  1        1 0.11875381E-01 0.92109926E+02</pdfrwt>
<pdfrwt beam="2">  1       -1 0.42274514E-02 0.92109926E+02</pdfrwt>
<totfact> 0.97410436E+04</totfact>
</mgrwt>
</event>
<event>
 7    1  0.2787125E-009  0.9088148E+02  0.7818608E-02  0.1300731E+00
         -1   -1    0    0    0  501 -0.00000000000E+00  0.00000000000E+00  0.65368340077E+02  0.65368340271E+02  0.50400000000E-02 0.  1.
          1   -1    0    0  501    0  0.00000000000E+00 -0.00000000000E+00 -0.31588087599E+02  0.31588088001E+02  0.50400000000E-02 0. -1.
         23    2    1    2    0    0  0.35527136788E-14 -0.71054273576E-14  0.33780252478E+02  0.96956428272E+02  0.90881480654E+02 0.  0.
    9000005    2    3    3    0    0  0.22342255476E+02 -0.37496606113E+02  0.29404896916E+02  0.53089406649E+02  0.69760508845E+01 0.  0.
         22    1    3    3    0    0 -0.22342255476E+02  0.37496606113E+02  0.43753555612E+01  0.43867021623E+02  0.00000000000E+00 0. -1.
         22    1    4    4    0    0  0.13700337958E+02 -0.24640357822E+02  0.14995470906E+02  0.31932908440E+02  0.00000000000E+00 0. -1.
         22    1    4    4    0    0  0.86419175173E+01 -0.12856248291E+02  0.14409426011E+02  0.21156498209E+02  0.00000000000E+00 0. -1.
<mgrwt>
<rscale>  0 0.90881481E+02</rscale>
<asrwt>0</asrwt>
<pdfrwt beam="2">  1        1 0.48597058E-02 0.90881481E+02</pdfrwt>
<pdfrwt beam="1">  1       -1 0.10056668E-01 0.90881481E+02</pdfrwt>
<totfact> 0.88218798E+04</totfact>
</mgrwt>
</event>
<event>
 7    1  0.2787125E-009  0.8824912E+02  0.7818608E-02  0.1307148E+00
         -1   -1    0    0    0  501 -0.00000000000E+00  0.00000000000E+00  0.15511536217E+03  0.15511536225E+03  0.50400000000E-02 0.  1.
          1   -1    0    0  501    0  0.00000000000E+00 -0.00000000000E+00 -0.12551798073E+02  0.12551799085E+02  0.50400000000E-02 0. -1.
         23    2    1    2    0    0  0.00000000000E+00  0.00000000000E+00  0.14256356410E+03  0.16766716134E+03  0.88249120012E+02 0.  0.
    9000005    2    3    3    0    0  0.17844681912E+02 -0.27874474864E+02  0.12612783612E+03  0.13071378293E+03  0.90798118632E+01 0.  0.
         22    1    3    3    0    0 -0.17844681912E+02  0.27874474864E+02  0.16435727985E+02  0.36953378409E+02  0.00000000000E+00 0.  1.
         22    1    4    4    0    0 -0.10438532369E+01 -0.14060452690E+01  0.82075872589E+01  0.83923227709E+01  0.00000000000E+00 0.  1.
         22    1    4    4    0    0  0.18888535149E+02 -0.26468429595E+02  0.11792024886E+03  0.12232146016E+03  0.00000000000E+00 0.  1.
<mgrwt>
<rscale>  0 0.88249120E+02</rscale>
<asrwt>0</asrwt>
<pdfrwt beam="2">  1        1 0.19310460E-02 0.88249120E+02</pdfrwt>
<pdfrwt beam="1">  1       -1 0.23863902E-01 0.88249120E+02</pdfrwt>
<totfact> 0.80748424E+04</totfact>
</mgrwt>
</event>
<event>
 7    1  0.2787125E-009  0.9106281E+02  0.7818608E-02  0.1300298E+00
          1   -1    0    0  501    0  0.00000000000E+00  0.00000000000E+00  0.43942370485E+01  0.43942399388E+01  0.50400000000E-02 0. -1.
         -1   -1    0    0    0  501 -0.00000000000E+00 -0.00000000000E+00 -0.47177883738E+03  0.47177883740E+03  0.50400000000E-02 0.  1.
         23    2    1    2    0    0  0.00000000000E+00  0.71054273576E-14 -0.46738460033E+03  0.47617307734E+03  0.91062807786E+02 0.  0.
    9000005    2    3    3    0    0 -0.14232195847E+01 -0.33780127000E+02 -0.39262350169E+03  0.39412221261E+03  0.59984878975E+01 0.  0.
         22    1    3    3    0    0  0.14232195847E+01  0.33780127000E+02 -0.74761098634E+02  0.82050864731E+02  0.00000000000E+00 0. -1.
         22    1    4    4    0    0 -0.99172245657E+00 -0.16311650567E+01 -0.12972603608E+02  0.13112309379E+02  0.00000000000E+00 0. -1.
         22    1    4    4    0    0 -0.43149712812E+00 -0.32148961943E+02 -0.37965089809E+03  0.38100990323E+03  0.00000000000E+00 0. -1.
<mgrwt>
<rscale>  0 0.91062808E+02</rscale>
<asrwt>0</asrwt>
<pdfrwt beam="1">  1        1 0.67603707E-03 0.91062808E+02</pdfrwt>
<pdfrwt beam="2">  1       -1 0.72581320E-01 0.91062808E+02</pdfrwt>
<totfact> 0.48873951E+04</totfact>
</mgrwt>
</event>
<event>
 7    1  0.2787125E-009  0.9180565E+02  0.7818608E-02  0.1298537E+00
          1   -1    0    0  501    0  0.00000000000E+00  0.00000000000E+00  0.18602307769E+02  0.18602308452E+02  0.50400000000E-02 0. -1.
         -1   -1    0    0    0  501 -0.00000000000E+00 -0.00000000000E+00 -0.11326923569E+03  0.11326923580E+03  0.50400000000E-02 0.  1.
         23    2    1    2    0    0  0.00000000000E+00  0.00000000000E+00 -0.94666927920E+02  0.13187154425E+03  0.91805647658E+02 0.  0.
    9000005    2    3    3    0    0  0.63863482476E+01  0.28541099092E+02  0.11694994706E+01  0.31671740878E+02  0.12097589013E+02 0.  0.
         22    1    3    3    0    0 -0.63863482476E+01 -0.28541099092E+02 -0.95836427391E+02  0.10019980337E+03  0.00000000000E+00 0.  1.
         22    1    4    4    0    0  0.37126587098E+01  0.11433332674E+02 -0.53655808409E+01  0.13164132653E+02  0.00000000000E+00 0.  1.
         22    1    4    4    0    0  0.26736895378E+01  0.17107766418E+02  0.65350803115E+01  0.18507608226E+02  0.00000000000E+00 0.  1.
<mgrwt>
<rscale>  0 0.91805648E+02</rscale>
<asrwt>0</asrwt>
<pdfrwt beam="1">  1        1 0.28618936E-02 0.91805648E+02</pdfrwt>
<pdfrwt beam="2">  1       -1 0.17426036E-01 0.91805648E+02</pdfrwt>
<totfact> 0.78049430E+04</totfact>
</mgrwt>
</event>
<event>
 7    1  0.2787125E-009  0.9086949E+02  0.7818608E-02  0.1300760E+00
          1   -1    0    0  501    0  0.00000000000E+00  0.00000000000E+00  0.42145286262E+02  0.42145286563E+02  0.50400000000E-02 0.  1.
         -1   -1    0    0    0  501 -0.00000000000E+00 -0.00000000000E+00 -0.48980950751E+02  0.48980951010E+02  0.50400000000E-02 0. -1.
         23    2    1    2    0    0  0.00000000000E+00  0.00000000000E+00 -0.68356644892E+01  0.91126237573E+02  0.90869493590E+02 0.  0.
    9000005    2    3    3    0    0 -0.37818528268E+02  0.11853036648E+02  0.17952456585E+02  0.44380259088E+02  0.87510651462E+01 0.  0.
         22    1    3    3    0    0  0.37818528268E+02 -0.11853036648E+02 -0.24788121074E+02  0.46745978485E+02  0.00000000000E+00 0. -1.
         22    1    4    4    0    0 -0.10199782213E+02 -0.11824598117E-01  0.21645411001E+01  0.10426933163E+02  0.00000000000E+00 0.  1.
         22    1    4    4    0    0 -0.27618746055E+02  0.11864861246E+02  0.15787915484E+02  0.33953325925E+02  0.00000000000E+00 0.  1.
<mgrwt>
<rscale>  0 0.90869494E+02</rscale>
<asrwt>0</asrwt>
<pdfrwt beam="1">  1        1 0.64838903E-02 0.90869494E+02</pdfrwt>
<pdfrwt beam="2">  1       -1 0.75355309E-02 0.90869494E+02</pdfrwt>
<totfact> 0.92257527E+04</totfact>
</mgrwt>
</event>
<event>
 7    1  0.2787125E-009  0.9146896E+02  0.7818608E-02  0.1299333E+00
         -1   -1    0    0    0  501 -0.00000000000E+00  0.00000000000E+00  0.52991515764E+02  0.52991516004E+02  0.50400000000E-02 0.  1.
          1   -1    0    0  501    0  0.00000000000E+00 -0.00000000000E+00 -0.39471274136E+02  0.39471274458E+02  0.50400000000E-02 0. -1.
         23    2    1    2    0    0 -0.17763568394E-14  0.00000000000E+00  0.13520241628E+02  0.92462790462E+02  0.91468960235E+02 0.  0.
    9000005    2    3    3    0    0 -0.13139407479E+02 -0.42269060807E+02 -0.34585106588E+01  0.45053977361E+02  0.76538911442E+01 0.  0.
         22    1    3    3    0    0  0.13139407479E+02  0.42269060807E+02  0.16978752287E+02  0.47408813101E+02  0.00000000000E+00 0.  1.
         22    1    4    4    0    0 -0.11054038630E+02 -0.36822284205E+02 -0.35505557031E+00  0.38447346444E+02  0.00000000000E+00 0. -1.
         22    1    4    4    0    0 -0.20853688492E+01 -0.54467766022E+01 -0.31034550885E+01  0.66066309173E+01  0.00000000000E+00 0. -1.
<mgrwt>
<rscale>  0 0.91468960E+02</rscale>
<asrwt>0</asrwt>
<pdfrwt beam="2">  1        1 0.60725038E-02 0.91468960E+02</pdfrwt>
<pdfrwt beam="1">  1       -1 0.81525409E-02 0.91468960E+02</pdfrwt>
<totfact> 0.89664925E+04</totfact>
</mgrwt>
</event>
<event>
 7    1  0.2787125E-009  0.8994570E+02  0.7818608E-02  0.1302983E+00
         -1   -1    0    0    0  501 -0.00000000000E+00  0.00000000000E+00  0.22534543526E+03  0.22534543531E+03  0.50400000000E-02 0.  1.
          1   -1    0    0  501    0  0.00000000000E+00 -0.00000000000E+00 -0.89753622984E+01  0.89753637134E+01  0.50400000000E-02 0. -1.
         23    2    1    2    0    0  0.00000000000E+00  0.00000000000E+00  0.21637007296E+03  0.23432079903E+03  0.89945696865E+02 0.  0.
    9000005    2    3    3    0    0  0.19729361996E+01 -0.42457632478E+02  0.14103003750E+03  0.14781840614E+03  0.12420413941E+02 0.  0.
         22    1    3    3    0    0 -0.19729361996E+01  0.42457632478E+02  0.75340035459E+02  0.86502392891E+02  0.00000000000E+00 0. -1.
         22    1    4    4    0    0  0.62140688321E+00 -0.76464137945E+01  0.45331977434E+02  0.45976537152E+02  0.00000000000E+00 0. -1.
         22    1    4    4    0    0  0.13515293164E+01 -0.34811218684E+02  0.95698060067E+02  0.10184186898E+03  0.00000000000E+00 0. -1.
<mgrwt>
<rscale>  0 0.89945697E+02</rscale>
<asrwt>0</asrwt>
<pdfrwt beam="2">  1        1 0.13808251E-02 0.89945697E+02</pdfrwt>
<pdfrwt beam="1">  1       -1 0.34668529E-01 0.89945697E+02</pdfrwt>
<totfact> 0.69407186E+04</totfact>
</mgrwt>
</event>
<event>
 7    1  0.2787125E-009  0.9148102E+02  0.7818608E-02  0.1299304E+00
         -1   -1    0    0    0  501 -0.00000000000E+00  0.00000000000E+00  0.10262633168E+02  0.10262634405E+02  0.50400000000E-02 0.  1.
          1   -1    0    0  501    0  0.00000000000E+00 -0.00000000000E+00 -0.20386524729E+03  0.20386524736E+03  0.50400000000E-02 0. -1.
         23    2    1    2    0    0  0.00000000000E+00  0.00000000000E+00 -0.19360261413E+03  0.21412788176E+03  0.91481022901E+02 0.  0.
    9000005    2    3    3    0    0 -0.20878478339E+02 -0.31765286087E+02 -0.38627095599E+02  0.54558600254E+02  0.62963552391E+01 0.  0.
         22    1    3    3    0    0  0.20878478339E+02  0.31765286087E+02 -0.15497551853E+03  0.15956928151E+03  0.00000000000E+00 0. -1.
         22    1    4    4    0    0 -0.14507533551E+02 -0.22268451665E+02 -0.22705091567E+02  0.34955309359E+02  0.00000000000E+00 0. -1.
         22    1    4    4    0    0 -0.63709447879E+01 -0.94968344224E+01 -0.15922004031E+02  0.19603290895E+02  0.00000000000E+00 0. -1.
<mgrwt>
<rscale>  0 0.91481023E+02</rscale>
<asrwt>0</asrwt>
<pdfrwt beam="2">  1        1 0.31363881E-01 0.91481023E+02</pdfrwt>
<pdfrwt beam="1">  1       -1 0.15788669E-02 0.91481023E+02</pdfrwt>
<totfact> 0.11778929E+05</totfact>
</mgrwt>
</event>
<event>
 7    1  0.2787125E-009  0.9221120E+02  0.7818608E-02  0.1297584E+00
          1   -1    0    0  501    0  0.00000000000E+00  0.00000000000E+00  0.49978915769E+01  0.49978941181E+01  0.50400000000E-02 0. -1.
         -1   -1    0    0    0  501 -0.00000000000E+00 -0.00000000000E+00 -0.42532455386E+03  0.42532455388E+03  0.50400000000E-02 0.  1.
         23    2    1    2    0    0  0.00000000000E+00  0.71054273576E-14 -0.42032666228E+03  0.43032244800E+03  0.92211204490E+02 0.  0.
    9000005    2    3    3    0    0 -0.16566243872E+02 -0.41910044694E+02 -0.18254902060E+03  0.18831191277E+03  0.10312094180E+02 0.  0.
         22    1    3    3    0    0  0.16566243872E+02  0.41910044694E+02 -0.23777764168E+03  0.24201053523E+03  0.00000000000E+00 0. -1.
         22    1    4    4    0    0 -0.23871413519E+01 -0.47476393958E+01 -0.38770426911E+02  0.39132908486E+02  0.00000000000E+00 0.  1.
         22    1    4    4    0    0 -0.14179102520E+02 -0.37162405298E+02 -0.14377859369E+03  0.14917900428E+03  0.00000000000E+00 0.  1.
<mgrwt>
<rscale>  0 0.92211204E+02</rscale>
<asrwt>0</asrwt>
<pdfrwt beam="1">  1        1 0.76890693E-03 0.92211204E+02</pdfrwt>
<pdfrwt beam="2">  1       -1 0.65434519E-01 0.92211204E+02</pdfrwt>
<totfact> 0.50113291E+04</totfact>
</mgrwt>
</event>
<event>
 7    1  0.2787125E-009  0.8297485E+02  0.7818608E-02  0.1320815E+00
          1   -1    0    0  501    0  0.00000000000E+00  0.00000000000E+00  0.82548044537E+02  0.82548044691E+02  0.50400000000E-02 0. -1.
         -1   -1    0    0    0  501 -0.00000000000E+00 -0.00000000000E+00 -0.20850964641E+02  0.20850965250E+02  0.50400000000E-02 0.  1.
         23    2    1    2    0    0  0.00000000000E+00  0.00000000000E+00  0.61697079896E+02  0.10339900994E+03  0.82974849135E+02 0.  0.
    9000005    2    3    3    0    0  0.12605178853E+02 -0.31405109398E+02  0.60201850282E+02  0.69525611206E+02  0.80234908807E+01 0.  0.
         22    1    3    3    0    0 -0.12605178853E+02  0.31405109398E+02  0.14952296136E+01  0.33873398735E+02  0.00000000000E+00 0.  1.
         22    1    4    4    0    0  0.83122843171E-01 -0.47072078123E+01  0.45686463252E+01  0.65602777411E+01  0.00000000000E+00 0.  1.
         22    1    4    4    0    0  0.12522056010E+02 -0.26697901586E+02  0.55633203957E+02  0.62965333465E+02  0.00000000000E+00 0.  1.
<mgrwt>
<rscale>  0 0.82974849E+02</rscale>
<asrwt>0</asrwt>
<pdfrwt beam="1">  1        1 0.12699699E-01 0.82974849E+02</pdfrwt>
<pdfrwt beam="2">  1       -1 0.32078408E-02 0.82974849E+02</pdfrwt>
<totfact> 0.13086996E+05</totfact>
</mgrwt>
</event>
<event>
 7    1  0.2787125E-009  0.8940551E+02  0.7818608E-02  0.1304298E+00
         -1   -1    0    0    0  501 -0.00000000000E+00  0.00000000000E+00  0.12923835801E+02  0.12923836784E+02  0.50400000000E-02 0.  1.
          1   -1    0    0  501    0  0.00000000000E+00 -0.00000000000E+00 -0.15462408813E+03  0.15462408821E+03  0.50400000000E-02 0. -1.
         23    2    1    2    0    0 -0.17763568394E-14  0.00000000000E+00 -0.14170025233E+03  0.16754792499E+03  0.89405512471E+02 0.  0.
    9000005    2    3    3    0    0 -0.13060194037E+02  0.40078462105E+02 -0.53039761299E+02  0.69376979891E+02  0.14936440913E+02 0.  0.
         22    1    3    3    0    0  0.13060194037E+02 -0.40078462105E+02 -0.88660491029E+02  0.98170945103E+02  0.00000000000E+00 0. -1.
         22    1    4    4    0    0 -0.84294619896E+01  0.11589277162E+02 -0.96965934491E+01  0.17302921693E+02  0.00000000000E+00 0. -1.
         22    1    4    4    0    0 -0.46307320479E+01  0.28489184943E+02 -0.43343167850E+02  0.52074058198E+02  0.00000000000E+00 0. -1.
<mgrwt>
<rscale>  0 0.89405512E+02</rscale>
<asrwt>0</asrwt>
<pdfrwt beam="2">  1        1 0.23788320E-01 0.89405512E+02</pdfrwt>
<pdfrwt beam="1">  1       -1 0.19882826E-02 0.89405512E+02</pdfrwt>
<totfact> 0.11887525E+05</totfact>
</mgrwt>
</event>
<event>
 7    1  0.2787125E-009  0.9166182E+02  0.7818608E-02  0.1298877E+00
          1   -1    0    0  501    0  0.00000000000E+00  0.00000000000E+00  0.11630699054E+02  0.11630700146E+02  0.50400000000E-02 0. -1.
         -1   -1    0    0    0  501 -0.00000000000E+00 -0.00000000000E+00 -0.18059725087E+03  0.18059725094E+03  0.50400000000E-02 0.  1.
         23    2    1    2    0    0  0.00000000000E+00 -0.44408920985E-15 -0.16896655181E+03  0.19222795108E+03  0.91661821637E+02 0.  0.
    9000005    2    3    3    0    0 -0.33583435062E+02 -0.21276431296E+01 -0.24218447802E+02  0.43619783102E+02  0.13556485093E+02 0.  0.
         22    1    3    3    0    0  0.33583435062E+02  0.21276431296E+01 -0.14474810401E+03  0.14860816798E+03  0.00000000000E+00 0.  1.
         22    1    4    4    0    0 -0.20311532386E+02 -0.77411869321E+01 -0.12726239254E+02  0.25188121973E+02  0.00000000000E+00 0.  1.
         22    1    4    4    0    0 -0.13271902676E+02  0.56135438025E+01 -0.11492208548E+02  0.18431661129E+02  0.00000000000E+00 0.  1.
<mgrwt>
<rscale>  0 0.91661822E+02</rscale>
<asrwt>0</asrwt>
<pdfrwt beam="1">  1        1 0.17893385E-02 0.91661822E+02</pdfrwt>
<pdfrwt beam="2">  1       -1 0.27784190E-01 0.91661822E+02</pdfrwt>
<totfact> 0.70426518E+04</totfact>
</mgrwt>
</event>
<event>
 7    1  0.2787125E-009  0.8737833E+02  0.7818608E-02  0.1309328E+00
          1   -1    0    0  501    0  0.00000000000E+00  0.00000000000E+00  0.34550661298E+03  0.34550661301E+03  0.50400000000E-02 0. -1.
         -1   -1    0    0    0  501 -0.00000000000E+00 -0.00000000000E+00 -0.55244755406E+01  0.55244778396E+01  0.50400000000E-02 0.  1.
         23    2    1    2    0    0  0.00000000000E+00  0.71054273576E-14  0.33998213744E+03  0.35103109085E+03  0.87378332382E+02 0.  0.
    9000005    2    3    3    0    0 -0.21421665188E+02 -0.33096054451E+02  0.23729361786E+03  0.24103486995E+03  0.15339846686E+02 0.  0.
         22    1    3    3    0    0  0.21421665188E+02  0.33096054451E+02  0.10268851958E+03  0.10999622090E+03  0.00000000000E+00 0.  1.
         22    1    4    4    0    0 -0.16790376952E+02 -0.33096311281E+02  0.22106044736E+03  0.22415397379E+03  0.00000000000E+00 0.  1.
         22    1    4    4    0    0 -0.46312882359E+01  0.25682975969E-03  0.16233170497E+02  0.16880896161E+02  0.00000000000E+00 0.  1.
<mgrwt>
<rscale>  0 0.87378332E+02</rscale>
<asrwt>0</asrwt>
<pdfrwt beam="1">  1        1 0.53154854E-01 0.87378332E+02</pdfrwt>
<pdfrwt beam="2">  1       -1 0.84991965E-03 0.87378332E+02</pdfrwt>
<totfact> 0.14724438E+05</totfact>
</mgrwt>
</event>
<event>
 7    1  0.2787125E-009  0.8662971E+02  0.7818608E-02  0.1311225E+00
         -1   -1    0    0    0  501 -0.00000000000E+00  0.00000000000E+00  0.15467237015E+03  0.15467237023E+03  0.50400000000E-02 0.  1.
          1   -1    0    0  501    0  0.00000000000E+00 -0.00000000000E+00 -0.12130003420E+02  0.12130004467E+02  0.50400000000E-02 0. -1.
         23    2    1    2    0    0  0.00000000000E+00  0.00000000000E+00  0.14254236673E+03  0.16680237470E+03  0.86629705597E+02 0.  0.
    9000005    2    3    3    0    0  0.21766234118E+02 -0.24368960971E+02  0.12495340660E+03  0.12969460294E+03  0.11820363924E+02 0.  0.
         22    1    3    3    0    0 -0.21766234118E+02  0.24368960971E+02  0.17588960123E+02  0.37107771756E+02  0.00000000000E+00 0. -1.
         22    1    4    4    0    0  0.10983773132E+02 -0.12818038293E+02  0.42289878156E+02  0.45534373525E+02  0.00000000000E+00 0. -1.
         22    1    4    4    0    0  0.10782460986E+02 -0.11550922678E+02  0.82663528448E+02  0.84160229414E+02  0.00000000000E+00 0. -1.
<mgrwt>
<rscale>  0 0.86629706E+02</rscale>
<asrwt>0</asrwt>
<pdfrwt beam="2">  1        1 0.18661545E-02 0.86629706E+02</pdfrwt>
<pdfrwt beam="1">  1       -1 0.23795749E-01 0.86629706E+02</pdfrwt>
<totfact> 0.84772350E+04</totfact>
</mgrwt>
</event>
<event>
 7    1  0.2787125E-009  0.9107373E+02  0.7818608E-02  0.1300272E+00
          1   -1    0    0  501    0  0.00000000000E+00  0.00000000000E+00  0.16816036599E+03  0.16816036606E+03  0.50400000000E-02 0. -1.
         -1   -1    0    0    0  501 -0.00000000000E+00 -0.00000000000E+00 -0.12331121595E+02  0.12331122625E+02  0.50400000000E-02 0.  1.
         23    2    1    2    0    0  0.35527136788E-14 -0.17763568394E-14  0.15582924439E+03  0.18049148869E+03  0.91073728818E+02 0.  0.
    9000005    2    3    3    0    0 -0.29129412472E+02  0.80737119988E+01  0.14378568141E+02  0.35847092639E+02  0.12828224058E+02 0.  0.
         22    1    3    3    0    0  0.29129412472E+02 -0.80737119988E+01  0.14145067625E+03  0.14464439605E+03  0.00000000000E+00 0. -1.
         22    1    4    4    0    0 -0.26726073728E+02  0.64817594234E+01  0.76777424388E+01  0.28552477144E+02  0.00000000000E+00 0.  1.
         22    1    4    4    0    0 -0.24033387440E+01  0.15919525754E+01  0.67008257022E+01  0.72946154944E+01  0.00000000000E+00 0.  1.
<mgrwt>
<rscale>  0 0.91073729E+02</rscale>
<asrwt>0</asrwt>
<pdfrwt beam="1">  1        1 0.25870826E-01 0.91073729E+02</pdfrwt>
<pdfrwt beam="2">  1       -1 0.18970957E-02 0.91073729E+02</pdfrwt>
<totfact> 0.11489040E+05</totfact>
</mgrwt>
</event>
<event>
 7    1  0.2787125E-009  0.9627323E+02  0.7818608E-02  0.1288334E+00
          1   -1    0    0  501    0  0.00000000000E+00  0.00000000000E+00  0.10604610197E+02  0.10604611395E+02  0.50400000000E-02 0. -1.
         -1   -1    0    0    0  501 -0.00000000000E+00 -0.00000000000E+00 -0.21850246823E+03  0.21850246829E+03  0.50400000000E-02 0.  1.
         23    2    1    2    0    0 -0.71054273576E-14  0.35527136788E-14 -0.20789785803E+03  0.22910707968E+03  0.96273228814E+02 0.  0.
    9000005    2    3    3    0    0  0.35186366887E+02 -0.18570080706E+02 -0.16574886401E+03  0.17114617899E+03  0.15342762114E+02 0.  0.
         22    1    3    3    0    0 -0.35186366887E+02  0.18570080706E+02 -0.42148994017E+02  0.57960900690E+02  0.00000000000E+00 0. -1.
         22    1    4    4    0    0  0.30524772046E+02 -0.12010861501E+02 -0.10897826418E+03  0.11380810413E+03  0.00000000000E+00 0.  1.
         22    1    4    4    0    0  0.46615948412E+01 -0.65592192047E+01 -0.56770599838E+02  0.57338074863E+02  0.00000000000E+00 0.  1.
<mgrwt>
<rscale>  0 0.96273229E+02</rscale>
<asrwt>0</asrwt>
<pdfrwt beam="1">  1        1 0.16314788E-02 0.96273229E+02</pdfrwt>
<pdfrwt beam="2">  1       -1 0.33615761E-01 0.96273229E+02</pdfrwt>
<totfact> 0.58669303E+04</totfact>
</mgrwt>
</event>
<event>
 7    1  0.2787125E-009  0.9139648E+02  0.7818608E-02  0.1299505E+00
          1   -1    0    0  501    0  0.00000000000E+00  0.00000000000E+00  0.74223778554E+02  0.74223778725E+02  0.50400000000E-02 0. -1.
         -1   -1    0    0    0  501 -0.00000000000E+00 -0.00000000000E+00 -0.28135581795E+02  0.28135582247E+02  0.50400000000E-02 0.  1.
         23    2    1    2    0    0 -0.71054273576E-14 -0.35527136788E-14  0.46088196758E+02  0.10235936097E+03  0.91396481869E+02 0.  0.
    9000005    2    3    3    0    0 -0.41541829882E+02 -0.18161930810E+02  0.23314645497E+02  0.51622648448E+02  0.81083769896E+01 0.  0.
         22    1    3    3    0    0  0.41541829882E+02  0.18161930810E+02  0.22773551261E+02  0.50736712524E+02  0.00000000000E+00 0. -1.
         22    1    4    4    0    0 -0.39090624198E+02 -0.16217743037E+02  0.23641619224E+02  0.48476986797E+02  0.00000000000E+00 0. -1.
         22    1    4    4    0    0 -0.24512056836E+01 -0.19441877734E+01 -0.32697372648E+00  0.31456616505E+01  0.00000000000E+00 0. -1.
<mgrwt>
<rscale>  0 0.91396482E+02</rscale>
<asrwt>0</asrwt>
<pdfrwt beam="1">  1        1 0.11419043E-01 0.91396482E+02</pdfrwt>
<pdfrwt beam="2">  1       -1 0.43285511E-02 0.91396482E+02</pdfrwt>
<totfact> 0.98909643E+04</totfact>
</mgrwt>
</event>
<event>
 7    1  0.2787125E-009  0.1018186E+03  0.7818608E-02  0.1276518E+00
         -1   -1    0    0    0  501 -0.00000000000E+00  0.00000000000E+00  0.23331643037E+02  0.23331643581E+02  0.50400000000E-02 0.  1.
          1   -1    0    0  501    0  0.00000000000E+00 -0.00000000000E+00 -0.11108323704E+03  0.11108323716E+03  0.50400000000E-02 0. -1.
         23    2    1    2    0    0  0.00000000000E+00 -0.71054273576E-14 -0.87751594004E+02  0.13441488074E+03  0.10181855387E+03 0.  0.
    9000005    2    3    3    0    0 -0.18856609314E+02 -0.45658264510E+02 -0.32556160559E+02  0.60342046943E+02  0.11874771833E+02 0.  0.
         22    1    3    3    0    0  0.18856609314E+02  0.45658264510E+02 -0.55195433445E+02  0.74072833793E+02  0.00000000000E+00 0. -1.
         22    1    4    4    0    0 -0.56559760226E+01 -0.25957468915E+02 -0.12862851160E+02  0.29516659656E+02  0.00000000000E+00 0. -1.
         22    1    4    4    0    0 -0.13200633292E+02 -0.19700795594E+02 -0.19693309399E+02  0.30825387288E+02  0.00000000000E+00 0. -1.
<mgrwt>
<rscale>  0 0.10181855E+03</rscale>
<asrwt>0</asrwt>
<pdfrwt beam="2">  1        1 0.17089728E-01 0.10181855E+03</pdfrwt>
<pdfrwt beam="1">  1       -1 0.35894837E-02 0.10181855E+03</pdfrwt>
<totfact> 0.78576538E+04</totfact>
</mgrwt>
</event>
<event>
 7    1  0.2787125E-009  0.9330333E+02  0.7818608E-02  0.1295044E+00
         -1   -1    0    0    0  501 -0.00000000000E+00  0.00000000000E+00  0.12425763400E+03  0.12425763410E+03  0.50400000000E-02 0.  1.
          1   -1    0    0  501    0  0.00000000000E+00 -0.00000000000E+00 -0.17515044710E+02  0.17515045435E+02  0.50400000000E-02 0. -1.
         23    2    1    2    0    0  0.00000000000E+00  0.00000000000E+00  0.10674258929E+03  0.14177267954E+03  0.93303334855E+02 0.  0.
    9000005    2    3    3    0    0  0.36021967474E+02  0.19429830240E+02  0.86501351202E+02  0.96112979985E+02  0.89510177060E+01 0.  0.
         22    1    3    3    0    0 -0.36021967474E+02 -0.19429830240E+02  0.20241238088E+02  0.45659699553E+02  0.00000000000E+00 0. -1.
         22    1    4    4    0    0  0.69874598979E+01  0.23979013201E+01  0.24161424065E+02  0.25265568259E+02  0.00000000000E+00 0. -1.
         22    1    4    4    0    0  0.29034507577E+02  0.17031928920E+02  0.62339927137E+02  0.70847411727E+02  0.00000000000E+00 0. -1.
<mgrwt>
<rscale>  0 0.93303335E+02</rscale>
<asrwt>0</asrwt>
<pdfrwt beam="2">  1        1 0.26946223E-02 0.93303335E+02</pdfrwt>
<pdfrwt beam="1">  1       -1 0.19116560E-01 0.93303335E+02</pdfrwt>
<totfact> 0.73446539E+04</totfact>
</mgrwt>
</event>
<event>
 7    1  0.2787125E-009  0.8929139E+02  0.7818608E-02  0.1304577E+00
         -1   -1    0    0    0  501 -0.00000000000E+00  0.00000000000E+00  0.86230057877E+02  0.86230058025E+02  0.50400000000E-02 0.  1.
          1   -1    0    0  501    0  0.00000000000E+00 -0.00000000000E+00 -0.23115348468E+02  0.23115349018E+02  0.50400000000E-02 0. -1.
         23    2    1    2    0    0  0.35527136788E-14  0.71054273576E-14  0.63114709409E+02  0.10934540704E+03  0.89291385349E+02 0.  0.
    9000005    2    3    3    0    0  0.15002108169E+02  0.36168205252E+02  0.55681275044E+01  0.39740727533E+02  0.38883235865E+01 0.  0.
         22    1    3    3    0    0 -0.15002108169E+02 -0.36168205252E+02  0.57546581905E+02  0.69604679509E+02  0.00000000000E+00 0. -1.
         22    1    4    4    0    0  0.10156403452E+02  0.28720110196E+02  0.43202876219E+01  0.30767875225E+02  0.00000000000E+00 0.  1.
         22    1    4    4    0    0  0.48457047174E+01  0.74480950560E+01  0.12478398825E+01  0.89728523081E+01  0.00000000000E+00 0.  1.
<mgrwt>
<rscale>  0 0.89291385E+02</rscale>
<asrwt>0</asrwt>
<pdfrwt beam="2">  1        1 0.35562076E-02 0.89291385E+02</pdfrwt>
<pdfrwt beam="1">  1       -1 0.13266163E-01 0.89291385E+02</pdfrwt>
<totfact> 0.88164857E+04</totfact>
</mgrwt>
</event>
<event>
 7    1  0.2787125E-009  0.9073078E+02  0.7818608E-02  0.1301092E+00
         -1   -1    0    0    0  501 -0.00000000000E+00  0.00000000000E+00  0.25869311087E+02  0.25869311577E+02  0.50400000000E-02 0.  1.
          1   -1    0    0  501    0  0.00000000000E+00 -0.00000000000E+00 -0.79554442444E+02  0.79554442603E+02  0.50400000000E-02 0. -1.
         23    2    1    2    0    0  0.00000000000E+00  0.00000000000E+00 -0.53685131357E+02  0.10542375418E+03  0.90730780977E+02 0.  0.
    9000005    2    3    3    0    0 -0.22459248218E+02 -0.36700270028E+02 -0.11080735510E+02  0.44872435482E+02  0.62789422639E+01 0.  0.
         22    1    3    3    0    0  0.22459248218E+02  0.36700270028E+02 -0.42604395847E+02  0.60551318699E+02  0.00000000000E+00 0. -1.
         22    1    4    4    0    0 -0.11169703102E+02 -0.12694424821E+02 -0.53211244638E+01  0.17726394289E+02  0.00000000000E+00 0. -1.
         22    1    4    4    0    0 -0.11289545116E+02 -0.24005845208E+02 -0.57596110466E+01  0.27146041193E+02  0.00000000000E+00 0. -1.
<mgrwt>
<rscale>  0 0.90730781E+02</rscale>
<asrwt>0</asrwt>
<pdfrwt beam="2">  1        1 0.12239145E-01 0.90730781E+02</pdfrwt>
<pdfrwt beam="1">  1       -1 0.39798941E-02 0.90730781E+02</pdfrwt>
<totfact> 0.10201884E+05</totfact>
</mgrwt>
</event>
<event>
 7    1  0.2787125E-009  0.9158677E+02  0.7818608E-02  0.1299054E+00
         -1   -1    0    0    0  501 -0.00000000000E+00  0.00000000000E+00  0.41210225017E+02  0.41210225325E+02  0.50400000000E-02 0.  1.
          1   -1    0    0  501    0  0.00000000000E+00 -0.00000000000E+00 -0.50886259286E+02  0.50886259536E+02  0.50400000000E-02 0. -1.
         23    2    1    2    0    0  0.35527136788E-14  0.00000000000E+00 -0.96760342687E+01  0.92096484861E+02  0.91586772432E+02 0.  0.
    9000005    2    3    3    0    0  0.16568026464E+02  0.14226577064E+02 -0.45090202217E+02  0.50490496262E+02  0.62664887262E+01 0.  0.
         22    1    3    3    0    0 -0.16568026464E+02 -0.14226577064E+02  0.35414167948E+02  0.41605988599E+02  0.00000000000E+00 0.  1.
         22    1    4    4    0    0  0.75872262896E+01  0.88048478113E+01 -0.29423023177E+02  0.31635512334E+02  0.00000000000E+00 0. -1.
         22    1    4    4    0    0  0.89808001743E+01  0.54217292532E+01 -0.15667179039E+02  0.18854983927E+02  0.00000000000E+00 0. -1.
<mgrwt>
<rscale>  0 0.91586772E+02</rscale>
<asrwt>0</asrwt>
<pdfrwt beam="2">  1        1 0.78286553E-02 0.91586772E+02</pdfrwt>
<pdfrwt beam="1">  1       -1 0.63400347E-02 0.91586772E+02</pdfrwt>
<totfact> 0.92839336E+04</totfact>
</mgrwt>
</event>
<event>
 7    1  0.2787125E-009  0.9188800E+02  0.7818608E-02  0.1298343E+00
          1   -1    0    0  501    0  0.00000000000E+00  0.00000000000E+00  0.28149794216E+01  0.28149839335E+01  0.50400000000E-02 0. -1.
         -1   -1    0    0    0  501 -0.00000000000E+00 -0.00000000000E+00 -0.74986323150E+03  0.74986323152E+03  0.50400000000E-02 0.  1.
         23    2    1    2    0    0  0.00000000000E+00  0.00000000000E+00 -0.74704825208E+03  0.75267821545E+03  0.91888002918E+02 0.  0.
    9000005    2    3    3    0    0 -0.26517149745E+02 -0.11075497800E+01 -0.67866551007E+03  0.67932574241E+03  0.13863759958E+02 0.  0.
         22    1    3    3    0    0  0.26517149745E+02  0.11075497800E+01 -0.68382742007E+02  0.73352473043E+02  0.00000000000E+00 0. -1.
         22    1    4    4    0    0 -0.27678993980E+02 -0.27953985313E+01 -0.61848628348E+03  0.61911164083E+03  0.00000000000E+00 0. -1.
         22    1    4    4    0    0  0.11618442358E+01  0.16878487513E+01 -0.60179226590E+02  0.60214101574E+02  0.00000000000E+00 0. -1.
<mgrwt>
<rscale>  0 0.91888003E+02</rscale>
<asrwt>0</asrwt>
<pdfrwt beam="1">  1        1 0.43307470E-03 0.91888003E+02</pdfrwt>
<pdfrwt beam="2">  1       -1 0.11536342E+00 0.91888003E+02</pdfrwt>
<totfact> 0.33989915E+04</totfact>
</mgrwt>
</event>
<event>
 7    1  0.2787125E-009  0.9025600E+02  0.7818608E-02  0.1302233E+00
         -1   -1    0    0    0  501 -0.00000000000E+00  0.00000000000E+00  0.11891677783E+02  0.11891678851E+02  0.50400000000E-02 0.  1.
          1   -1    0    0  501    0  0.00000000000E+00 -0.00000000000E+00 -0.17125728697E+03  0.17125728705E+03  0.50400000000E-02 0. -1.
         23    2    1    2    0    0  0.00000000000E+00  0.55511151231E-16 -0.15936560919E+03  0.18314896590E+03  0.90256004326E+02 0.  0.
    9000005    2    3    3    0    0  0.43100931791E+02 -0.28504821905E+00 -0.10093594263E+03  0.11054182087E+03  0.13177938928E+02 0.  0.
         22    1    3    3    0    0 -0.43100931791E+02  0.28504821905E+00 -0.58429666564E+02  0.72607145024E+02  0.00000000000E+00 0.  1.
         22    1    4    4    0    0  0.21955058946E+02 -0.14892591790E+01 -0.35535987001E+02  0.41797713793E+02  0.00000000000E+00 0.  1.
         22    1    4    4    0    0  0.21145872845E+02  0.12042109600E+01 -0.65399955627E+02  0.68744107081E+02  0.00000000000E+00 0.  1.
<mgrwt>
<rscale>  0 0.90256004E+02</rscale>
<asrwt>0</asrwt>
<pdfrwt beam="2">  1        1 0.26347273E-01 0.90256004E+02</pdfrwt>
<pdfrwt beam="1">  1       -1 0.18294891E-02 0.90256004E+02</pdfrwt>
<totfact> 0.11811265E+05</totfact>
</mgrwt>
</event>
<event>
 7    1  0.2787125E-009  0.9342509E+02  0.7818608E-02  0.1294763E+00
          1   -1    0    0  501    0  0.00000000000E+00  0.00000000000E+00  0.25066944723E+03  0.25066944728E+03  0.50400000000E-02 0. -1.
         -1   -1    0    0    0  501 -0.00000000000E+00 -0.00000000000E+00 -0.87049362996E+01  0.87049377586E+01  0.50400000000E-02 0.  1.
         23    2    1    2    0    0  0.00000000000E+00  0.00000000000E+00  0.24196451093E+03  0.25937438504E+03  0.93425087983E+02 0.  0.
    9000005    2    3    3    0    0 -0.30863847476E+02  0.33697197821E+02  0.12580827594E+03  0.13455311622E+03  0.13738288396E+02 0.  0.
         22    1    3    3    0    0  0.30863847476E+02 -0.33697197821E+02  0.11615623499E+03  0.12482126882E+03  0.00000000000E+00 0. -1.
         22    1    4    4    0    0 -0.31578090293E+02  0.34405738976E+02  0.12274411454E+03  0.13132801802E+03  0.00000000000E+00 0.  1.
         22    1    4    4    0    0  0.71424281723E+00 -0.70854115555E+00  0.30641613964E+01  0.32250982054E+01  0.00000000000E+00 0.  1.
<mgrwt>
<rscale>  0 0.93425088E+02</rscale>
<asrwt>0</asrwt>
<pdfrwt beam="1">  1        1 0.38564529E-01 0.93425088E+02</pdfrwt>
<pdfrwt beam="2">  1       -1 0.13392211E-02 0.93425088E+02</pdfrwt>
<totfact> 0.11592437E+05</totfact>
</mgrwt>
</event>
<event>
 7    1  0.2787125E-009  0.9369384E+02  0.7818608E-02  0.1294145E+00
         -1   -1    0    0    0  501 -0.00000000000E+00  0.00000000000E+00  0.11139213476E+02  0.11139214616E+02  0.50400000000E-02 0.  1.
          1   -1    0    0  501    0  0.00000000000E+00 -0.00000000000E+00 -0.19701875830E+03  0.19701875836E+03  0.50400000000E-02 0. -1.
         23    2    1    2    0    0  0.00000000000E+00 -0.17763568394E-14 -0.18587954482E+03  0.20815797298E+03  0.93693844683E+02 0.  0.
    9000005    2    3    3    0    0  0.18896063429E+02 -0.13350667134E+02 -0.18305151494E+03  0.18484919182E+03  0.11227870149E+02 0.  0.
         22    1    3    3    0    0 -0.18896063429E+02  0.13350667134E+02 -0.28280298786E+01  0.23308781157E+02  0.00000000000E+00 0.  1.
         22    1    4    4    0    0  0.34177482117E+01  0.18298605777E+01 -0.21126850051E+02  0.21479599290E+02  0.00000000000E+00 0. -1.
         22    1    4    4    0    0  0.15478315217E+02 -0.15180527712E+02 -0.16192466489E+03  0.16336959253E+03  0.00000000000E+00 0. -1.
<mgrwt>
<rscale>  0 0.93693845E+02</rscale>
<asrwt>0</asrwt>
<pdfrwt beam="2">  1        1 0.30310576E-01 0.93693845E+02</pdfrwt>
<pdfrwt beam="1">  1       -1 0.17137254E-02 0.93693845E+02</pdfrwt>
<totfact> 0.10972689E+05</totfact>
</mgrwt>
</event>
<event>
 7    1  0.3278289E-009  0.9213159E+02  0.7818608E-02  0.1297770E+00
         -1   -1    0    0    0  501 -0.00000000000E+00  0.00000000000E+00  0.32484840813E+02  0.32484841204E+02  0.50400000000E-02 0.  1.
          1   -1    0    0  501    0  0.00000000000E+00 -0.00000000000E+00 -0.65324548057E+02  0.65324548252E+02  0.50400000000E-02 0. -1.
         23    2    1    2    0    0  0.17763568394E-14 -0.35527136788E-14 -0.32839707244E+02  0.97809389456E+02  0.92131592268E+02 0.  0.
    9000005    2    3    3    0    0 -0.13265446978E+02  0.26317331703E+02 -0.52606882992E+02  0.62322557130E+02  0.15749379593E+02 0.  0.
         22    1    3    3    0    0  0.13265446978E+02 -0.26317331703E+02  0.19767175748E+02  0.35486832326E+02  0.00000000000E+00 0.  1.
         22    1    4    4    0    0  0.36540031566E+01  0.42429292520E+01 -0.91629554447E+01  0.10738432855E+02  0.00000000000E+00 0. -1.
         22    1    4    4    0    0 -0.16919450135E+02  0.22074402451E+02 -0.43443927547E+02  0.51584124274E+02  0.00000000000E+00 0. -1.
<mgrwt>
<rscale>  0 0.92131592E+02</rscale>
<asrwt>0</asrwt>
<pdfrwt beam="2">  1        1 0.10049931E-01 0.92131592E+02</pdfrwt>
<pdfrwt beam="1">  1       -1 0.49976679E-02 0.92131592E+02</pdfrwt>
<totfact> 0.94848780E+04</totfact>
</mgrwt>
</event>
<event>
 7    1  0.2787125E-009  0.9636467E+02  0.7818608E-02  0.1288132E+00
          1   -1    0    0  501    0  0.00000000000E+00  0.00000000000E+00  0.11129068717E+03  0.11129068728E+03  0.50400000000E-02 0. -1.
         -1   -1    0    0    0  501 -0.00000000000E+00 -0.00000000000E+00 -0.20860122999E+02  0.20860123608E+02  0.50400000000E-02 0.  1.
         23    2    1    2    0    0  0.00000000000E+00  0.00000000000E+00  0.90430564169E+02  0.13215081089E+03  0.96364671343E+02 0.  0.
    9000005    2    3    3    0    0 -0.17025248466E+02  0.11843123307E+02  0.10413357632E+03  0.10729339355E+03  0.15425690516E+02 0.  0.
         22    1    3    3    0    0  0.17025248466E+02 -0.11843123307E+02 -0.13703012147E+02  0.24857417341E+02  0.00000000000E+00 0.  1.
         22    1    4    4    0    0 -0.96047043090E+01  0.10729952969E+02  0.91287449483E+02  0.92416344164E+02  0.00000000000E+00 0.  1.
         22    1    4    4    0    0 -0.74205441569E+01  0.11131703382E+01  0.12846126833E+02  0.14877049385E+02  0.00000000000E+00 0.  1.
<mgrwt>
<rscale>  0 0.96364671E+02</rscale>
<asrwt>0</asrwt>
<pdfrwt beam="1">  1        1 0.17121644E-01 0.96364671E+02</pdfrwt>
<pdfrwt beam="2">  1       -1 0.32092498E-02 0.96364671E+02</pdfrwt>
<totfact> 0.91440903E+04</totfact>
</mgrwt>
</event>
<event>
 7    1  0.2787125E-009  0.9156451E+02  0.7818608E-02  0.1299107E+00
          1   -1    0    0  501    0  0.00000000000E+00  0.00000000000E+00  0.15375986084E+01  0.15376068686E+01  0.50400000000E-02 0. -1.
         -1   -1    0    0    0  501 -0.00000000000E+00 -0.00000000000E+00 -0.13631707175E+04  0.13631707176E+04  0.50400000000E-02 0.  1.
         23    2    1    2    0    0  0.44408920985E-15 -0.35527136788E-14 -0.13616331189E+04  0.13647083244E+04  0.91564513673E+02 0.  0.
    9000005    2    3    3    0    0 -0.10369394578E+01 -0.29600364620E+02 -0.11977287195E+04  0.11981492989E+04  0.11419286512E+02 0.  0.
         22    1    3    3    0    0  0.10369394578E+01  0.29600364620E+02 -0.16390439940E+03  0.16655902549E+03  0.00000000000E+00 0. -1.
         22    1    4    4    0    0 -0.61858645471E+01 -0.18213061500E+02 -0.71020467998E+03  0.71046510681E+03  0.00000000000E+00 0.  1.
         22    1    4    4    0    0  0.51489250893E+01 -0.11387303120E+02 -0.48752403955E+03  0.48768419212E+03  0.00000000000E+00 0.  1.
<mgrwt>
<rscale>  0 0.91564514E+02</rscale>
<asrwt>0</asrwt>
<pdfrwt beam="1">  1        1 0.23655536E-03 0.91564514E+02</pdfrwt>
<pdfrwt beam="2">  1       -1 0.20971761E+00 0.91564514E+02</pdfrwt>
<totfact> 0.16228772E+04</totfact>
</mgrwt>
</event>
<event>
 7    1  0.2787125E-009  0.9194126E+02  0.7818608E-02  0.1298218E+00
          1   -1    0    0  501    0  0.00000000000E+00  0.00000000000E+00  0.11536578449E+02  0.11536579549E+02  0.50400000000E-02 0. -1.
         -1   -1    0    0    0  501 -0.00000000000E+00 -0.00000000000E+00 -0.18318245308E+03  0.18318245315E+03  0.50400000000E-02 0.  1.
         23    2    1    2    0    0  0.00000000000E+00  0.00000000000E+00 -0.17164587463E+03  0.19471903269E+03  0.91941260688E+02 0.  0.
    9000005    2    3    3    0    0  0.16886648260E+02  0.41910552936E+02 -0.75245547300E+02  0.88254595225E+02  0.92373076759E+01 0.  0.
         22    1    3    3    0    0 -0.16886648260E+02 -0.41910552936E+02 -0.96400327328E+02  0.10646443747E+03  0.00000000000E+00 0.  1.
         22    1    4    4    0    0  0.71286696266E+01  0.13799072050E+02 -0.34157988755E+02  0.37523332953E+02  0.00000000000E+00 0. -1.
         22    1    4    4    0    0  0.97579786329E+01  0.28111480886E+02 -0.41087558545E+02  0.50731262273E+02  0.00000000000E+00 0. -1.
<mgrwt>
<rscale>  0 0.91941261E+02</rscale>
<asrwt>0</asrwt>
<pdfrwt beam="1">  1        1 0.17748584E-02 0.91941261E+02</pdfrwt>
<pdfrwt beam="2">  1       -1 0.28181914E-01 0.91941261E+02</pdfrwt>
<totfact> 0.69604996E+04</totfact>
</mgrwt>
</event>
<event>
 7    1  0.2787125E-009  0.9232246E+02  0.7818608E-02  0.1297323E+00
         -1   -1    0    0    0  501 -0.00000000000E+00  0.00000000000E+00  0.56253638745E+03  0.56253638747E+03  0.50400000000E-02 0.  1.
          1   -1    0    0  501    0  0.00000000000E+00 -0.00000000000E+00 -0.37879472970E+01  0.37879506499E+01  0.50400000000E-02 0. -1.
         23    2    1    2    0    0  0.55511151231E-16  0.00000000000E+00  0.55874844015E+03  0.56632433812E+03  0.92322459762E+02 0.  0.
    9000005    2    3    3    0    0 -0.46136836788E+00 -0.43102439087E+02  0.38045607440E+03  0.38289533059E+03  0.19941236755E+01 0.  0.
         22    1    3    3    0    0  0.46136836788E+00  0.43102439087E+02  0.17829236576E+03  0.18342900753E+03  0.00000000000E+00 0. -1.
         22    1    4    4    0    0 -0.62500455479E+00 -0.21373806978E+02  0.18058423007E+03  0.18184579842E+03  0.00000000000E+00 0. -1.
         22    1    4    4    0    0  0.16363618690E+00 -0.21728632108E+02  0.19987184433E+03  0.20104953217E+03  0.00000000000E+00 0. -1.
<mgrwt>
<rscale>  0 0.92322460E+02</rscale>
<asrwt>0</asrwt>
<pdfrwt beam="2">  1        1 0.58276124E-03 0.92322460E+02</pdfrwt>
<pdfrwt beam="1">  1       -1 0.86544081E-01 0.92322460E+02</pdfrwt>
<totfact> 0.42158496E+04</totfact>
</mgrwt>
</event>
<event>
 7    1  0.2787125E-009  0.1003394E+03  0.7818608E-02  0.1279584E+00
          1   -1    0    0  501    0  0.00000000000E+00  0.00000000000E+00  0.54029216282E+02  0.54029216517E+02  0.50400000000E-02 0. -1.
         -1   -1    0    0    0  501 -0.00000000000E+00 -0.00000000000E+00 -0.46585924472E+02  0.46585924744E+02  0.50400000000E-02 0.  1.
         23    2    1    2    0    0 -0.35527136788E-14  0.00000000000E+00  0.74432918103E+01  0.10061514126E+03  0.10033944418E+03 0.  0.
    9000005    2    3    3    0    0 -0.19934054051E+02 -0.39013371822E+02 -0.20013797373E+02  0.48911162321E+02  0.85052937876E+01 0.  0.
         22    1    3    3    0    0  0.19934054051E+02  0.39013371822E+02  0.27457089184E+02  0.51703978941E+02  0.00000000000E+00 0. -1.
         22    1    4    4    0    0 -0.15887774458E+02 -0.25812561543E+02 -0.17096091375E+02  0.34799224861E+02  0.00000000000E+00 0. -1.
         22    1    4    4    0    0 -0.40462795931E+01 -0.13200810279E+02 -0.29177059987E+01  0.14111937459E+02  0.00000000000E+00 0. -1.
<mgrwt>
<rscale>  0 0.10033944E+03</rscale>
<asrwt>0</asrwt>
<pdfrwt beam="1">  1        1 0.83121871E-02 0.10033944E+03</pdfrwt>
<pdfrwt beam="2">  1       -1 0.71670654E-02 0.10033944E+03</pdfrwt>
<totfact> 0.72489247E+04</totfact>
</mgrwt>
</event>
<event>
 7    1  0.2787125E-009  0.8857281E+02  0.7818608E-02  0.1306345E+00
          1   -1    0    0  501    0  0.00000000000E+00  0.00000000000E+00  0.19941186630E+03  0.19941186637E+03  0.50400000000E-02 0. -1.
         -1   -1    0    0    0  501 -0.00000000000E+00 -0.00000000000E+00 -0.98353495258E+01  0.98353508171E+01  0.50400000000E-02 0.  1.
         23    2    1    2    0    0  0.44408920985E-15  0.35527136788E-14  0.18957651678E+03  0.20924721718E+03  0.88572807259E+02 0.  0.
    9000005    2    3    3    0    0  0.30668832887E+01  0.29036913147E+02  0.17274559051E+03  0.17554516714E+03  0.11068810549E+02 0.  0.
         22    1    3    3    0    0 -0.30668832887E+01 -0.29036913147E+02  0.16830926267E+02  0.33702050045E+02  0.00000000000E+00 0.  1.
         22    1    4    4    0    0  0.87271932261E+00 -0.47420981166E+00  0.17888312757E+01  0.20460770500E+01  0.00000000000E+00 0.  1.
         22    1    4    4    0    0  0.21941639661E+01  0.29511122959E+02  0.17095675923E+03  0.17349909009E+03  0.00000000000E+00 0.  1.
<mgrwt>
<rscale>  0 0.88572807E+02</rscale>
<asrwt>0</asrwt>
<pdfrwt beam="1">  1        1 0.30678748E-01 0.88572807E+02</pdfrwt>
<pdfrwt beam="2">  1       -1 0.15131308E-02 0.88572807E+02</pdfrwt>
<totfact> 0.12787934E+05</totfact>
</mgrwt>
</event>
<event>
 7    1  0.2787125E-009  0.9066282E+02  0.7818608E-02  0.1301254E+00
          1   -1    0    0  501    0  0.00000000000E+00  0.00000000000E+00  0.83730660100E+01  0.83730675269E+01  0.50400000000E-02 0. -1.
         -1   -1    0    0    0  501 -0.00000000000E+00 -0.00000000000E+00 -0.24542222881E+03  0.24542222886E+03  0.50400000000E-02 0.  1.
         23    2    1    2    0    0  0.00000000000E+00  0.00000000000E+00 -0.23704916280E+03  0.25379529639E+03  0.90662819748E+02 0.  0.
    9000005    2    3    3    0    0 -0.27641202121E+02 -0.30404140052E+02 -0.74776993591E+02  0.86401435430E+02  0.13607405586E+02 0.  0.
         22    1    3    3    0    0  0.27641202121E+02  0.30404140052E+02 -0.16227216921E+03  0.16739386096E+03  0.00000000000E+00 0.  1.
         22    1    4    4    0    0 -0.17537779065E+02 -0.24674830903E+02 -0.62810724161E+02  0.69725232479E+02  0.00000000000E+00 0. -1.
         22    1    4    4    0    0 -0.10103423056E+02 -0.57293091487E+01 -0.11966269430E+02  0.16676202951E+02  0.00000000000E+00 0. -1.
<mgrwt>
<rscale>  0 0.90662820E+02</rscale>
<asrwt>0</asrwt>
<pdfrwt beam="1">  1        1 0.12881643E-02 0.90662820E+02</pdfrwt>
<pdfrwt beam="2">  1       -1 0.37757261E-01 0.90662820E+02</pdfrwt>
<totfact> 0.66137397E+04</totfact>
</mgrwt>
</event>
<event>
 7    1  0.2787125E-009  0.1045914E+03  0.7818608E-02  0.1270927E+00
          1   -1    0    0  501    0  0.00000000000E+00  0.00000000000E+00  0.17188265867E+03  0.17188265875E+03  0.50400000000E-02 0. -1.
         -1   -1    0    0    0  501 -0.00000000000E+00 -0.00000000000E+00 -0.15911097567E+02  0.15911098365E+02  0.50400000000E-02 0.  1.
         23    2    1    2    0    0  0.00000000000E+00  0.00000000000E+00  0.15597156110E+03  0.18779375711E+03  0.10459143051E+03 0.  0.
    9000005    2    3    3    0    0  0.17687813918E+02  0.35993600138E+02  0.13722601488E+03  0.14352420193E+03  0.12641968596E+02 0.  0.
         22    1    3    3    0    0 -0.17687813918E+02 -0.35993600138E+02  0.18745546229E+02  0.44269555176E+02  0.00000000000E+00 0.  1.
         22    1    4    4    0    0  0.81792996906E+01  0.28934646017E+02  0.10351458148E+03  0.10779324312E+03  0.00000000000E+00 0. -1.
         22    1    4    4    0    0  0.95085142269E+01  0.70589541211E+01  0.33711433395E+02  0.35730958812E+02  0.00000000000E+00 0. -1.
<mgrwt>
<rscale>  0 0.10459143E+03</rscale>
<asrwt>0</asrwt>
<pdfrwt beam="1">  1        1 0.26443484E-01 0.10459143E+03</pdfrwt>
<pdfrwt beam="2">  1       -1 0.24478614E-02 0.10459143E+03</pdfrwt>
<totfact> 0.79261056E+04</totfact>
</mgrwt>
</event>
<event>
 7    1  0.2787125E-009  0.9176683E+02  0.7818608E-02  0.1298629E+00
         -1   -1    0    0    0  501 -0.00000000000E+00  0.00000000000E+00  0.82674033779E+01  0.82674049142E+01  0.50400000000E-02 0.  1.
          1   -1    0    0  501    0  0.00000000000E+00 -0.00000000000E+00 -0.25464921032E+03  0.25464921037E+03  0.50400000000E-02 0. -1.
         23    2    1    2    0    0  0.00000000000E+00  0.00000000000E+00 -0.24638180694E+03  0.26291661528E+03  0.91766833880E+02 0.  0.
    9000005    2    3    3    0    0 -0.31075806631E+02  0.32456097646E+02 -0.11650709010E+03  0.12548828448E+03  0.12421894645E+02 0.  0.
         22    1    3    3    0    0  0.31075806631E+02 -0.32456097646E+02 -0.12987471684E+03  0.13742833080E+03  0.00000000000E+00 0.  1.
         22    1    4    4    0    0 -0.26366557018E+01  0.19642475329E+01 -0.26064531229E+01  0.41956905918E+01  0.00000000000E+00 0.  1.
         22    1    4    4    0    0 -0.28439150929E+02  0.30491850113E+02 -0.11390063697E+03  0.12129259389E+03  0.00000000000E+00 0.  1.
<mgrwt>
<rscale>  0 0.91766834E+02</rscale>
<asrwt>0</asrwt>
<pdfrwt beam="2">  1        1 0.39176796E-01 0.91766834E+02</pdfrwt>
<pdfrwt beam="1">  1       -1 0.12719085E-02 0.91766834E+02</pdfrwt>
<totfact> 0.12199232E+05</totfact>
</mgrwt>
</event>
<event>
 7    1  0.2787125E-009  0.9370124E+02  0.7818608E-02  0.1294128E+00
          1   -1    0    0  501    0  0.00000000000E+00  0.00000000000E+00  0.25568085609E+03  0.25568085614E+03  0.50400000000E-02 0. -1.
         -1   -1    0    0    0  501 -0.00000000000E+00 -0.00000000000E+00 -0.85848449629E+01  0.85848464424E+01  0.50400000000E-02 0.  1.
         23    2    1    2    0    0  0.00000000000E+00  0.00000000000E+00  0.24709601113E+03  0.26426570258E+03  0.93701242502E+02 0.  0.
    9000005    2    3    3    0    0  0.43364174513E+02 -0.50228589655E+01  0.16725574422E+03  0.17327037873E+03  0.11935636855E+02 0.  0.
         22    1    3    3    0    0 -0.43364174513E+02  0.50228589655E+01  0.79840266912E+02  0.90995323858E+02  0.00000000000E+00 0. -1.
         22    1    4    4    0    0  0.18449829672E+02 -0.79083347476E+01  0.68612508525E+02  0.71488560620E+02  0.00000000000E+00 0. -1.
         22    1    4    4    0    0  0.24914344841E+02  0.28854757820E+01  0.98643235693E+02  0.10178181811E+03  0.00000000000E+00 0. -1.
<mgrwt>
<rscale>  0 0.93701243E+02</rscale>
<asrwt>0</asrwt>
<pdfrwt beam="1">  1        1 0.39335515E-01 0.93701243E+02</pdfrwt>
<pdfrwt beam="2">  1       -1 0.13207455E-02 0.93701243E+02</pdfrwt>
<totfact> 0.11545735E+05</totfact>
</mgrwt>
</event>
<event>
 7    1  0.2787125E-009  0.9073072E+02  0.7818608E-02  0.1301092E+00
         -1   -1    0    0    0  501 -0.00000000000E+00  0.00000000000E+00  0.97900113327E+01  0.97900126300E+01  0.50400000000E-02 0.  1.
          1   -1    0    0  501    0  0.00000000000E+00 -0.00000000000E+00 -0.21021585237E+03  0.21021585243E+03  0.50400000000E-02 0. -1.
         23    2    1    2    0    0  0.00000000000E+00  0.00000000000E+00 -0.20042584104E+03  0.22000586506E+03  0.90730716439E+02 0.  0.
    9000005    2    3    3    0    0  0.11552088891E+01 -0.40190094973E+02 -0.51114987321E+02  0.65376277727E+02  0.66886111441E+01 0.  0.
         22    1    3    3    0    0 -0.11552088891E+01  0.40190094973E+02 -0.14931085372E+03  0.15462958734E+03  0.00000000000E+00 0. -1.
         22    1    4    4    0    0 -0.24973486055E+01 -0.24547552968E+02 -0.29912515234E+02  0.38775993532E+02  0.00000000000E+00 0. -1.
         22    1    4    4    0    0  0.36525574945E+01 -0.15642542006E+02 -0.21202472087E+02  0.26600284195E+02  0.00000000000E+00 0. -1.
<mgrwt>
<rscale>  0 0.90730716E+02</rscale>
<asrwt>0</asrwt>
<pdfrwt beam="2">  1        1 0.32340897E-01 0.90730716E+02</pdfrwt>
<pdfrwt beam="1">  1       -1 0.15061559E-02 0.90730716E+02</pdfrwt>
<totfact> 0.12113889E+05</totfact>
</mgrwt>
</event>
<event>
 7    1  0.2787125E-009  0.8999983E+02  0.7818608E-02  0.1302852E+00
          1   -1    0    0  501    0  0.00000000000E+00  0.00000000000E+00  0.26877865109E+03  0.26877865113E+03  0.50400000000E-02 0. -1.
         -1   -1    0    0    0  501 -0.00000000000E+00 -0.00000000000E+00 -0.75340509152E+01  0.75340526010E+01  0.50400000000E-02 0.  1.
         23    2    1    2    0    0 -0.35527136788E-14  0.00000000000E+00  0.26124460017E+03  0.27631270373E+03  0.89999828481E+02 0.  0.
    9000005    2    3    3    0    0 -0.16880913057E+02 -0.32502894563E+02  0.20996489114E+03  0.21329673799E+03  0.82969599544E+01 0.  0.
         22    1    3    3    0    0  0.16880913057E+02  0.32502894563E+02  0.51279709030E+02  0.63015965745E+02  0.00000000000E+00 0.  1.
         22    1    4    4    0    0 -0.79660135402E+01 -0.22269790140E+02  0.14649991364E+03  0.14839685179E+03  0.00000000000E+00 0. -1.
         22    1    4    4    0    0 -0.89148995165E+01 -0.10233104423E+02  0.63464977500E+02  0.64899886199E+02  0.00000000000E+00 0. -1.
<mgrwt>
<rscale>  0 0.89999828E+02</rscale>
<asrwt>0</asrwt>
<pdfrwt beam="1">  1        1 0.41350556E-01 0.89999828E+02</pdfrwt>
<pdfrwt beam="2">  1       -1 0.11590851E-02 0.89999828E+02</pdfrwt>
<totfact> 0.12985141E+05</totfact>
</mgrwt>
</event>
<event>
 7    1  0.2787125E-009  0.9315695E+02  0.7818608E-02  0.1295382E+00
         -1   -1    0    0    0  501 -0.00000000000E+00  0.00000000000E+00  0.12537343589E+02  0.12537344602E+02  0.50400000000E-02 0.  1.
          1   -1    0    0  501    0  0.00000000000E+00 -0.00000000000E+00 -0.17304737144E+03  0.17304737152E+03  0.50400000000E-02 0. -1.
         23    2    1    2    0    0  0.00000000000E+00  0.00000000000E+00 -0.16051002786E+03  0.18558471612E+03  0.93156952585E+02 0.  0.
    9000005    2    3    3    0    0 -0.13837654357E+02  0.10244482163E+02 -0.16594691323E+03  0.16752952807E+03  0.15209690037E+02 0.  0.
         22    1    3    3    0    0  0.13837654357E+02 -0.10244482163E+02  0.54368853769E+01  0.18055188050E+02  0.00000000000E+00 0.  1.
         22    1    4    4    0    0 -0.16920508853E+02  0.98358397328E+01 -0.15095599012E+03  0.15221944132E+03  0.00000000000E+00 0.  1.
         22    1    4    4    0    0  0.30828544959E+01  0.40864243020E+00 -0.14990923110E+02  0.15310086746E+02  0.00000000000E+00 0.  1.
<mgrwt>
<rscale>  0 0.93156953E+02</rscale>
<asrwt>0</asrwt>
<pdfrwt beam="2">  1        1 0.26622671E-01 0.93156953E+02</pdfrwt>
<pdfrwt beam="1">  1       -1 0.19288223E-02 0.93156953E+02</pdfrwt>
<totfact> 0.10868294E+05</totfact>
</mgrwt>
</event>
<event>
 7    1  0.2787125E-009  0.8979618E+02  0.7818608E-02  0.1303346E+00
          1   -1    0    0  501    0  0.00000000000E+00  0.00000000000E+00  0.28582745500E+02  0.28582745944E+02  0.50400000000E-02 0. -1.
         -1   -1    0    0    0  501 -0.00000000000E+00 -0.00000000000E+00 -0.70526411836E+02  0.70526412016E+02  0.50400000000E-02 0.  1.
         23    2    1    2    0    0  0.16653345369E-15  0.00000000000E+00 -0.41943666336E+02  0.99109157960E+02  0.89796180575E+02 0.  0.
    9000005    2    3    3    0    0 -0.30208006650E+00  0.43441593368E+02 -0.30066698433E+02  0.54072221416E+02  0.11512405805E+02 0.  0.
         22    1    3    3    0    0  0.30208006650E+00 -0.43441593368E+02 -0.11876967903E+02  0.45036936544E+02  0.00000000000E+00 0. -1.
         22    1    4    4    0    0 -0.26022823984E+01  0.22111426369E+02 -0.90304256541E+01  0.24025728652E+02  0.00000000000E+00 0.  1.
         22    1    4    4    0    0  0.23002023319E+01  0.21330166999E+02 -0.21036272779E+02  0.30046492764E+02  0.00000000000E+00 0.  1.
<mgrwt>
<rscale>  0 0.89796181E+02</rscale>
<asrwt>0</asrwt>
<pdfrwt beam="1">  1        1 0.43973455E-02 0.89796181E+02</pdfrwt>
<pdfrwt beam="2">  1       -1 0.10850217E-01 0.89796181E+02</pdfrwt>
<totfact> 0.89860290E+04</totfact>
</mgrwt>
</event>
<event>
 6    1  0.3039159E-009  0.1487549E+03  0.7818608E-02  0.1202011E+00
          1   -1    0    0  501    0  0.00000000000E+00  0.00000000000E+00  0.92554823983E+02  0.92554824120E+02  0.50400000000E-02 0. -1.
         -1   -1    0    0    0  501 -0.00000000000E+00 -0.00000000000E+00 -0.59770074824E+02  0.59770075037E+02  0.50400000000E-02 0.  1.
    9000005    2    1    2    0    0 -0.27611302545E+02 -0.11280109250E+02 -0.52691188742E+02  0.61794457576E+02  0.12351871241E+02 0.  0.
         22    1    1    2    0    0  0.27611302545E+02  0.11280109250E+02  0.85475937900E+02  0.90530441581E+02  0.00000000000E+00 0. -1.
         22    1    3    3    0    0 -0.88469632494E+01 -0.99802666563E+01 -0.24698460228E+02  0.28069350169E+02  0.00000000000E+00 0. -1.
         22    1    3    3    0    0 -0.18764339296E+02 -0.12998425940E+01 -0.27992728514E+02  0.33725107407E+02  0.00000000000E+00 0. -1.
<mgrwt>
<rscale>  0 0.14875495E+03</rscale>
<asrwt>0</asrwt>
<pdfrwt beam="1">  1        1 0.14239204E-01 0.14875495E+03</pdfrwt>
<pdfrwt beam="2">  1       -1 0.91953961E-02 0.14875495E+03</pdfrwt>
<totfact> 0.25779715E+04</totfact>
</mgrwt>
</event>
<event>
 7    1  0.2787125E-009  0.8884503E+02  0.7818608E-02  0.1305673E+00
          1   -1    0    0  501    0  0.00000000000E+00  0.00000000000E+00  0.11359008875E+03  0.11359008887E+03  0.50400000000E-02 0. -1.
         -1   -1    0    0    0  501 -0.00000000000E+00 -0.00000000000E+00 -0.17372641690E+02  0.17372642421E+02  0.50400000000E-02 0.  1.
         23    2    1    2    0    0  0.00000000000E+00  0.00000000000E+00  0.96217447065E+02  0.13096273129E+03  0.88845032875E+02 0.  0.
    9000005    2    3    3    0    0 -0.11320523819E+02  0.41712208953E+02  0.52321884410E+02  0.69360109135E+02  0.14324193371E+02 0.  0.
         22    1    3    3    0    0  0.11320523819E+02 -0.41712208953E+02  0.43895562655E+02  0.61602622152E+02  0.00000000000E+00 0.  1.
         22    1    4    4    0    0 -0.11705873697E+02  0.41731175242E+02  0.53069224026E+02  0.68519055778E+02  0.00000000000E+00 0. -1.
         22    1    4    4    0    0  0.38534987727E+00 -0.18966288952E-01 -0.74733961557E+00  0.84105335683E+00  0.00000000000E+00 0. -1.
<mgrwt>
<rscale>  0 0.88845033E+02</rscale>
<asrwt>0</asrwt>
<pdfrwt beam="1">  1        1 0.17475398E-01 0.88845033E+02</pdfrwt>
<pdfrwt beam="2">  1       -1 0.26727143E-02 0.88845033E+02</pdfrwt>
<totfact> 0.11448376E+05</totfact>
</mgrwt>
</event>
<event>
 7    1  0.2787125E-009  0.9171402E+02  0.7818608E-02  0.1298753E+00
         -1   -1    0    0    0  501 -0.00000000000E+00  0.00000000000E+00  0.28071522458E+02  0.28071522911E+02  0.50400000000E-02 0.  1.
          1   -1    0    0  501    0  0.00000000000E+00 -0.00000000000E+00 -0.74910985318E+02  0.74910985488E+02  0.50400000000E-02 0. -1.
         23    2    1    2    0    0  0.00000000000E+00  0.00000000000E+00 -0.46839462860E+02  0.10298250840E+03  0.91714021584E+02 0.  0.
    9000005    2    3    3    0    0 -0.33291439406E+02 -0.20252819966E+02  0.48572648089E+00  0.41678591717E+02  0.14777429513E+02 0.  0.
         22    1    3    3    0    0  0.33291439406E+02  0.20252819966E+02 -0.47325189341E+02  0.61303916681E+02  0.00000000000E+00 0. -1.
         22    1    4    4    0    0 -0.25173419200E+02 -0.75930914643E+01  0.28773907131E+01  0.26450622857E+02  0.00000000000E+00 0. -1.
         22    1    4    4    0    0 -0.81180202059E+01 -0.12659728502E+02 -0.23916642322E+01  0.15227968860E+02  0.00000000000E+00 0. -1.
<mgrwt>
<rscale>  0 0.91714022E+02</rscale>
<asrwt>0</asrwt>
<pdfrwt beam="2">  1        1 0.11524767E-01 0.91714022E+02</pdfrwt>
<pdfrwt beam="1">  1       -1 0.43186958E-02 0.91714022E+02</pdfrwt>
<totfact> 0.98109983E+04</totfact>
</mgrwt>
</event>
<event>
 7    1  0.2787125E-009  0.9040192E+02  0.7818608E-02  0.1301881E+00
          1   -1    0    0  501    0  0.00000000000E+00  0.00000000000E+00  0.10333410366E+03  0.10333410378E+03  0.50400000000E-02 0. -1.
         -1   -1    0    0    0  501 -0.00000000000E+00 -0.00000000000E+00 -0.19772047778E+02  0.19772048420E+02  0.50400000000E-02 0.  1.
         23    2    1    2    0    0  0.00000000000E+00  0.00000000000E+00  0.83562055879E+02  0.12310615220E+03  0.90401922142E+02 0.  0.
    9000005    2    3    3    0    0  0.17009261537E+02  0.33660626199E+02  0.90172005804E+01  0.39564018007E+02  0.78516801029E+01 0.  0.
         22    1    3    3    0    0 -0.17009261537E+02 -0.33660626199E+02  0.74544855298E+02  0.83542134193E+02  0.00000000000E+00 0. -1.
         22    1    4    4    0    0  0.12963263154E+02  0.27280596551E+02  0.39357021733E+01  0.30459266100E+02  0.00000000000E+00 0. -1.
         22    1    4    4    0    0  0.40459983834E+01  0.63800296476E+01  0.50814984072E+01  0.91047519068E+01  0.00000000000E+00 0. -1.
<mgrwt>
<rscale>  0 0.90401922E+02</rscale>
<asrwt>0</asrwt>
<pdfrwt beam="1">  1        1 0.15897555E-01 0.90401922E+02</pdfrwt>
<pdfrwt beam="2">  1       -1 0.30418535E-02 0.90401922E+02</pdfrwt>
<totfact> 0.10749230E+05</totfact>
</mgrwt>
</event>
<event>
 7    1  0.2787125E-009  0.9032968E+02  0.7818608E-02  0.1302055E+00
          1   -1    0    0  501    0  0.00000000000E+00  0.00000000000E+00  0.96689878626E+01  0.96689891761E+01  0.50400000000E-02 0. -1.
         -1   -1    0    0    0  501 -0.00000000000E+00 -0.00000000000E+00 -0.21096960448E+03  0.21096960454E+03  0.50400000000E-02 0.  1.
         23    2    1    2    0    0  0.00000000000E+00 -0.35527136788E-14 -0.20130061662E+03  0.22063859371E+03  0.90329678326E+02 0.  0.
    9000005    2    3    3    0    0 -0.16171723684E+02 -0.26509820978E+02 -0.18016607445E+03  0.18307579127E+03  0.96247446437E+01 0.  0.
         22    1    3    3    0    0  0.16171723684E+02  0.26509820978E+02 -0.21134542163E+02  0.37562802446E+02  0.00000000000E+00 0. -1.
         22    1    4    4    0    0 -0.39736424278E+01 -0.33984964319E+01 -0.15734378680E+02  0.16580418710E+02  0.00000000000E+00 0.  1.
         22    1    4    4    0    0 -0.12198081257E+02 -0.23111324546E+02 -0.16443169577E+03  0.16649537256E+03  0.00000000000E+00 0.  1.
<mgrwt>
<rscale>  0 0.90329678E+02</rscale>
<asrwt>0</asrwt>
<pdfrwt beam="1">  1        1 0.14875369E-02 0.90329678E+02</pdfrwt>
<pdfrwt beam="2">  1       -1 0.32456859E-01 0.90329678E+02</pdfrwt>
<totfact> 0.70033908E+04</totfact>
</mgrwt>
</event>
<event>
 7    1  0.3899818E-009  0.9155267E+02  0.7818608E-02  0.1299135E+00
         -1   -1    0    0    0  501 -0.00000000000E+00  0.00000000000E+00  0.65890645006E+02  0.65890645199E+02  0.50400000000E-02 0.  1.
          1   -1    0    0  501    0  0.00000000000E+00 -0.00000000000E+00 -0.31802284439E+02  0.31802284838E+02  0.50400000000E-02 0. -1.
         23    2    1    2    0    0  0.00000000000E+00  0.00000000000E+00  0.34088360567E+02  0.97692930037E+02  0.91552674746E+02 0.  0.
    9000005    2    3    3    0    0  0.51732465920E+01  0.15526865009E+02  0.62290279184E+02  0.65086270732E+02  0.93966876940E+01 0.  0.
         22    1    3    3    0    0 -0.51732465920E+01 -0.15526865009E+02 -0.28201918617E+02  0.32606659305E+02  0.00000000000E+00 0. -1.
         22    1    4    4    0    0 -0.18711566487E+01  0.92160252327E+01  0.30002844927E+02  0.31442122256E+02  0.00000000000E+00 0.  1.
         22    1    4    4    0    0  0.70444032407E+01  0.63108397765E+01  0.32287434258E+02  0.33644148476E+02  0.00000000000E+00 0.  1.
<mgrwt>
<rscale>  0 0.91552675E+02</rscale>
<asrwt>0</asrwt>
<pdfrwt beam="2">  1        1 0.48926592E-02 0.91552675E+02</pdfrwt>
<pdfrwt beam="1">  1       -1 0.10137022E-01 0.91552675E+02</pdfrwt>
<totfact> 0.86472465E+04</totfact>
</mgrwt>
</event>
<event>
 7    1  0.2787125E-009  0.9164766E+02  0.7818608E-02  0.1298910E+00
          1   -1    0    0  501    0  0.00000000000E+00  0.00000000000E+00  0.66324575427E+03  0.66324575429E+03  0.50400000000E-02 0. -1.
         -1   -1    0    0    0  501 -0.00000000000E+00 -0.00000000000E+00 -0.31659791421E+01  0.31659831537E+01  0.50400000000E-02 0.  1.
         23    2    1    2    0    0  0.17763568394E-14  0.00000000000E+00  0.66007977513E+03  0.66641173744E+03  0.91647663739E+02 0.  0.
    9000005    2    3    3    0    0  0.98105868193E+01  0.19473525478E+02  0.62236751008E+03  0.62284935983E+03  0.11159822100E+02 0.  0.
         22    1    3    3    0    0 -0.98105868193E+01 -0.19473525478E+02  0.37712265052E+02  0.43562377617E+02  0.00000000000E+00 0.  1.
         22    1    4    4    0    0  0.99590746087E+00  0.98467811404E+00  0.18235292655E+03  0.18235830456E+03  0.00000000000E+00 0.  1.
         22    1    4    4    0    0  0.88146793584E+01  0.18488847364E+02  0.44001458353E+03  0.44049105527E+03  0.00000000000E+00 0.  1.
<mgrwt>
<rscale>  0 0.91647664E+02</rscale>
<asrwt>0</asrwt>
<pdfrwt beam="1">  1        1 0.10203795E+00 0.91647664E+02</pdfrwt>
<pdfrwt beam="2">  1       -1 0.48707334E-03 0.91647664E+02</pdfrwt>
<totfact> 0.14021929E+05</totfact>
</mgrwt>
</event>
<event>
 7    1  0.2787125E-009  0.9420727E+02  0.7818608E-02  0.1292972E+00
          1   -1    0    0  501    0  0.00000000000E+00  0.00000000000E+00  0.22869706888E+02  0.22869707443E+02  0.50400000000E-02 0. -1.
         -1   -1    0    0    0  501 -0.00000000000E+00 -0.00000000000E+00 -0.97017085979E+02  0.97017086110E+02  0.50400000000E-02 0.  1.
         23    2    1    2    0    0 -0.35527136788E-14  0.00000000000E+00 -0.74147379092E+02  0.11988679355E+03  0.94207268522E+02 0.  0.
    9000005    2    3    3    0    0  0.31658543744E+02  0.92329080195E+01  0.45047738075E+01  0.34600973289E+02  0.94564466389E+01 0.  0.
         22    1    3    3    0    0 -0.31658543744E+02 -0.92329080195E+01 -0.78652152899E+02  0.85285820264E+02  0.00000000000E+00 0.  1.
         22    1    4    4    0    0  0.93006385997E+01  0.10462219197E+01 -0.26720041424E+01  0.97332453377E+01  0.00000000000E+00 0.  1.
         22    1    4    4    0    0  0.22357905144E+02  0.81866860998E+01  0.71767779500E+01  0.24867727951E+02  0.00000000000E+00 0.  1.
<mgrwt>
<rscale>  0 0.94207269E+02</rscale>
<asrwt>0</asrwt>
<pdfrwt beam="1">  1        1 0.35184166E-02 0.94207269E+02</pdfrwt>
<pdfrwt beam="2">  1       -1 0.14925705E-01 0.94207269E+02</pdfrwt>
<totfact> 0.75214986E+04</totfact>
</mgrwt>
</event>
<event>
 7    1  0.2787125E-009  0.8840365E+02  0.7818608E-02  0.1306764E+00
          1   -1    0    0  501    0  0.00000000000E+00  0.00000000000E+00  0.73105756080E+02  0.73105756254E+02  0.50400000000E-02 0. -1.
         -1   -1    0    0    0  501 -0.00000000000E+00 -0.00000000000E+00 -0.26725684715E+02  0.26725685190E+02  0.50400000000E-02 0.  1.
         23    2    1    2    0    0  0.00000000000E+00  0.00000000000E+00  0.46380071365E+02  0.99831441444E+02  0.88403651967E+02 0.  0.
    9000005    2    3    3    0    0 -0.39063749648E+01  0.38624886586E+02  0.92853195862E-02  0.39355070624E+02  0.64559947653E+01 0.  0.
         22    1    3    3    0    0  0.39063749648E+01 -0.38624886586E+02  0.46370786045E+02  0.60476370821E+02  0.00000000000E+00 0. -1.
         22    1    4    4    0    0 -0.46403330896E+01  0.26630802662E+02 -0.22591974017E+01  0.27126303001E+02  0.00000000000E+00 0. -1.
         22    1    4    4    0    0  0.73395812482E+00  0.11994083924E+02  0.22684827213E+01  0.12228767623E+02  0.00000000000E+00 0. -1.
<mgrwt>
<rscale>  0 0.88403652E+02</rscale>
<asrwt>0</asrwt>
<pdfrwt beam="1">  1        1 0.11247039E-01 0.88403652E+02</pdfrwt>
<pdfrwt beam="2">  1       -1 0.41116439E-02 0.88403652E+02</pdfrwt>
<totfact> 0.10812249E+05</totfact>
</mgrwt>
</event>
<event>
 7    1  0.2787125E-009  0.8791146E+02  0.7818608E-02  0.1307990E+00
          1   -1    0    0  501    0  0.00000000000E+00  0.00000000000E+00  0.80807405050E+01  0.80807420768E+01  0.50400000000E-02 0. -1.
         -1   -1    0    0    0  501 -0.00000000000E+00 -0.00000000000E+00 -0.23910012680E+03  0.23910012685E+03  0.50400000000E-02 0.  1.
         23    2    1    2    0    0 -0.35527136788E-14  0.00000000000E+00 -0.23101938629E+03  0.24718086893E+03  0.87911461828E+02 0.  0.
    9000005    2    3    3    0    0 -0.29280960556E+02  0.28442801408E+02 -0.15582870054E+03  0.16162383048E+03  0.13164766078E+02 0.  0.
         22    1    3    3    0    0  0.29280960556E+02 -0.28442801408E+02 -0.75190685757E+02  0.85557038446E+02  0.00000000000E+00 0. -1.
         22    1    4    4    0    0 -0.14479229971E+02  0.15782973514E+02 -0.56937466829E+02  0.60832766520E+02  0.00000000000E+00 0. -1.
         22    1    4    4    0    0 -0.14801730586E+02  0.12659827894E+02 -0.98891233706E+02  0.10079106396E+03  0.00000000000E+00 0. -1.
<mgrwt>
<rscale>  0 0.87911462E+02</rscale>
<asrwt>0</asrwt>
<pdfrwt beam="1">  1        1 0.12431912E-02 0.87911462E+02</pdfrwt>
<pdfrwt beam="2">  1       -1 0.36784630E-01 0.87911462E+02</pdfrwt>
<totfact> 0.72285952E+04</totfact>
</mgrwt>
</event>
<event>
 7    1  0.2787125E-009  0.8117017E+02  0.7818608E-02  0.1325763E+00
          1   -1    0    0  501    0  0.00000000000E+00  0.00000000000E+00  0.44541501324E+01  0.44541529838E+01  0.50400000000E-02 0. -1.
         -1   -1    0    0    0  501 -0.00000000000E+00 -0.00000000000E+00 -0.36980082973E+03  0.36980082976E+03  0.50400000000E-02 0.  1.
         23    2    1    2    0    0  0.00000000000E+00  0.00000000000E+00 -0.36534667959E+03  0.37425498274E+03  0.81170165817E+02 0.  0.
    9000005    2    3    3    0    0  0.17787720803E+02 -0.54108833489E+01 -0.34795042001E+03  0.34879304021E+03  0.15537356443E+02 0.  0.
         22    1    3    3    0    0 -0.17787720803E+02  0.54108833489E+01 -0.17396259583E+02  0.25461942531E+02  0.00000000000E+00 0. -1.
         22    1    4    4    0    0  0.12322199502E+02 -0.18102191895E+01 -0.10228517829E+03  0.10304062884E+03  0.00000000000E+00 0. -1.
         22    1    4    4    0    0  0.54655213018E+01 -0.36006641594E+01 -0.24566524172E+03  0.24575241137E+03  0.00000000000E+00 0. -1.
<mgrwt>
<rscale>  0 0.81170166E+02</rscale>
<asrwt>0</asrwt>
<pdfrwt beam="1">  1        1 0.68525438E-03 0.81170166E+02</pdfrwt>
<pdfrwt beam="2">  1       -1 0.56892412E-01 0.81170166E+02</pdfrwt>
<totfact> 0.74970135E+04</totfact>
</mgrwt>
</event>
<event>
 7    1  0.2787125E-009  0.9101544E+02  0.7818608E-02  0.1300411E+00
         -1   -1    0    0    0  501 -0.00000000000E+00  0.00000000000E+00  0.12356172029E+02  0.12356173057E+02  0.50400000000E-02 0.  1.
          1   -1    0    0  501    0  0.00000000000E+00 -0.00000000000E+00 -0.16760470565E+03  0.16760470572E+03  0.50400000000E-02 0. -1.
         23    2    1    2    0    0  0.00000000000E+00  0.00000000000E+00 -0.15524853362E+03  0.17996087878E+03  0.91015442100E+02 0.  0.
    9000005    2    3    3    0    0 -0.31781580645E+02 -0.89879624646E+01 -0.16785535358E+02  0.37613226095E+02  0.64921677821E+01 0.  0.
         22    1    3    3    0    0  0.31781580645E+02  0.89879624646E+01 -0.13846299826E+03  0.14234765269E+03  0.00000000000E+00 0. -1.
         22    1    4    4    0    0 -0.30386639775E+02 -0.71262024850E+01 -0.16392108376E+02  0.35253820441E+02  0.00000000000E+00 0.  1.
         22    1    4    4    0    0 -0.13949408692E+01 -0.18617599796E+01 -0.39342698193E+00  0.23594056541E+01  0.00000000000E+00 0.  1.
<mgrwt>
<rscale>  0 0.91015442E+02</rscale>
<asrwt>0</asrwt>
<pdfrwt beam="2">  1        1 0.25785338E-01 0.91015442E+02</pdfrwt>
<pdfrwt beam="1">  1       -1 0.19009497E-02 0.91015442E+02</pdfrwt>
<totfact> 0.11501704E+05</totfact>
</mgrwt>
</event>
<event>
 7    1  0.2787125E-009  0.8976533E+02  0.7818608E-02  0.1303421E+00
          1   -1    0    0  501    0  0.00000000000E+00  0.00000000000E+00  0.29969379635E+02  0.29969380059E+02  0.50400000000E-02 0. -1.
         -1   -1    0    0    0  501 -0.00000000000E+00 -0.00000000000E+00 -0.67217066911E+02  0.67217067100E+02  0.50400000000E-02 0.  1.
         23    2    1    2    0    0  0.00000000000E+00  0.00000000000E+00 -0.37247687276E+02  0.97186447159E+02  0.89765334645E+02 0.  0.
    9000005    2    3    3    0    0 -0.84869543285E+01  0.34677448087E+02 -0.47776463731E+02  0.59965365321E+02  0.62209928357E+01 0.  0.
         22    1    3    3    0    0  0.84869543285E+01 -0.34677448087E+02  0.10528776454E+02  0.37221081838E+02  0.00000000000E+00 0. -1.
         22    1    4    4    0    0 -0.64274732301E+01  0.17642800862E+02 -0.28811584242E+02  0.34390234383E+02  0.00000000000E+00 0. -1.
         22    1    4    4    0    0 -0.20594810984E+01  0.17034647225E+02 -0.18964879488E+02  0.25575130938E+02  0.00000000000E+00 0. -1.
<mgrwt>
<rscale>  0 0.89765335E+02</rscale>
<asrwt>0</asrwt>
<pdfrwt beam="1">  1        1 0.46106739E-02 0.89765335E+02</pdfrwt>
<pdfrwt beam="2">  1       -1 0.10341087E-01 0.89765335E+02</pdfrwt>
<totfact> 0.90631822E+04</totfact>
</mgrwt>
</event>
<event>
 7    1  0.2787125E-009  0.8838727E+02  0.7818608E-02  0.1306805E+00
         -1   -1    0    0    0  501 -0.00000000000E+00  0.00000000000E+00  0.32324752024E+03  0.32324752028E+03  0.50400000000E-02 0.  1.
          1   -1    0    0  501    0  0.00000000000E+00 -0.00000000000E+00 -0.60420481254E+01  0.60420502275E+01  0.50400000000E-02 0. -1.
         23    2    1    2    0    0 -0.35527136788E-14 -0.44408920985E-15  0.31720547211E+03  0.32928957050E+03  0.88387271171E+02 0.  0.
    9000005    2    3    3    0    0  0.26026537337E+02 -0.27175114710E+01  0.29073829591E+03  0.29207026194E+03  0.95663829387E+01 0.  0.
         22    1    3    3    0    0 -0.26026537337E+02  0.27175114710E+01  0.26467176197E+02  0.37219308567E+02  0.00000000000E+00 0. -1.
         22    1    4    4    0    0  0.52604718978E+01  0.32721960910E+01  0.72656764297E+02  0.72920403386E+02  0.00000000000E+00 0. -1.
         22    1    4    4    0    0  0.20766065439E+02 -0.59897075620E+01  0.21808153162E+03  0.21914985855E+03  0.00000000000E+00 0. -1.
<mgrwt>
<rscale>  0 0.88387271E+02</rscale>
<asrwt>0</asrwt>
<pdfrwt beam="2">  1        1 0.92954625E-03 0.88387271E+02</pdfrwt>
<pdfrwt beam="1">  1       -1 0.49730376E-01 0.88387271E+02</pdfrwt>
<totfact> 0.63747583E+04</totfact>
</mgrwt>
</event>
<event>
 7    1  0.2787125E-009  0.9203729E+02  0.7818608E-02  0.1297992E+00
         -1   -1    0    0    0  501 -0.00000000000E+00  0.00000000000E+00  0.13412554976E+02  0.13412555923E+02  0.50400000000E-02 0.  1.
          1   -1    0    0  501    0  0.00000000000E+00 -0.00000000000E+00 -0.15789054069E+03  0.15789054078E+03  0.50400000000E-02 0. -1.
         23    2    1    2    0    0 -0.35527136788E-14  0.00000000000E+00 -0.14447798572E+03  0.17130309670E+03  0.92037289080E+02 0.  0.
    9000005    2    3    3    0    0  0.22705052994E+02  0.34242920599E+02 -0.10834524787E+03  0.11658863986E+03  0.12888800005E+02 0.  0.
         22    1    3    3    0    0 -0.22705052994E+02 -0.34242920599E+02 -0.36132737844E+02  0.54714456835E+02  0.00000000000E+00 0.  1.
         22    1    4    4    0    0  0.23839997884E+02  0.30093920311E+02 -0.10133328382E+03  0.10836246559E+03  0.00000000000E+00 0.  1.
         22    1    4    4    0    0 -0.11349448900E+01  0.41490002880E+01 -0.70119640577E+01  0.82261742772E+01  0.00000000000E+00 0.  1.
<mgrwt>
<rscale>  0 0.92037289E+02</rscale>
<asrwt>0</asrwt>
<pdfrwt beam="2">  1        1 0.24290851E-01 0.92037289E+02</pdfrwt>
<pdfrwt beam="1">  1       -1 0.20634702E-02 0.92037289E+02</pdfrwt>
<totfact> 0.11036715E+05</totfact>
</mgrwt>
</event>
<event>
 7    1  0.2787125E-009  0.9168734E+02  0.7818608E-02  0.1298816E+00
          1   -1    0    0  501    0  0.00000000000E+00  0.00000000000E+00  0.52512516470E+02  0.52512516712E+02  0.50400000000E-02 0. -1.
         -1   -1    0    0    0  501 -0.00000000000E+00 -0.00000000000E+00 -0.40021733860E+02  0.40021734177E+02  0.50400000000E-02 0.  1.
         23    2    1    2    0    0  0.11102230246E-15  0.00000000000E+00  0.12490782610E+02  0.92534250889E+02  0.91687337934E+02 0.  0.
    9000005    2    3    3    0    0  0.42666904070E+00 -0.41809047352E+02  0.22290006186E+02  0.49590063045E+02  0.14633915746E+02 0.  0.
         22    1    3    3    0    0 -0.42666904070E+00  0.41809047352E+02 -0.97992235763E+01  0.42944187845E+02  0.00000000000E+00 0.  1.
         22    1    4    4    0    0  0.24485247766E+01 -0.38793689271E+02  0.23887038976E+02  0.45623855952E+02  0.00000000000E+00 0. -1.
         22    1    4    4    0    0 -0.20218557359E+01 -0.30153580804E+01 -0.15970327902E+01  0.39662070928E+01  0.00000000000E+00 0. -1.
<mgrwt>
<rscale>  0 0.91687338E+02</rscale>
<asrwt>0</asrwt>
<pdfrwt beam="1">  1        1 0.80788487E-02 0.91687338E+02</pdfrwt>
<pdfrwt beam="2">  1       -1 0.61571899E-02 0.91687338E+02</pdfrwt>
<totfact> 0.92994896E+04</totfact>
</mgrwt>
</event>
<event>
 7    1  0.2787125E-009  0.8883127E+02  0.7818608E-02  0.1305707E+00
         -1   -1    0    0    0  501 -0.00000000000E+00  0.00000000000E+00  0.14368502220E+03  0.14368502229E+03  0.50400000000E-02 0.  1.
          1   -1    0    0  501    0  0.00000000000E+00 -0.00000000000E+00 -0.13729673236E+02  0.13729674161E+02  0.50400000000E-02 0. -1.
         23    2    1    2    0    0 -0.35527136788E-14 -0.35527136788E-14  0.12995534896E+03  0.15741469645E+03  0.88831266645E+02 0.  0.
    9000005    2    3    3    0    0  0.28070190792E+02  0.31728391613E+02  0.84223302948E+02  0.95076534154E+02  0.12302688398E+02 0.  0.
         22    1    3    3    0    0 -0.28070190792E+02 -0.31728391613E+02  0.45732046013E+02  0.62338162293E+02  0.00000000000E+00 0. -1.
         22    1    4    4    0    0  0.19225904791E+02  0.27015662417E+02  0.72013179683E+02  0.79280385209E+02  0.00000000000E+00 0. -1.
         22    1    4    4    0    0  0.88442860008E+01  0.47127291967E+01  0.12210123265E+02  0.15796148945E+02  0.00000000000E+00 0. -1.
<mgrwt>
<rscale>  0 0.88831267E+02</rscale>
<asrwt>0</asrwt>
<pdfrwt beam="2">  1        1 0.21122575E-02 0.88831267E+02</pdfrwt>
<pdfrwt beam="1">  1       -1 0.22105389E-01 0.88831267E+02</pdfrwt>
<totfact> 0.80809945E+04</totfact>
</mgrwt>
</event>
<event>
 7    1  0.2787125E-009  0.8905285E+02  0.7818608E-02  0.1305162E+00
         -1   -1    0    0    0  501 -0.00000000000E+00  0.00000000000E+00  0.72410032828E+01  0.72410050368E+01  0.50400000000E-02 0.  1.
          1   -1    0    0  501    0  0.00000000000E+00 -0.00000000000E+00 -0.27380215982E+03  0.27380215987E+03  0.50400000000E-02 0. -1.
         23    2    1    2    0    0  0.35527136788E-14  0.00000000000E+00 -0.26656115654E+03  0.28104316491E+03  0.89052851523E+02 0.  0.
    9000005    2    3    3    0    0  0.23030430930E+02  0.36488037785E+02 -0.11506679748E+03  0.12352390107E+03  0.12490340457E+02 0.  0.
         22    1    3    3    0    0 -0.23030430930E+02 -0.36488037785E+02 -0.15149435907E+03  0.15751926384E+03  0.00000000000E+00 0. -1.
         22    1    4    4    0    0  0.15691863507E+02  0.31037942427E+02 -0.79000737378E+02  0.86317466116E+02  0.00000000000E+00 0.  1.
         22    1    4    4    0    0  0.73385674225E+01  0.54500953580E+01 -0.36066060097E+02  0.37206434956E+02  0.00000000000E+00 0.  1.
<mgrwt>
<rscale>  0 0.89052852E+02</rscale>
<asrwt>0</asrwt>
<pdfrwt beam="2">  1        1 0.42123401E-01 0.89052852E+02</pdfrwt>
<pdfrwt beam="1">  1       -1 0.11140009E-02 0.89052852E+02</pdfrwt>
<totfact> 0.13404006E+05</totfact>
</mgrwt>
</event>
<event>
 7    1  0.2787125E-009  0.8650742E+02  0.7818608E-02  0.1311537E+00
         -1   -1    0    0    0  501 -0.00000000000E+00  0.00000000000E+00  0.52787630100E+02  0.52787630341E+02  0.50400000000E-02 0.  1.
          1   -1    0    0  501    0  0.00000000000E+00 -0.00000000000E+00 -0.35441698309E+02  0.35441698668E+02  0.50400000000E-02 0. -1.
         23    2    1    2    0    0  0.00000000000E+00  0.17763568394E-14  0.17345931791E+02  0.88229329008E+02  0.86507416720E+02 0.  0.
    9000005    2    3    3    0    0 -0.21724831134E+02  0.14340880178E+02 -0.25342222695E+02  0.38230252362E+02  0.11903563014E+02 0.  0.
         22    1    3    3    0    0  0.21724831134E+02 -0.14340880178E+02  0.42688154486E+02  0.49999076647E+02  0.00000000000E+00 0.  1.
         22    1    4    4    0    0 -0.18658920948E+02  0.14782177079E+02 -0.25794154812E+02  0.35099950322E+02  0.00000000000E+00 0.  1.
         22    1    4    4    0    0 -0.30659101861E+01 -0.44129690044E+00  0.45193211684E+00  0.31303020400E+01  0.00000000000E+00 0.  1.
<mgrwt>
<rscale>  0 0.86507417E+02</rscale>
<asrwt>0</asrwt>
<pdfrwt beam="2">  1        1 0.54525690E-02 0.86507417E+02</pdfrwt>
<pdfrwt beam="1">  1       -1 0.81211739E-02 0.86507417E+02</pdfrwt>
<totfact> 0.10325842E+05</totfact>
</mgrwt>
</event>
<event>
 7    1  0.2787125E-009  0.9198169E+02  0.7818608E-02  0.1298122E+00
         -1   -1    0    0    0  501 -0.00000000000E+00  0.00000000000E+00  0.54513792271E+03  0.54513792274E+03  0.50400000000E-02 0.  1.
          1   -1    0    0  501    0  0.00000000000E+00 -0.00000000000E+00 -0.38800400035E+01  0.38800432769E+01  0.50400000000E-02 0. -1.
         23    2    1    2    0    0 -0.22204460493E-15  0.00000000000E+00  0.54125788271E+03  0.54901796601E+03  0.91981690624E+02 0.  0.
    9000005    2    3    3    0    0  0.96029087494E+00  0.45716525914E+02  0.26557425606E+03  0.26956781858E+03  0.67970897931E+01 0.  0.
         22    1    3    3    0    0 -0.96029087494E+00 -0.45716525914E+02  0.27568362665E+03  0.27945014743E+03  0.00000000000E+00 0. -1.
         22    1    4    4    0    0 -0.18166368705E+01  0.69433494213E+01  0.50736844538E+02  0.51241952191E+02  0.00000000000E+00 0.  1.
         22    1    4    4    0    0  0.27769277454E+01  0.38773176492E+02  0.21483741153E+03  0.21832586639E+03  0.00000000000E+00 0.  1.
<mgrwt>
<rscale>  0 0.91981691E+02</rscale>
<asrwt>0</asrwt>
<pdfrwt beam="2">  1        1 0.59692975E-03 0.91981691E+02</pdfrwt>
<pdfrwt beam="1">  1       -1 0.83867336E-01 0.91981691E+02</pdfrwt>
<totfact> 0.43487468E+04</totfact>
</mgrwt>
</event>
<event>
 7    1  0.2787125E-009  0.9313575E+02  0.7818608E-02  0.1295431E+00
          1   -1    0    0  501    0  0.00000000000E+00  0.00000000000E+00  0.39096592779E+03  0.39096592783E+03  0.50400000000E-02 0. -1.
         -1   -1    0    0    0  501 -0.00000000000E+00 -0.00000000000E+00 -0.55466896944E+01  0.55466919842E+01  0.50400000000E-02 0.  1.
         23    2    1    2    0    0 -0.35527136788E-14 -0.35527136788E-14  0.38541923810E+03  0.39651261981E+03  0.93135753456E+02 0.  0.
    9000005    2    3    3    0    0  0.26863263486E+02  0.31163239896E+02  0.28310978409E+03  0.28624019884E+03  0.94614555560E+01 0.  0.
         22    1    3    3    0    0 -0.26863263486E+02 -0.31163239896E+02  0.10230945401E+03  0.11027242097E+03  0.00000000000E+00 0. -1.
         22    1    4    4    0    0 -0.12770710616E+00  0.19973160645E+01  0.26071825312E+02  0.26148530660E+02  0.00000000000E+00 0. -1.
         22    1    4    4    0    0  0.26990970592E+02  0.29165923832E+02  0.25703795878E+03  0.26009166818E+03  0.00000000000E+00 0. -1.
<mgrwt>
<rscale>  0 0.93135753E+02</rscale>
<asrwt>0</asrwt>
<pdfrwt beam="1">  1        1 0.60148620E-01 0.93135753E+02</pdfrwt>
<pdfrwt beam="2">  1       -1 0.85333684E-03 0.93135753E+02</pdfrwt>
<totfact> 0.12699487E+05</totfact>
</mgrwt>
</event>
<event>
 7    1  0.2787125E-009  0.9068773E+02  0.7818608E-02  0.1301195E+00
          1   -1    0    0  501    0  0.00000000000E+00  0.00000000000E+00  0.37209121186E+02  0.37209121528E+02  0.50400000000E-02 0. -1.
         -1   -1    0    0    0  501 -0.00000000000E+00 -0.00000000000E+00 -0.55257041983E+02  0.55257042212E+02  0.50400000000E-02 0.  1.
         23    2    1    2    0    0  0.00000000000E+00  0.00000000000E+00 -0.18047920796E+02  0.92466163740E+02  0.90687727900E+02 0.  0.
    9000005    2    3    3    0    0 -0.15789934136E+02  0.38724865062E+02 -0.23359012789E+02  0.50309967372E+02  0.15378951341E+02 0.  0.
         22    1    3    3    0    0  0.15789934136E+02 -0.38724865062E+02  0.53110919928E+01  0.42156196368E+02  0.00000000000E+00 0. -1.
         22    1    4    4    0    0 -0.18273513451E+02  0.37315364734E+02 -0.20753241357E+02  0.46444103672E+02  0.00000000000E+00 0.  1.
         22    1    4    4    0    0  0.24835793152E+01  0.14095003286E+01 -0.26057714317E+01  0.38658636998E+01  0.00000000000E+00 0.  1.
<mgrwt>
<rscale>  0 0.90687728E+02</rscale>
<asrwt>0</asrwt>
<pdfrwt beam="1">  1        1 0.57244802E-02 0.90687728E+02</pdfrwt>
<pdfrwt beam="2">  1       -1 0.85010835E-02 0.90687728E+02</pdfrwt>
<totfact> 0.91044397E+04</totfact>
</mgrwt>
</event>
<event>
 7    1  0.2862472E-009  0.8884739E+02  0.7818608E-02  0.1305667E+00
          1   -1    0    0  501    0  0.00000000000E+00  0.00000000000E+00  0.87975405519E+02  0.87975405664E+02  0.50400000000E-02 0. -1.
         -1   -1    0    0    0  501 -0.00000000000E+00 -0.00000000000E+00 -0.22432003065E+02  0.22432003632E+02  0.50400000000E-02 0.  1.
         23    2    1    2    0    0  0.00000000000E+00  0.00000000000E+00  0.65543402454E+02  0.11040740930E+03  0.88847388381E+02 0.  0.
    9000005    2    3    3    0    0 -0.43605027634E+01  0.28384029307E+02  0.73725980317E+02  0.80547374390E+02  0.15089474590E+02 0.  0.
         22    1    3    3    0    0  0.43605027634E+01 -0.28384029307E+02 -0.81825778635E+01  0.29860034905E+02  0.00000000000E+00 0.  1.
         22    1    4    4    0    0 -0.76558483537E+01  0.77033945342E+01  0.18079145344E+02  0.21090514402E+02  0.00000000000E+00 0.  1.
         22    1    4    4    0    0  0.32953455903E+01  0.20680634772E+02  0.55646834973E+02  0.59456859989E+02  0.00000000000E+00 0.  1.
<mgrwt>
<rscale>  0 0.88847388E+02</rscale>
<asrwt>0</asrwt>
<pdfrwt beam="1">  1        1 0.13534678E-01 0.88847388E+02</pdfrwt>
<pdfrwt beam="2">  1       -1 0.34510775E-02 0.88847388E+02</pdfrwt>
<totfact> 0.10977010E+05</totfact>
</mgrwt>
</event>
<event>
 7    1  0.2787125E-009  0.8508243E+02  0.7818608E-02  0.1315217E+00
         -1   -1    0    0    0  501 -0.00000000000E+00  0.00000000000E+00  0.15954139501E+02  0.15954140297E+02  0.50400000000E-02 0.  1.
          1   -1    0    0  501    0  0.00000000000E+00 -0.00000000000E+00 -0.11343481323E+03  0.11343481334E+03  0.50400000000E-02 0. -1.
         23    2    1    2    0    0  0.00000000000E+00  0.00000000000E+00 -0.97480673731E+02  0.12938895364E+03  0.85082428112E+02 0.  0.
    9000005    2    3    3    0    0  0.39379735872E+02  0.85907382839E+01 -0.36827003350E+02  0.56564286719E+02  0.14789387235E+02 0.  0.
         22    1    3    3    0    0 -0.39379735872E+02 -0.85907382839E+01 -0.60653670382E+02  0.72824666922E+02  0.00000000000E+00 0. -1.
         22    1    4    4    0    0  0.24211028072E+02  0.37909832416E+01 -0.12534871873E+02  0.27525777866E+02  0.00000000000E+00 0. -1.
         22    1    4    4    0    0  0.15168707799E+02  0.47997550423E+01 -0.24292131476E+02  0.29038508854E+02  0.00000000000E+00 0. -1.
<mgrwt>
<rscale>  0 0.85082428E+02</rscale>
<asrwt>0</asrwt>
<pdfrwt beam="2">  1        1 0.17451509E-01 0.85082428E+02</pdfrwt>
<pdfrwt beam="1">  1       -1 0.24544831E-02 0.85082428E+02</pdfrwt>
<totfact> 0.12863292E+05</totfact>
</mgrwt>
</event>
<event>
 7    1  0.2787125E-009  0.9166588E+02  0.7818608E-02  0.1298867E+00
         -1   -1    0    0    0  501 -0.00000000000E+00  0.00000000000E+00  0.77706360751E+01  0.77706377096E+01  0.50400000000E-02 0.  1.
          1   -1    0    0  501    0  0.00000000000E+00 -0.00000000000E+00 -0.27033282122E+03  0.27033282126E+03  0.50400000000E-02 0. -1.
         23    2    1    2    0    0 -0.11102230246E-15  0.35527136788E-14 -0.26256218514E+03  0.27810345897E+03  0.91665876020E+02 0.  0.
    9000005    2    3    3    0    0  0.54840914736E+00 -0.25807850861E+02 -0.24584983238E+03  0.24735205813E+03  0.86345043221E+01 0.  0.
         22    1    3    3    0    0 -0.54840914736E+00  0.25807850861E+02 -0.16712352765E+02  0.30751400840E+02  0.00000000000E+00 0.  1.
         22    1    4    4    0    0  0.10749153534E+01 -0.25034051378E+02 -0.24395726775E+03  0.24524071371E+03  0.00000000000E+00 0. -1.
         22    1    4    4    0    0 -0.52650620601E+00 -0.77379948264E+00 -0.18925646270E+01  0.21113444276E+01  0.00000000000E+00 0. -1.
<mgrwt>
<rscale>  0 0.91665876E+02</rscale>
<asrwt>0</asrwt>
<pdfrwt beam="2">  1        1 0.41589658E-01 0.91665876E+02</pdfrwt>
<pdfrwt beam="1">  1       -1 0.11954828E-02 0.91665876E+02</pdfrwt>
<totfact> 0.12379110E+05</totfact>
</mgrwt>
</event>
<event>
 7    1  0.2787125E-009  0.9521995E+02  0.7818608E-02  0.1290681E+00
         -1   -1    0    0    0  501 -0.00000000000E+00  0.00000000000E+00  0.21381710973E+03  0.21381710979E+03  0.50400000000E-02 0.  1.
          1   -1    0    0  501    0  0.00000000000E+00 -0.00000000000E+00 -0.10601161725E+02  0.10601162923E+02  0.50400000000E-02 0. -1.
         23    2    1    2    0    0  0.00000000000E+00  0.00000000000E+00  0.20321594801E+03  0.22441827272E+03  0.95219953812E+02 0.  0.
    9000005    2    3    3    0    0 -0.36107456446E+02  0.28506865540E+02  0.12877834354E+03  0.13691200578E+03  0.66817488854E+01 0.  0.
         22    1    3    3    0    0  0.36107456446E+02 -0.28506865540E+02  0.74437604466E+02  0.87506266933E+02  0.00000000000E+00 0.  1.
         22    1    4    4    0    0 -0.14362181847E+02  0.72925544405E+01  0.44534550596E+02  0.47357996310E+02  0.00000000000E+00 0.  1.
         22    1    4    4    0    0 -0.21745274598E+02  0.21214311100E+02  0.84243792946E+02  0.89554009473E+02  0.00000000000E+00 0.  1.
<mgrwt>
<rscale>  0 0.95219954E+02</rscale>
<asrwt>0</asrwt>
<pdfrwt beam="2">  1        1 0.16309481E-02 0.95219954E+02</pdfrwt>
<pdfrwt beam="1">  1       -1 0.32894939E-01 0.95219954E+02</pdfrwt>
<totfact> 0.60782262E+04</totfact>
</mgrwt>
</event>
<event>
 7    1  0.2787125E-009  0.8971117E+02  0.7818608E-02  0.1303553E+00
          1   -1    0    0  501    0  0.00000000000E+00  0.00000000000E+00  0.45861540386E+02  0.45861540663E+02  0.50400000000E-02 0. -1.
         -1   -1    0    0    0  501 -0.00000000000E+00 -0.00000000000E+00 -0.43871694902E+02  0.43871695191E+02  0.50400000000E-02 0.  1.
         23    2    1    2    0    0  0.35527136788E-14  0.22204460493E-15  0.19898454847E+01  0.89733235855E+02  0.89711170608E+02 0.  0.
    9000005    2    3    3    0    0 -0.28785913714E+02  0.46268484100E+00 -0.31718714237E+02  0.45403675693E+02  0.15052376158E+02 0.  0.
         22    1    3    3    0    0  0.28785913714E+02 -0.46268484100E+00  0.33708559721E+02  0.44329560161E+02  0.00000000000E+00 0. -1.
         22    1    4    4    0    0 -0.87274032714E+01 -0.49184543734E+01 -0.17728538394E+02  0.20363198052E+02  0.00000000000E+00 0.  1.
         22    1    4    4    0    0 -0.20058510443E+02  0.53811392144E+01 -0.13990175842E+02  0.25040477642E+02  0.00000000000E+00 0.  1.
<mgrwt>
<rscale>  0 0.89711171E+02</rscale>
<asrwt>0</asrwt>
<pdfrwt beam="1">  1        1 0.70556216E-02 0.89711171E+02</pdfrwt>
<pdfrwt beam="2">  1       -1 0.67494916E-02 0.89711171E+02</pdfrwt>
<totfact> 0.96852139E+04</totfact>
</mgrwt>
</event>
<event>
 7    1  0.2787125E-009  0.8761826E+02  0.7818608E-02  0.1308724E+00
         -1   -1    0    0    0  501 -0.00000000000E+00  0.00000000000E+00  0.28084332612E+02  0.28084333064E+02  0.50400000000E-02 0.  1.
          1   -1    0    0  501    0  0.00000000000E+00 -0.00000000000E+00 -0.68338445535E+02  0.68338445721E+02  0.50400000000E-02 0. -1.
         23    2    1    2    0    0  0.17763568394E-14  0.00000000000E+00 -0.40254112923E+02  0.96422778785E+02  0.87618255297E+02 0.  0.
    9000005    2    3    3    0    0  0.12987409086E+02 -0.28585229314E+02  0.11803528586E+02  0.35629800825E+02  0.12015460459E+02 0.  0.
         22    1    3    3    0    0 -0.12987409086E+02  0.28585229314E+02 -0.52057641509E+02  0.60792977960E+02  0.00000000000E+00 0. -1.
         22    1    4    4    0    0  0.73344674124E+01 -0.21721050275E+02  0.13459131007E+02  0.26584706971E+02  0.00000000000E+00 0.  1.
         22    1    4    4    0    0  0.56529416737E+01 -0.68641790390E+01 -0.16556024214E+01  0.90450938537E+01  0.00000000000E+00 0.  1.
<mgrwt>
<rscale>  0 0.87618255E+02</rscale>
<asrwt>0</asrwt>
<pdfrwt beam="2">  1        1 0.10513607E-01 0.87618255E+02</pdfrwt>
<pdfrwt beam="1">  1       -1 0.43206666E-02 0.87618255E+02</pdfrwt>
<totfact> 0.10967637E+05</totfact>
</mgrwt>
</event>
<event>
 7    1  0.2787125E-009  0.9069531E+02  0.7818608E-02  0.1301177E+00
          1   -1    0    0  501    0  0.00000000000E+00  0.00000000000E+00  0.20999650111E+02  0.20999650715E+02  0.50400000000E-02 0. -1.
         -1   -1    0    0    0  501 -0.00000000000E+00 -0.00000000000E+00 -0.97925897302E+02  0.97925897431E+02  0.50400000000E-02 0.  1.
         23    2    1    2    0    0  0.88817841970E-15  0.71054273576E-14 -0.76926247191E+02  0.11892554815E+03  0.90695305805E+02 0.  0.
    9000005    2    3    3    0    0 -0.76068785503E+01 -0.43074063785E+02 -0.24280685997E+02  0.50479988132E+02  0.67407653251E+01 0.  0.
         22    1    3    3    0    0  0.76068785503E+01  0.43074063785E+02 -0.52645561194E+02  0.68445560014E+02  0.00000000000E+00 0.  1.
         22    1    4    4    0    0 -0.38646256594E+01 -0.18737515170E+02 -0.68880782233E+01  0.20334095206E+02  0.00000000000E+00 0.  1.
         22    1    4    4    0    0 -0.37422528909E+01 -0.24336548615E+02 -0.17392607774E+02  0.30145892927E+02  0.00000000000E+00 0.  1.
<mgrwt>
<rscale>  0 0.90695306E+02</rscale>
<asrwt>0</asrwt>
<pdfrwt beam="1">  1        1 0.32307155E-02 0.90695306E+02</pdfrwt>
<pdfrwt beam="2">  1       -1 0.15065523E-01 0.90695306E+02</pdfrwt>
<totfact> 0.82807188E+04</totfact>
</mgrwt>
</event>
<event>
 7    1  0.2787125E-009  0.9162791E+02  0.7818608E-02  0.1298957E+00
         -1   -1    0    0    0  501 -0.00000000000E+00  0.00000000000E+00  0.46567947811E+01  0.46567975085E+01  0.50400000000E-02 0.  1.
          1   -1    0    0  501    0  0.00000000000E+00 -0.00000000000E+00 -0.45072161065E+03  0.45072161068E+03  0.50400000000E-02 0. -1.
         23    2    1    2    0    0  0.00000000000E+00  0.00000000000E+00 -0.44606481587E+03  0.45537840819E+03  0.91627914341E+02 0.  0.
    9000005    2    3    3    0    0 -0.34846089314E+02  0.78037592724E+01 -0.36366088023E+03  0.36556996088E+03  0.10817203317E+02 0.  0.
         22    1    3    3    0    0  0.34846089314E+02 -0.78037592724E+01 -0.82403935643E+02  0.89808447312E+02  0.00000000000E+00 0.  1.
         22    1    4    4    0    0 -0.23101803393E+01 -0.18680367623E+01 -0.17661330540E+02  0.17909469311E+02  0.00000000000E+00 0. -1.
         22    1    4    4    0    0 -0.32535908974E+02  0.96717960347E+01 -0.34599954969E+03  0.34766049156E+03  0.00000000000E+00 0. -1.
<mgrwt>
<rscale>  0 0.91627914E+02</rscale>
<asrwt>0</asrwt>
<pdfrwt beam="2">  1        1 0.69341752E-01 0.91627914E+02</pdfrwt>
<pdfrwt beam="1">  1       -1 0.71643053E-03 0.91627914E+02</pdfrwt>
<totfact> 0.13560097E+05</totfact>
</mgrwt>
</event>
<event>
 7    1  0.2787125E-009  0.9096658E+02  0.7818608E-02  0.1300528E+00
          1   -1    0    0  501    0  0.00000000000E+00  0.00000000000E+00  0.52393574964E+02  0.52393575206E+02  0.50400000000E-02 0. -1.
         -1   -1    0    0    0  501 -0.00000000000E+00 -0.00000000000E+00 -0.39484413723E+02  0.39484414044E+02  0.50400000000E-02 0.  1.
         23    2    1    2    0    0  0.00000000000E+00  0.00000000000E+00  0.12909161241E+02  0.91877989251E+02  0.90966578834E+02 0.  0.
    9000005    2    3    3    0    0  0.16347573440E+02  0.10830159338E+02 -0.34805232502E+02  0.40291180094E+02  0.52382702482E+01 0.  0.
         22    1    3    3    0    0 -0.16347573440E+02 -0.10830159338E+02  0.47714393743E+02  0.51586809157E+02  0.00000000000E+00 0. -1.
         22    1    4    4    0    0  0.16124959472E+00  0.22246770225E+00 -0.33376625540E+01  0.33489527669E+01  0.00000000000E+00 0. -1.
         22    1    4    4    0    0  0.16186323845E+02  0.10607691635E+02 -0.31467569948E+02  0.36942227327E+02  0.00000000000E+00 0. -1.
<mgrwt>
<rscale>  0 0.90966579E+02</rscale>
<asrwt>0</asrwt>
<pdfrwt beam="1">  1        1 0.80605499E-02 0.90966579E+02</pdfrwt>
<pdfrwt beam="2">  1       -1 0.60745253E-02 0.90966579E+02</pdfrwt>
<totfact> 0.95034497E+04</totfact>
</mgrwt>
</event>
<event>
 7    1  0.2787125E-009  0.9087787E+02  0.7818608E-02  0.1300740E+00
          1   -1    0    0  501    0  0.00000000000E+00  0.00000000000E+00  0.30376208481E+03  0.30376208485E+03  0.50400000000E-02 0. -1.
         -1   -1    0    0    0  501 -0.00000000000E+00 -0.00000000000E+00 -0.67970847703E+01  0.67970866388E+01  0.50400000000E-02 0.  1.
         23    2    1    2    0    0  0.00000000000E+00 -0.35527136788E-14  0.29696500004E+03  0.31055917149E+03  0.90877872710E+02 0.  0.
    9000005    2    3    3    0    0  0.96631384637E+01 -0.30732897101E+02  0.25624619759E+03  0.25863703669E+03  0.13896609652E+02 0.  0.
         22    1    3    3    0    0 -0.96631384637E+01  0.30732897101E+02  0.40718802450E+02  0.51922134800E+02  0.00000000000E+00 0.  1.
         22    1    4    4    0    0  0.80826499727E+01 -0.89088023447E+01  0.61493434608E+02  0.62658905908E+02  0.00000000000E+00 0.  1.
         22    1    4    4    0    0  0.15804884910E+01 -0.21824094757E+02  0.19475276298E+03  0.19597813078E+03  0.00000000000E+00 0.  1.
<mgrwt>
<rscale>  0 0.90877873E+02</rscale>
<asrwt>0</asrwt>
<pdfrwt beam="1">  1        1 0.46732644E-01 0.90877873E+02</pdfrwt>
<pdfrwt beam="2">  1       -1 0.10457051E-02 0.90877873E+02</pdfrwt>
<totfact> 0.12955451E+05</totfact>
</mgrwt>
</event>
<event>
 7    1  0.2787125E-009  0.9213215E+02  0.7818608E-02  0.1297769E+00
          1   -1    0    0  501    0  0.00000000000E+00  0.00000000000E+00  0.73372157778E+03  0.73372157780E+03  0.50400000000E-02 0. -1.
         -1   -1    0    0    0  501 -0.00000000000E+00 -0.00000000000E+00 -0.28922164491E+01  0.28922208405E+01  0.50400000000E-02 0.  1.
         23    2    1    2    0    0  0.00000000000E+00  0.00000000000E+00  0.73082936133E+03  0.73661379864E+03  0.92132149439E+02 0.  0.
    9000005    2    3    3    0    0 -0.30218365702E+02 -0.21744235758E+02  0.57957538032E+03  0.58084561131E+03  0.93830315258E+01 0.  0.
         22    1    3    3    0    0  0.30218365702E+02  0.21744235758E+02  0.15125398101E+03  0.15576818733E+03  0.00000000000E+00 0.  1.
         22    1    4    4    0    0 -0.10313488423E+02 -0.11329699624E+02  0.18617573796E+03  0.18680507365E+03  0.00000000000E+00 0.  1.
         22    1    4    4    0    0 -0.19904877279E+02 -0.10414536134E+02  0.39339964237E+03  0.39404053766E+03  0.00000000000E+00 0.  1.
<mgrwt>
<rscale>  0 0.92132149E+02</rscale>
<asrwt>0</asrwt>
<pdfrwt beam="1">  1        1 0.11288030E+00 0.92132149E+02</pdfrwt>
<pdfrwt beam="2">  1       -1 0.44495648E-03 0.92132149E+02</pdfrwt>
<totfact> 0.13816841E+05</totfact>
</mgrwt>
</event>
<event>
 7    1  0.2787125E-009  0.9073786E+02  0.7818608E-02  0.1301075E+00
          1   -1    0    0  501    0  0.00000000000E+00  0.00000000000E+00  0.88613820676E+01  0.88613835009E+01  0.50400000000E-02 0. -1.
         -1   -1    0    0    0  501 -0.00000000000E+00 -0.00000000000E+00 -0.23228200817E+03  0.23228200823E+03  0.50400000000E-02 0.  1.
         23    2    1    2    0    0  0.00000000000E+00  0.00000000000E+00 -0.22342062610E+03  0.24114339173E+03  0.90737859821E+02 0.  0.
    9000005    2    3    3    0    0 -0.40155243027E+02 -0.16142403488E+02 -0.81976136220E+02  0.93225967292E+02  0.98981480640E+01 0.  0.
         22    1    3    3    0    0  0.40155243027E+02  0.16142403488E+02 -0.14144448988E+03  0.14791742443E+03  0.00000000000E+00 0. -1.
         22    1    4    4    0    0 -0.18906896723E+02 -0.11420571001E+02 -0.48534403835E+02  0.53324370988E+02  0.00000000000E+00 0.  1.
         22    1    4    4    0    0 -0.21248346304E+02 -0.47218324869E+01 -0.33441732385E+02  0.39901596304E+02  0.00000000000E+00 0.  1.
<mgrwt>
<rscale>  0 0.90737860E+02</rscale>
<asrwt>0</asrwt>
<pdfrwt beam="1">  1        1 0.13632898E-02 0.90737860E+02</pdfrwt>
<pdfrwt beam="2">  1       -1 0.35735689E-01 0.90737860E+02</pdfrwt>
<totfact> 0.67192442E+04</totfact>
</mgrwt>
</event>
<event>
 7    1  0.2787125E-009  0.9154884E+02  0.7818608E-02  0.1299144E+00
          1   -1    0    0  501    0  0.00000000000E+00  0.00000000000E+00  0.16310538382E+03  0.16310538390E+03  0.50400000000E-02 0. -1.
         -1   -1    0    0    0  501 -0.00000000000E+00 -0.00000000000E+00 -0.12846278879E+02  0.12846279867E+02  0.50400000000E-02 0.  1.
         23    2    1    2    0    0 -0.17763568394E-14  0.00000000000E+00  0.15025910494E+03  0.17595166376E+03  0.91548835951E+02 0.  0.
    9000005    2    3    3    0    0  0.94529351669E+01 -0.37835022020E+02  0.30613288179E+02  0.50110619812E+02  0.72838128973E+01 0.  0.
         22    1    3    3    0    0 -0.94529351669E+01  0.37835022020E+02  0.11964581676E+03  0.12584104395E+03  0.00000000000E+00 0. -1.
         22    1    4    4    0    0  0.95655359424E+01 -0.25013222809E+02  0.22077574343E+02  0.34707060982E+02  0.00000000000E+00 0. -1.
         22    1    4    4    0    0 -0.11260077554E+00 -0.12821799211E+02  0.85357138365E+01  0.15403558830E+02  0.00000000000E+00 0. -1.
<mgrwt>
<rscale>  0 0.91548836E+02</rscale>
<asrwt>0</asrwt>
<pdfrwt beam="1">  1        1 0.25093137E-01 0.91548836E+02</pdfrwt>
<pdfrwt beam="2">  1       -1 0.19763506E-02 0.91548836E+02</pdfrwt>
<totfact> 0.11264457E+05</totfact>
</mgrwt>
</event>
<event>
 7    1  0.2787125E-009  0.9088542E+02  0.7818608E-02  0.1300722E+00
          1   -1    0    0  501    0  0.00000000000E+00  0.00000000000E+00  0.65869839067E+02  0.65869839260E+02  0.50400000000E-02 0. -1.
         -1   -1    0    0    0  501 -0.00000000000E+00 -0.00000000000E+00 -0.31350308404E+02  0.31350308809E+02  0.50400000000E-02 0.  1.
         23    2    1    2    0    0  0.71054273576E-14 -0.88817841970E-15  0.34519530663E+02  0.97220148069E+02  0.90885417936E+02 0.  0.
    9000005    2    3    3    0    0  0.44103143085E+02 -0.69926590493E+01  0.22119616980E+02  0.50876406637E+02  0.10254110708E+02 0.  0.
         22    1    3    3    0    0 -0.44103143085E+02  0.69926590493E+01  0.12399913682E+02  0.46343741432E+02  0.00000000000E+00 0.  1.
         22    1    4    4    0    0 -0.56414141088E+00 -0.29459776810E+00  0.17013091019E+00  0.65877758238E+00  0.00000000000E+00 0.  1.
         22    1    4    4    0    0  0.44667284496E+02 -0.66980612812E+01  0.21949486070E+02  0.50217629055E+02  0.00000000000E+00 0.  1.
<mgrwt>
<rscale>  0 0.90885418E+02</rscale>
<asrwt>0</asrwt>
<pdfrwt beam="1">  1        1 0.10133821E-01 0.90885418E+02</pdfrwt>
<pdfrwt beam="2">  1       -1 0.48231245E-02 0.90885418E+02</pdfrwt>
<totfact> 0.98617877E+04</totfact>
</mgrwt>
</event>
<event>
 7    1  0.2787125E-009  0.9340674E+02  0.7818608E-02  0.1294805E+00
          1   -1    0    0  501    0  0.00000000000E+00  0.00000000000E+00  0.10218175953E+03  0.10218175966E+03  0.50400000000E-02 0. -1.
         -1   -1    0    0    0  501 -0.00000000000E+00 -0.00000000000E+00 -0.21346320308E+02  0.21346320903E+02  0.50400000000E-02 0.  1.
         23    2    1    2    0    0  0.00000000000E+00  0.00000000000E+00  0.80835439224E+02  0.12352808056E+03  0.93406736654E+02 0.  0.
    9000005    2    3    3    0    0 -0.24320263131E+02  0.30493835794E+02  0.82339994550E+01  0.41112558498E+02  0.10054576028E+02 0.  0.
         22    1    3    3    0    0  0.24320263131E+02 -0.30493835794E+02  0.72601439769E+02  0.82415522062E+02  0.00000000000E+00 0.  1.
         22    1    4    4    0    0 -0.93471964135E+00  0.71874298235E+01  0.10477412085E+01  0.73232922866E+01  0.00000000000E+00 0. -1.
         22    1    4    4    0    0 -0.23385543489E+02  0.23306405970E+02  0.71862582465E+01  0.33789266212E+02  0.00000000000E+00 0. -1.
<mgrwt>
<rscale>  0 0.93406737E+02</rscale>
<asrwt>0</asrwt>
<pdfrwt beam="1">  1        1 0.15720271E-01 0.93406737E+02</pdfrwt>
<pdfrwt beam="2">  1       -1 0.32840493E-02 0.93406737E+02</pdfrwt>
<totfact> 0.98133980E+04</totfact>
</mgrwt>
</event>
<event>
 7    1  0.2787125E-009  0.9199776E+02  0.7818608E-02  0.1298085E+00
         -1   -1    0    0    0  501 -0.00000000000E+00  0.00000000000E+00  0.38971827985E+02  0.38971828311E+02  0.50400000000E-02 0.  1.
          1   -1    0    0  501    0  0.00000000000E+00 -0.00000000000E+00 -0.54292992433E+02  0.54292992667E+02  0.50400000000E-02 0. -1.
         23    2    1    2    0    0  0.00000000000E+00 -0.17763568394E-14 -0.15321164448E+02  0.93264820977E+02  0.91997764929E+02 0.  0.
    9000005    2    3    3    0    0  0.20622382491E+02 -0.11868363695E+02  0.31426463430E+02  0.40810255603E+02  0.10569467453E+02 0.  0.
         22    1    3    3    0    0 -0.20622382491E+02  0.11868363695E+02 -0.46747627878E+02  0.52454565375E+02  0.00000000000E+00 0. -1.
         22    1    4    4    0    0  0.80568639935E+01 -0.13132760296E+01  0.17409715414E+02  0.19228518980E+02  0.00000000000E+00 0.  1.
         22    1    4    4    0    0  0.12565518498E+02 -0.10555087665E+02  0.14016748016E+02  0.21581736623E+02  0.00000000000E+00 0.  1.
<mgrwt>
<rscale>  0 0.91997765E+02</rscale>
<asrwt>0</asrwt>
<pdfrwt beam="2">  1        1 0.83527682E-02 0.91997765E+02</pdfrwt>
<pdfrwt beam="1">  1       -1 0.59956658E-02 0.91997765E+02</pdfrwt>
<totfact> 0.92586137E+04</totfact>
</mgrwt>
</event>
<event>
 7    1  0.2787125E-009  0.9364892E+02  0.7818608E-02  0.1294248E+00
          1   -1    0    0  501    0  0.00000000000E+00  0.00000000000E+00  0.56798918755E+01  0.56798941116E+01  0.50400000000E-02 0. -1.
         -1   -1    0    0    0  501 -0.00000000000E+00 -0.00000000000E+00 -0.38601605532E+03  0.38601605536E+03  0.50400000000E-02 0.  1.
         23    2    1    2    0    0  0.00000000000E+00  0.00000000000E+00 -0.38033616345E+03  0.39169594947E+03  0.93648916722E+02 0.  0.
    9000005    2    3    3    0    0  0.36258407187E+02 -0.23821696164E+02 -0.11957775152E+03  0.12735318961E+03  0.61523121295E+01 0.  0.
         22    1    3    3    0    0 -0.36258407187E+02  0.23821696164E+02 -0.26075841193E+03  0.26434275986E+03  0.00000000000E+00 0.  1.
         22    1    4    4    0    0  0.41956622194E+01 -0.33670524432E+01 -0.21418577155E+02  0.22083841852E+02  0.00000000000E+00 0.  1.
         22    1    4    4    0    0  0.32062744968E+02 -0.20454643721E+02 -0.98159174366E+02  0.10526934775E+03  0.00000000000E+00 0.  1.
<mgrwt>
<rscale>  0 0.93648917E+02</rscale>
<asrwt>0</asrwt>
<pdfrwt beam="1">  1        1 0.87382999E-03 0.93648917E+02</pdfrwt>
<pdfrwt beam="2">  1       -1 0.59387065E-01 0.93648917E+02</pdfrwt>
<totfact> 0.50565247E+04</totfact>
</mgrwt>
</event>
<event>
 7    1  0.2787125E-009  0.8687084E+02  0.7818608E-02  0.1310611E+00
         -1   -1    0    0    0  501 -0.00000000000E+00  0.00000000000E+00  0.40677834732E+02  0.40677835044E+02  0.50400000000E-02 0.  1.
          1   -1    0    0  501    0  0.00000000000E+00 -0.00000000000E+00 -0.46379943935E+02  0.46379944208E+02  0.50400000000E-02 0. -1.
         23    2    1    2    0    0  0.00000000000E+00  0.88817841970E-15 -0.57021092026E+01  0.87057779253E+02  0.86870840212E+02 0.  0.
    9000005    2    3    3    0    0  0.18786910026E+02 -0.67555934171E+01  0.34577782557E+02  0.42101626049E+02  0.13354319101E+02 0.  0.
         22    1    3    3    0    0 -0.18786910026E+02  0.67555934171E+01 -0.40279891760E+02  0.44956153204E+02  0.00000000000E+00 0. -1.
         22    1    4    4    0    0  0.12849961519E+02  0.24419116647E+00  0.28002269236E+02  0.30810845862E+02  0.00000000000E+00 0.  1.
         22    1    4    4    0    0  0.59369485071E+01 -0.69997845836E+01  0.65755133214E+01  0.11290780187E+02  0.00000000000E+00 0.  1.
<mgrwt>
<rscale>  0 0.86870840E+02</rscale>
<asrwt>0</asrwt>
<pdfrwt beam="2">  1        1 0.71353761E-02 0.86870840E+02</pdfrwt>
<pdfrwt beam="1">  1       -1 0.62581284E-02 0.86870840E+02</pdfrwt>
<totfact> 0.10611665E+05</totfact>
</mgrwt>
</event>
<event>
 7    1  0.2787125E-009  0.8902180E+02  0.7818608E-02  0.1305238E+00
          1   -1    0    0  501    0  0.00000000000E+00  0.00000000000E+00  0.27176307845E+02  0.27176308313E+02  0.50400000000E-02 0. -1.
         -1   -1    0    0    0  501 -0.00000000000E+00 -0.00000000000E+00 -0.72902472202E+02  0.72902472376E+02  0.50400000000E-02 0.  1.
         23    2    1    2    0    0 -0.71054273576E-14 -0.88817841970E-15 -0.45726164357E+02  0.10007878069E+03  0.89021796417E+02 0.  0.
    9000005    2    3    3    0    0  0.41372131717E+02  0.70373454935E+01 -0.36442298754E+02  0.57097765404E+02  0.13074255667E+02 0.  0.
         22    1    3    3    0    0 -0.41372131717E+02 -0.70373454935E+01 -0.92838656025E+01  0.42981015285E+02  0.00000000000E+00 0. -1.
         22    1    4    4    0    0  0.71318076035E+01  0.16968688416E+01 -0.78157386071E+00  0.73724420146E+01  0.00000000000E+00 0. -1.
         22    1    4    4    0    0  0.34240324113E+02  0.53404766519E+01 -0.35660724894E+02  0.49725323389E+02  0.00000000000E+00 0. -1.
<mgrwt>
<rscale>  0 0.89021796E+02</rscale>
<asrwt>0</asrwt>
<pdfrwt beam="1">  1        1 0.41809705E-02 0.89021796E+02</pdfrwt>
<pdfrwt beam="2">  1       -1 0.11215765E-01 0.89021796E+02</pdfrwt>
<totfact> 0.91375560E+04</totfact>
</mgrwt>
</event>
<event>
 7    1  0.2787125E-009  0.8721871E+02  0.7818608E-02  0.1309730E+00
          1   -1    0    0  501    0  0.00000000000E+00  0.00000000000E+00  0.19258517651E+03  0.19258517657E+03  0.50400000000E-02 0. -1.
         -1   -1    0    0    0  501 -0.00000000000E+00 -0.00000000000E+00 -0.98749858401E+01  0.98749871263E+01  0.50400000000E-02 0.  1.
         23    2    1    2    0    0  0.00000000000E+00  0.00000000000E+00  0.18271019067E+03  0.20246016370E+03  0.87218714228E+02 0.  0.
    9000005    2    3    3    0    0 -0.71979735706E+01  0.35207218775E+02  0.34255573660E+02  0.49718118447E+02  0.26623105942E+01 0.  0.
         22    1    3    3    0    0  0.71979735706E+01 -0.35207218775E+02  0.14845461701E+03  0.15274204525E+03  0.00000000000E+00 0.  1.
         22    1    4    4    0    0 -0.39896220028E+01  0.18607696254E+02  0.16318322484E+02  0.25068926828E+02  0.00000000000E+00 0.  1.
         22    1    4    4    0    0 -0.32083515678E+01  0.16599522521E+02  0.17937251176E+02  0.24649191619E+02  0.00000000000E+00 0.  1.
<mgrwt>
<rscale>  0 0.87218714E+02</rscale>
<asrwt>0</asrwt>
<pdfrwt beam="1">  1        1 0.29628484E-01 0.87218714E+02</pdfrwt>
<pdfrwt beam="2">  1       -1 0.15192290E-02 0.87218714E+02</pdfrwt>
<totfact> 0.13236275E+05</totfact>
</mgrwt>
</event>
<event>
 7    1  0.2787125E-009  0.9192629E+02  0.7818608E-02  0.1298253E+00
          1   -1    0    0  501    0  0.00000000000E+00  0.00000000000E+00  0.30834815561E+03  0.30834815565E+03  0.50400000000E-02 0. -1.
         -1   -1    0    0    0  501 -0.00000000000E+00 -0.00000000000E+00 -0.68513802823E+01  0.68513821361E+01  0.50400000000E-02 0.  1.
         23    2    1    2    0    0  0.00000000000E+00  0.00000000000E+00  0.30149677533E+03  0.31519953778E+03  0.91926291605E+02 0.  0.
    9000005    2    3    3    0    0 -0.33188078136E+02 -0.26519749601E+02  0.10043349907E+03  0.10969725870E+03  0.11910297318E+02 0.  0.
         22    1    3    3    0    0  0.33188078136E+02  0.26519749601E+02  0.20106327626E+03  0.20550227909E+03  0.00000000000E+00 0. -1.
         22    1    4    4    0    0 -0.13426662727E+02 -0.46545766417E+01  0.40249988019E+02  0.42684914094E+02  0.00000000000E+00 0. -1.
         22    1    4    4    0    0 -0.19761415410E+02 -0.21865172959E+02  0.60183511047E+02  0.67012344605E+02  0.00000000000E+00 0. -1.
<mgrwt>
<rscale>  0 0.91926292E+02</rscale>
<asrwt>0</asrwt>
<pdfrwt beam="1">  1        1 0.47438175E-01 0.91926292E+02</pdfrwt>
<pdfrwt beam="2">  1       -1 0.10540587E-02 0.91926292E+02</pdfrwt>
<totfact> 0.12601053E+05</totfact>
</mgrwt>
</event>
<event>
 7    1  0.2787125E-009  0.9137309E+02  0.7818608E-02  0.1299560E+00
          1   -1    0    0  501    0  0.00000000000E+00  0.00000000000E+00  0.16692010076E+02  0.16692010837E+02  0.50400000000E-02 0. -1.
         -1   -1    0    0    0  501 -0.00000000000E+00 -0.00000000000E+00 -0.12504548832E+03  0.12504548842E+03  0.50400000000E-02 0.  1.
         23    2    1    2    0    0  0.00000000000E+00  0.00000000000E+00 -0.10835347824E+03  0.14173749926E+03  0.91373094773E+02 0.  0.
    9000005    2    3    3    0    0 -0.93652980680E+01  0.88297669542E+01 -0.12192525162E+03  0.12303277725E+03  0.10277339296E+02 0.  0.
         22    1    3    3    0    0  0.93652980680E+01 -0.88297669542E+01  0.13571773384E+02  0.18704722001E+02  0.00000000000E+00 0. -1.
         22    1    4    4    0    0 -0.10240866180E+02  0.31388811493E+01 -0.78346117089E+02  0.79074913708E+02  0.00000000000E+00 0. -1.
         22    1    4    4    0    0  0.87556811168E+00  0.56908858049E+01 -0.43579134534E+02  0.43957863546E+02  0.00000000000E+00 0. -1.
<mgrwt>
<rscale>  0 0.91373095E+02</rscale>
<asrwt>0</asrwt>
<pdfrwt beam="1">  1        1 0.25680017E-02 0.91373095E+02</pdfrwt>
<pdfrwt beam="2">  1       -1 0.19237767E-01 0.91373095E+02</pdfrwt>
<totfact> 0.77431295E+04</totfact>
</mgrwt>
</event>
<event>
 7    1  0.2787125E-009  0.9089445E+02  0.7818608E-02  0.1300700E+00
          1   -1    0    0  501    0  0.00000000000E+00  0.00000000000E+00  0.21140109017E+02  0.21140109618E+02  0.50400000000E-02 0. -1.
         -1   -1    0    0    0  501 -0.00000000000E+00 -0.00000000000E+00 -0.97702904645E+02  0.97702904775E+02  0.50400000000E-02 0.  1.
         23    2    1    2    0    0 -0.35527136788E-14  0.00000000000E+00 -0.76562795627E+02  0.11884301439E+03  0.90894446451E+02 0.  0.
    9000005    2    3    3    0    0  0.26961260161E+02 -0.24835979975E+02 -0.72597833202E+02  0.81972207813E+02  0.10259727940E+02 0.  0.
         22    1    3    3    0    0 -0.26961260161E+02  0.24835979975E+02 -0.39649624257E+01  0.36870806580E+02  0.00000000000E+00 0. -1.
         22    1    4    4    0    0  0.24448426637E+02 -0.23244638106E+02 -0.58198522542E+02  0.67268914008E+02  0.00000000000E+00 0.  1.
         22    1    4    4    0    0  0.25128335242E+01 -0.15913418696E+01 -0.14399310660E+02  0.14703293806E+02  0.00000000000E+00 0.  1.
<mgrwt>
<rscale>  0 0.90894446E+02</rscale>
<asrwt>0</asrwt>
<pdfrwt beam="1">  1        1 0.32523246E-02 0.90894446E+02</pdfrwt>
<pdfrwt beam="2">  1       -1 0.15031216E-01 0.90894446E+02</pdfrwt>
<totfact> 0.82376121E+04</totfact>
</mgrwt>
</event>
<event>
 7    1  0.2787125E-009  0.9115897E+02  0.7818608E-02  0.1300069E+00
         -1   -1    0    0    0  501 -0.00000000000E+00  0.00000000000E+00  0.27155460457E+03  0.27155460462E+03  0.50400000000E-02 0.  1.
          1   -1    0    0  501    0  0.00000000000E+00 -0.00000000000E+00 -0.76503555030E+01  0.76503571632E+01  0.50400000000E-02 0. -1.
         23    2    1    2    0    0  0.17763568394E-14  0.71054273576E-14  0.26390424907E+03  0.27920496178E+03  0.91158971073E+02 0.  0.
    9000005    2    3    3    0    0  0.15299311327E+02  0.34612413636E+02  0.59628966770E+02  0.71453959226E+02  0.10861238703E+02 0.  0.
         22    1    3    3    0    0 -0.15299311327E+02 -0.34612413636E+02  0.20427528230E+03  0.20775100256E+03  0.00000000000E+00 0.  1.
         22    1    4    4    0    0  0.14586298420E+02  0.34047296998E+02  0.52409353737E+02  0.64177245918E+02  0.00000000000E+00 0. -1.
         22    1    4    4    0    0  0.71301290767E+00  0.56511663819E+00  0.72196130324E+01  0.72767133074E+01  0.00000000000E+00 0. -1.
<mgrwt>
<rscale>  0 0.91158971E+02</rscale>
<asrwt>0</asrwt>
<pdfrwt beam="2">  1        1 0.11769778E-02 0.91158971E+02</pdfrwt>
<pdfrwt beam="1">  1       -1 0.41777634E-01 0.91158971E+02</pdfrwt>
<totfact> 0.62944305E+04</totfact>
</mgrwt>
</event>
<event>
 7    1  0.2787125E-009  0.9096727E+02  0.7818608E-02  0.1300526E+00
          1   -1    0    0  501    0  0.00000000000E+00  0.00000000000E+00  0.91484475026E+00  0.91485863317E+00  0.50400000000E-02 0. -1.
         -1   -1    0    0    0  501 -0.00000000000E+00 -0.00000000000E+00 -0.22613075793E+04  0.22613075793E+04  0.50400000000E-02 0.  1.
         23    2    1    2    0    0  0.00000000000E+00  0.00000000000E+00 -0.22603927345E+04  0.22622224379E+04  0.90967270534E+02 0.  0.
    9000005    2    3    3    0    0  0.10160112152E+02 -0.72604153354E+01 -0.22170170617E+04  0.22170849756E+04  0.12049718873E+02 0.  0.
         22    1    3    3    0    0 -0.10160112152E+02  0.72604153354E+01 -0.43375672864E+02  0.45137462336E+02  0.00000000000E+00 0. -1.
         22    1    4    4    0    0  0.85129943742E+01 -0.10618594051E+02 -0.17562803617E+04  0.17563330933E+04  0.00000000000E+00 0.  1.
         22    1    4    4    0    0  0.16471177783E+01  0.33581787158E+01 -0.46073669996E+03  0.46075188231E+03  0.00000000000E+00 0.  1.
<mgrwt>
<rscale>  0 0.90967271E+02</rscale>
<asrwt>0</asrwt>
<pdfrwt beam="1">  1        1 0.14074822E-03 0.90967271E+02</pdfrwt>
<pdfrwt beam="2">  1       -1 0.34788900E+00 0.90967271E+02</pdfrwt>
<totfact> 0.46918593E+03</totfact>
</mgrwt>
</event>
<event>
 7    1  0.2787125E-009  0.8972999E+02  0.7818608E-02  0.1303507E+00
         -1   -1    0    0    0  501 -0.00000000000E+00  0.00000000000E+00  0.40211652262E+01  0.40211683847E+01  0.50400000000E-02 0.  1.
          1   -1    0    0  501    0  0.00000000000E+00 -0.00000000000E+00 -0.50056808677E+03  0.50056808679E+03  0.50400000000E-02 0. -1.
         23    2    1    2    0    0  0.00000000000E+00  0.00000000000E+00 -0.49654692154E+03  0.50458925518E+03  0.89729990240E+02 0.  0.
    9000005    2    3    3    0    0  0.29860670652E+01  0.18299686237E+02 -0.47721131822E+03  0.47780006578E+03  0.14780578712E+02 0.  0.
         22    1    3    3    0    0 -0.29860670652E+01 -0.18299686237E+02 -0.19335603321E+02  0.26789189400E+02  0.00000000000E+00 0.  1.
         22    1    4    4    0    0  0.11593623536E+01  0.59110024484E+01 -0.44298164547E+02  0.44705832430E+02  0.00000000000E+00 0. -1.
         22    1    4    4    0    0  0.18267047115E+01  0.12388683789E+02 -0.43291315368E+03  0.43309423335E+03  0.00000000000E+00 0. -1.
<mgrwt>
<rscale>  0 0.89729990E+02</rscale>
<asrwt>0</asrwt>
<pdfrwt beam="2">  1        1 0.77010426E-01 0.89729990E+02</pdfrwt>
<pdfrwt beam="1">  1       -1 0.61864145E-03 0.89729990E+02</pdfrwt>
<totfact> 0.14530772E+05</totfact>
</mgrwt>
</event>
<event>
 7    1  0.2787125E-009  0.1121922E+03  0.7818608E-02  0.1256563E+00
          1   -1    0    0  501    0  0.00000000000E+00  0.00000000000E+00  0.37550657592E+02  0.37550657930E+02  0.50400000000E-02 0. -1.
         -1   -1    0    0    0  501 -0.00000000000E+00 -0.00000000000E+00 -0.83800694505E+02  0.83800694656E+02  0.50400000000E-02 0.  1.
         23    2    1    2    0    0  0.00000000000E+00  0.44408920985E-15 -0.46250036912E+02  0.12135135259E+03  0.11219217825E+03 0.  0.
    9000005    2    3    3    0    0 -0.40809752939E+02  0.10222895091E+01 -0.63952117185E+02  0.76855907238E+02  0.12266873036E+02 0.  0.
         22    1    3    3    0    0  0.40809752939E+02 -0.10222895091E+01  0.17702080273E+02  0.44495445349E+02  0.00000000000E+00 0. -1.
         22    1    4    4    0    0 -0.18373298697E+02  0.40824575050E+01 -0.20317601620E+02  0.27695658502E+02  0.00000000000E+00 0. -1.
         22    1    4    4    0    0 -0.22436454242E+02 -0.30601679959E+01 -0.43634515565E+02  0.49160248736E+02  0.00000000000E+00 0. -1.
<mgrwt>
<rscale>  0 0.11219218E+03</rscale>
<asrwt>0</asrwt>
<pdfrwt beam="1">  1        1 0.57770243E-02 0.11219218E+03</pdfrwt>
<pdfrwt beam="2">  1       -1 0.12892415E-01 0.11219218E+03</pdfrwt>
<totfact> 0.49299386E+04</totfact>
</mgrwt>
</event>
<event>
 7    1  0.2787125E-009  0.9072338E+02  0.7818608E-02  0.1301109E+00
         -1   -1    0    0    0  501 -0.00000000000E+00  0.00000000000E+00  0.10321097658E+02  0.10321098889E+02  0.50400000000E-02 0.  1.
          1   -1    0    0  501    0  0.00000000000E+00 -0.00000000000E+00 -0.19936665304E+03  0.19936665310E+03  0.50400000000E-02 0. -1.
         23    2    1    2    0    0  0.00000000000E+00  0.00000000000E+00 -0.18904555538E+03  0.20968775199E+03  0.90723378056E+02 0.  0.
    9000005    2    3    3    0    0 -0.33867140353E+02 -0.25698065065E+02 -0.12696406009E+03  0.13444490647E+03  0.12173190994E+02 0.  0.
         22    1    3    3    0    0  0.33867140353E+02  0.25698065065E+02 -0.62081495289E+02  0.75242845514E+02  0.00000000000E+00 0.  1.
         22    1    4    4    0    0  0.25266694938E+00 -0.34115073225E+01 -0.11613146336E+02  0.12106501998E+02  0.00000000000E+00 0. -1.
         22    1    4    4    0    0 -0.34119807302E+02 -0.22286557742E+02 -0.11535091375E+03  0.12233840448E+03  0.00000000000E+00 0. -1.
<mgrwt>
<rscale>  0 0.90723378E+02</rscale>
<asrwt>0</asrwt>
<pdfrwt beam="2">  1        1 0.30671790E-01 0.90723378E+02</pdfrwt>
<pdfrwt beam="1">  1       -1 0.15878614E-02 0.90723378E+02</pdfrwt>
<totfact> 0.11992530E+05</totfact>
</mgrwt>
</event>
<event>
 7    1  0.2787125E-009  0.8958954E+02  0.7818608E-02  0.1303849E+00
          1   -1    0    0  501    0  0.00000000000E+00  0.00000000000E+00  0.52317812538E+01  0.52317836814E+01  0.50400000000E-02 0. -1.
         -1   -1    0    0    0  501 -0.00000000000E+00 -0.00000000000E+00 -0.38353497632E+03  0.38353497635E+03  0.50400000000E-02 0.  1.
         23    2    1    2    0    0  0.35527136788E-14  0.00000000000E+00 -0.37830319507E+03  0.38876676004E+03  0.89589543533E+02 0.  0.
    9000005    2    3    3    0    0 -0.17746187750E+02 -0.32255991484E+02 -0.29848296564E+03  0.30086542220E+03  0.85173550021E+01 0.  0.
         22    1    3    3    0    0  0.17746187750E+02  0.32255991484E+02 -0.79820229430E+02  0.87901337832E+02  0.00000000000E+00 0. -1.
         22    1    4    4    0    0 -0.13131667477E+02 -0.29781369039E+02 -0.25564349268E+03  0.25770713219E+03  0.00000000000E+00 0. -1.
         22    1    4    4    0    0 -0.46145202727E+01 -0.24746224447E+01 -0.42839472953E+02  0.43158290009E+02  0.00000000000E+00 0. -1.
<mgrwt>
<rscale>  0 0.89589544E+02</rscale>
<asrwt>0</asrwt>
<pdfrwt beam="1">  1        1 0.80488992E-03 0.89589544E+02</pdfrwt>
<pdfrwt beam="2">  1       -1 0.59005359E-01 0.89589544E+02</pdfrwt>
<totfact> 0.56971087E+04</totfact>
</mgrwt>
</event>
<event>
 7    1  0.2787125E-009  0.9223919E+02  0.7818608E-02  0.1297518E+00
         -1   -1    0    0    0  501 -0.00000000000E+00  0.00000000000E+00  0.86879508110E+02  0.86879508256E+02  0.50400000000E-02 0.  1.
          1   -1    0    0  501    0  0.00000000000E+00 -0.00000000000E+00 -0.24482378950E+02  0.24482379468E+02  0.50400000000E-02 0. -1.
         23    2    1    2    0    0  0.00000000000E+00  0.00000000000E+00  0.62397129160E+02  0.11136188772E+03  0.92239190750E+02 0.  0.
    9000005    2    3    3    0    0 -0.41754992820E+02  0.10824644194E+02  0.48493696306E+02  0.66041276603E+02  0.12213078504E+02 0.  0.
         22    1    3    3    0    0  0.41754992820E+02 -0.10824644194E+02  0.13903432854E+02  0.45320611122E+02  0.00000000000E+00 0.  1.
         22    1    4    4    0    0 -0.42618096655E+02  0.10399374386E+02  0.47424653717E+02  0.64602994747E+02  0.00000000000E+00 0. -1.
         22    1    4    4    0    0  0.86310383475E+00  0.42526980795E+00  0.10690425894E+01  0.14382818559E+01  0.00000000000E+00 0. -1.
<mgrwt>
<rscale>  0 0.92239191E+02</rscale>
<asrwt>0</asrwt>
<pdfrwt beam="2">  1        1 0.37665199E-02 0.92239191E+02</pdfrwt>
<pdfrwt beam="1">  1       -1 0.13366078E-01 0.92239191E+02</pdfrwt>
<totfact> 0.81012002E+04</totfact>
</mgrwt>
</event>
<event>
 7    1  0.2787125E-009  0.8911456E+02  0.7818608E-02  0.1305010E+00
         -1   -1    0    0    0  501 -0.00000000000E+00  0.00000000000E+00  0.59391483510E+02  0.59391483724E+02  0.50400000000E-02 0.  1.
          1   -1    0    0  501    0  0.00000000000E+00 -0.00000000000E+00 -0.33428210403E+02  0.33428210783E+02  0.50400000000E-02 0. -1.
         23    2    1    2    0    0  0.00000000000E+00 -0.35527136788E-14  0.25963273108E+02  0.92819694507E+02  0.89114556263E+02 0.  0.
    9000005    2    3    3    0    0 -0.22719593942E+01  0.16453248941E+02 -0.28243311878E+02  0.36125558514E+02  0.15215127732E+02 0.  0.
         22    1    3    3    0    0  0.22719593942E+01 -0.16453248941E+02  0.54206584986E+02  0.56694135993E+02  0.00000000000E+00 0.  1.
         22    1    4    4    0    0 -0.95664392157E+00  0.19306332420E+01  0.17497241616E+01  0.27756164990E+01  0.00000000000E+00 0. -1.
         22    1    4    4    0    0 -0.13153154726E+01  0.14522615699E+02 -0.29993036040E+02  0.33349942015E+02  0.00000000000E+00 0. -1.
<mgrwt>
<rscale>  0 0.89114556E+02</rscale>
<asrwt>0</asrwt>
<pdfrwt beam="2">  1        1 0.51428017E-02 0.89114556E+02</pdfrwt>
<pdfrwt beam="1">  1       -1 0.91371512E-02 0.89114556E+02</pdfrwt>
<totfact> 0.94118242E+04</totfact>
</mgrwt>
</event>
<event>
 7    1  0.2787125E-009  0.9358478E+02  0.7818608E-02  0.1294396E+00
          1   -1    0    0  501    0  0.00000000000E+00  0.00000000000E+00  0.79818030317E+02  0.79818030476E+02  0.50400000000E-02 0. -1.
         -1   -1    0    0    0  501 -0.00000000000E+00 -0.00000000000E+00 -0.27431492930E+02  0.27431493393E+02  0.50400000000E-02 0.  1.
         23    2    1    2    0    0  0.00000000000E+00  0.00000000000E+00  0.52386537387E+02  0.10724952387E+03  0.93584780123E+02 0.  0.
    9000005    2    3    3    0    0  0.74982095493E+01  0.44379170456E+02  0.38522970675E+02  0.60154594218E+02  0.10431779286E+02 0.  0.
         22    1    3    3    0    0 -0.74982095493E+01 -0.44379170456E+02  0.13863566712E+02  0.47094929651E+02  0.00000000000E+00 0.  1.
         22    1    4    4    0    0  0.23333921117E+01  0.34941922054E+02  0.25826210152E+02  0.43512937920E+02  0.00000000000E+00 0.  1.
         22    1    4    4    0    0  0.51648174376E+01  0.94372484018E+01  0.12696760524E+02  0.16641656299E+02  0.00000000000E+00 0.  1.
<mgrwt>
<rscale>  0 0.93584780E+02</rscale>
<asrwt>0</asrwt>
<pdfrwt beam="1">  1        1 0.12279697E-01 0.93584780E+02</pdfrwt>
<pdfrwt beam="2">  1       -1 0.42202298E-02 0.93584780E+02</pdfrwt>
<totfact> 0.93735572E+04</totfact>
</mgrwt>
</event>
<event>
 7    1  0.2787125E-009  0.9362264E+02  0.7818608E-02  0.1294309E+00
          1   -1    0    0  501    0  0.00000000000E+00  0.00000000000E+00  0.24690878640E+02  0.24690879154E+02  0.50400000000E-02 0. -1.
         -1   -1    0    0    0  501 -0.00000000000E+00 -0.00000000000E+00 -0.88749355561E+02  0.88749355704E+02  0.50400000000E-02 0.  1.
         23    2    1    2    0    0  0.00000000000E+00  0.00000000000E+00 -0.64058476921E+02  0.11344023486E+03  0.93622638391E+02 0.  0.
    9000005    2    3    3    0    0  0.18146605982E+02  0.37315282773E+02 -0.58660768591E+01  0.41969366233E+02  0.22993927851E+01 0.  0.
         22    1    3    3    0    0 -0.18146605982E+02 -0.37315282773E+02 -0.58192400062E+02  0.71470868626E+02  0.00000000000E+00 0.  1.
         22    1    4    4    0    0  0.10121353612E+02  0.21558397888E+02 -0.22651567641E+01  0.23923571088E+02  0.00000000000E+00 0.  1.
         22    1    4    4    0    0  0.80252523697E+01  0.15756884885E+02 -0.36009200950E+01  0.18045795144E+02  0.00000000000E+00 0.  1.
<mgrwt>
<rscale>  0 0.93622638E+02</rscale>
<asrwt>0</asrwt>
<pdfrwt beam="1">  1        1 0.37985968E-02 0.93622638E+02</pdfrwt>
<pdfrwt beam="2">  1       -1 0.13653747E-01 0.93622638E+02</pdfrwt>
<totfact> 0.77677683E+04</totfact>
</mgrwt>
</event>
<event>
 7    1  0.2787125E-009  0.9801916E+02  0.7818608E-02  0.1284517E+00
         -1   -1    0    0    0  501 -0.00000000000E+00  0.00000000000E+00  0.97723364907E+01  0.97723377904E+01  0.50400000000E-02 0.  1.
          1   -1    0    0  501    0  0.00000000000E+00 -0.00000000000E+00 -0.24578959889E+03  0.24578959894E+03  0.50400000000E-02 0. -1.
         23    2    1    2    0    0  0.00000000000E+00  0.35527136788E-14 -0.23601726240E+03  0.25556193673E+03  0.98019158105E+02 0.  0.
    9000005    2    3    3    0    0 -0.33071822475E+02 -0.22529330693E+02 -0.51268791872E+02  0.66529364022E+02  0.14012532740E+02 0.  0.
         22    1    3    3    0    0  0.33071822475E+02  0.22529330693E+02 -0.18474847052E+03  0.18903257271E+03  0.00000000000E+00 0. -1.
         22    1    4    4    0    0 -0.14769770072E+02 -0.18473627083E+02 -0.28399074547E+02  0.36958469134E+02  0.00000000000E+00 0.  1.
         22    1    4    4    0    0 -0.18302052403E+02 -0.40557036098E+01 -0.22869717325E+02  0.29570894888E+02  0.00000000000E+00 0.  1.
<mgrwt>
<rscale>  0 0.98019158E+02</rscale>
<asrwt>0</asrwt>
<pdfrwt beam="2">  1        1 0.37813780E-01 0.98019158E+02</pdfrwt>
<pdfrwt beam="1">  1       -1 0.15034367E-02 0.98019158E+02</pdfrwt>
<totfact> 0.10150176E+05</totfact>
</mgrwt>
</event>
<event>
 7    1  0.2787125E-009  0.9326261E+02  0.7818608E-02  0.1295138E+00
         -1   -1    0    0    0  501 -0.00000000000E+00  0.00000000000E+00  0.40566744008E+03  0.40566744011E+03  0.50400000000E-02 0.  1.
          1   -1    0    0  501    0  0.00000000000E+00 -0.00000000000E+00 -0.53602479692E+01  0.53602503386E+01  0.50400000000E-02 0. -1.
         23    2    1    2    0    0  0.00000000000E+00  0.00000000000E+00  0.40030719211E+03  0.41102769045E+03  0.93262609126E+02 0.  0.
    9000005    2    3    3    0    0  0.44187227287E+02 -0.25204667196E+01  0.15567534828E+03  0.16242438632E+03  0.13711433250E+02 0.  0.
         22    1    3    3    0    0 -0.44187227287E+02  0.25204667196E+01  0.24463184383E+03  0.24860330413E+03  0.00000000000E+00 0.  1.
         22    1    4    4    0    0  0.32648657156E+02  0.31952216986E+01  0.98577303542E+02  0.10389239159E+03  0.00000000000E+00 0. -1.
         22    1    4    4    0    0  0.11538570131E+02 -0.57156884181E+01  0.57098044734E+02  0.58531994731E+02  0.00000000000E+00 0. -1.
<mgrwt>
<rscale>  0 0.93262609E+02</rscale>
<asrwt>0</asrwt>
<pdfrwt beam="2">  1        1 0.82465378E-03 0.93262609E+02</pdfrwt>
<pdfrwt beam="1">  1       -1 0.62410371E-01 0.93262609E+02</pdfrwt>
<totfact> 0.49861527E+04</totfact>
</mgrwt>
</event>
<event>
 7    1  0.2787125E-009  0.9121815E+02  0.7818608E-02  0.1299928E+00
         -1   -1    0    0    0  501 -0.00000000000E+00  0.00000000000E+00  0.39915968317E+03  0.39915968320E+03  0.50400000000E-02 0.  1.
          1   -1    0    0  501    0  0.00000000000E+00 -0.00000000000E+00 -0.52114161650E+01  0.52114186021E+01  0.50400000000E-02 0. -1.
         23    2    1    2    0    0  0.00000000000E+00  0.00000000000E+00  0.39394826701E+03  0.40437110181E+03  0.91218150047E+02 0.  0.
    9000005    2    3    3    0    0 -0.10249375379E+02  0.32554049813E+02  0.32813843123E+03  0.33023777367E+03  0.14742498316E+02 0.  0.
         22    1    3    3    0    0  0.10249375379E+02 -0.32554049813E+02  0.65809835780E+02  0.74133328134E+02  0.00000000000E+00 0. -1.
         22    1    4    4    0    0 -0.11271113917E+02  0.15576677558E+02  0.21048984055E+03  0.21136613700E+03  0.00000000000E+00 0. -1.
         22    1    4    4    0    0  0.10217385376E+01  0.16977372255E+02  0.11764859068E+03  0.11887163668E+03  0.00000000000E+00 0. -1.
<mgrwt>
<rscale>  0 0.91218150E+02</rscale>
<asrwt>0</asrwt>
<pdfrwt beam="2">  1        1 0.80175614E-03 0.91218150E+02</pdfrwt>
<pdfrwt beam="1">  1       -1 0.61409212E-01 0.91218150E+02</pdfrwt>
<totfact> 0.53283083E+04</totfact>
</mgrwt>
</event>
<event>
 6    1  0.2787125E-009  0.1573369E+03  0.7818608E-02  0.1191737E+00
         -1   -1    0    0    0  501 -0.00000000000E+00  0.00000000000E+00  0.26748223975E+02  0.26748224450E+02  0.50400000000E-02 0.  1.
          1   -1    0    0  501    0  0.00000000000E+00 -0.00000000000E+00 -0.23136946194E+03  0.23136946199E+03  0.50400000000E-02 0. -1.
    9000005    2    1    2    0    0 -0.41240918593E+02 -0.63489642260E+02 -0.13534867177E+03  0.15549977150E+03  0.11365207673E+02 0.  0.
         22    1    1    2    0    0  0.41240918593E+02  0.63489642260E+02 -0.69272566190E+02  0.10261791494E+03  0.00000000000E+00 0.  1.
         22    1    3    3    0    0 -0.16451405343E+02 -0.16520771762E+02 -0.37171294046E+02  0.43878123689E+02  0.00000000000E+00 0. -1.
         22    1    3    3    0    0 -0.24789513250E+02 -0.46968870497E+02 -0.98177377724E+02  0.11162164781E+03  0.00000000000E+00 0. -1.
<mgrwt>
<rscale>  0 0.15733686E+03</rscale>
<asrwt>0</asrwt>
<pdfrwt beam="2">  1        1 0.35595301E-01 0.15733686E+03</pdfrwt>
<pdfrwt beam="1">  1       -1 0.41151116E-02 0.15733686E+03</pdfrwt>
<totfact> 0.27016951E+04</totfact>
</mgrwt>
</event>
<event>
 7    1  0.2787125E-009  0.9256190E+02  0.7818608E-02  0.1296764E+00
          1   -1    0    0  501    0  0.00000000000E+00  0.00000000000E+00  0.11959773061E+03  0.11959773072E+03  0.50400000000E-02 0. -1.
         -1   -1    0    0    0  501 -0.00000000000E+00 -0.00000000000E+00 -0.17909420817E+02  0.17909421526E+02  0.50400000000E-02 0.  1.
         23    2    1    2    0    0  0.00000000000E+00 -0.71054273576E-14  0.10168830979E+03  0.13750715224E+03  0.92561895881E+02 0.  0.
    9000005    2    3    3    0    0 -0.25102543799E+01  0.36817865931E+02  0.12022178470E+02  0.40543902837E+02  0.11722570251E+02 0.  0.
         22    1    3    3    0    0  0.25102543799E+01 -0.36817865931E+02  0.89666131324E+02  0.96963249406E+02  0.00000000000E+00 0. -1.
         22    1    4    4    0    0 -0.28365641148E+01  0.59430525459E+01  0.63549522322E+01  0.91515784111E+01  0.00000000000E+00 0. -1.
         22    1    4    4    0    0  0.32630973481E+00  0.30874813385E+02  0.56672262377E+01  0.31392324425E+02  0.00000000000E+00 0. -1.
<mgrwt>
<rscale>  0 0.92561896E+02</rscale>
<asrwt>0</asrwt>
<pdfrwt beam="1">  1        1 0.18399650E-01 0.92561896E+02</pdfrwt>
<pdfrwt beam="2">  1       -1 0.27552956E-02 0.92561896E+02</pdfrwt>
<totfact> 0.10335386E+05</totfact>
</mgrwt>
</event>
<event>
 7    1  0.2787125E-009  0.8958190E+02  0.7818608E-02  0.1303867E+00
          1   -1    0    0  501    0  0.00000000000E+00  0.00000000000E+00  0.43676710234E+03  0.43676710237E+03  0.50400000000E-02 0. -1.
         -1   -1    0    0    0  501 -0.00000000000E+00 -0.00000000000E+00 -0.45933600530E+01  0.45933628180E+01  0.50400000000E-02 0.  1.
         23    2    1    2    0    0  0.00000000000E+00  0.00000000000E+00  0.43217374229E+03  0.44136046519E+03  0.89581899443E+02 0.  0.
    9000005    2    3    3    0    0 -0.91444735067E+01  0.19780491047E+02  0.40840696361E+03  0.40911532616E+03  0.10208474832E+02 0.  0.
         22    1    3    3    0    0  0.91444735067E+01 -0.19780491047E+02  0.23766778681E+02  0.32245139023E+02  0.00000000000E+00 0.  1.
         22    1    4    4    0    0 -0.23612669393E+01  0.38673019669E+01  0.17889588951E+03  0.17895326454E+03  0.00000000000E+00 0.  1.
         22    1    4    4    0    0 -0.67832065674E+01  0.15913189080E+02  0.22951107409E+03  0.23016206162E+03  0.00000000000E+00 0.  1.
<mgrwt>
<rscale>  0 0.89581899E+02</rscale>
<asrwt>0</asrwt>
<pdfrwt beam="1">  1        1 0.67194937E-01 0.89581899E+02</pdfrwt>
<pdfrwt beam="2">  1       -1 0.70667101E-03 0.89581899E+02</pdfrwt>
<totfact> 0.14330820E+05</totfact>
</mgrwt>
</event>
<event>
 7    1  0.2787125E-009  0.8970102E+02  0.7818608E-02  0.1303577E+00
         -1   -1    0    0    0  501 -0.00000000000E+00  0.00000000000E+00  0.25659541622E+03  0.25659541627E+03  0.50400000000E-02 0.  1.
          1   -1    0    0  501    0  0.00000000000E+00 -0.00000000000E+00 -0.78394546682E+01  0.78394562883E+01  0.50400000000E-02 0. -1.
         23    2    1    2    0    0  0.00000000000E+00  0.00000000000E+00  0.24875596155E+03  0.26443487256E+03  0.89701022386E+02 0.  0.
    9000005    2    3    3    0    0 -0.43633398905E+02  0.63438105183E+01  0.14389912858E+03  0.15068482705E+03  0.74054348606E+01 0.  0.
         22    1    3    3    0    0  0.43633398905E+02 -0.63438105183E+01  0.10485683298E+03  0.11375004551E+03  0.00000000000E+00 0. -1.
         22    1    4    4    0    0 -0.25015595074E+02 -0.27434156145E-01  0.78516170022E+02  0.82404913109E+02  0.00000000000E+00 0.  1.
         22    1    4    4    0    0 -0.18617803831E+02  0.63712446744E+01  0.65382958554E+02  0.68279913938E+02  0.00000000000E+00 0.  1.
<mgrwt>
<rscale>  0 0.89701022E+02</rscale>
<asrwt>0</asrwt>
<pdfrwt beam="2">  1        1 0.12060704E-02 0.89701022E+02</pdfrwt>
<pdfrwt beam="1">  1       -1 0.39476206E-01 0.89701022E+02</pdfrwt>
<totfact> 0.66981946E+04</totfact>
</mgrwt>
</event>
<event>
 7    1  0.2787125E-009  0.8684248E+02  0.7818608E-02  0.1310683E+00
         -1   -1    0    0    0  501 -0.00000000000E+00  0.00000000000E+00  0.14171672045E+01  0.14171761666E+01  0.50400000000E-02 0.  1.
          1   -1    0    0  501    0  0.00000000000E+00 -0.00000000000E+00 -0.13303992348E+04  0.13303992348E+04  0.50400000000E-02 0. -1.
         23    2    1    2    0    0  0.44408920985E-15  0.00000000000E+00 -0.13289820676E+04  0.13318164109E+04  0.86842481279E+02 0.  0.
    9000005    2    3    3    0    0 -0.21142900848E+01 -0.24505819776E+02 -0.12121709447E+04  0.12124437011E+04  0.75049179285E+01 0.  0.
         22    1    3    3    0    0  0.21142900848E+01  0.24505819776E+02 -0.11681112289E+03  0.11937270984E+03  0.00000000000E+00 0.  1.
         22    1    4    4    0    0 -0.74160011995E+00 -0.23883696803E+02 -0.11737594810E+04  0.11740026832E+04  0.00000000000E+00 0.  1.
         22    1    4    4    0    0 -0.13726899648E+01 -0.62212297323E+00 -0.38411463658E+02  0.38441017872E+02  0.00000000000E+00 0.  1.
<mgrwt>
<rscale>  0 0.86842481E+02</rscale>
<asrwt>0</asrwt>
<pdfrwt beam="2">  1        1 0.20467581E+00 0.86842481E+02</pdfrwt>
<pdfrwt beam="1">  1       -1 0.21802748E-03 0.86842481E+02</pdfrwt>
<totfact> 0.13691671E+05</totfact>
</mgrwt>
</event>
<event>
 7    1  0.2787125E-009  0.9147062E+02  0.7818608E-02  0.1299329E+00
         -1   -1    0    0    0  501 -0.00000000000E+00  0.00000000000E+00  0.20723000764E+03  0.20723000770E+03  0.50400000000E-02 0.  1.
          1   -1    0    0  501    0  0.00000000000E+00 -0.00000000000E+00 -0.10093705250E+02  0.10093706508E+02  0.50400000000E-02 0. -1.
         23    2    1    2    0    0  0.35527136788E-14 -0.35527136788E-14  0.19713630239E+03  0.21732371421E+03  0.91470623905E+02 0.  0.
    9000005    2    3    3    0    0 -0.25966504114E+02  0.26335249998E+02  0.16205095638E+03  0.16634542243E+03  0.65178501500E+01 0.  0.
         22    1    3    3    0    0  0.25966504114E+02 -0.26335249998E+02  0.35085346010E+02  0.50978291782E+02  0.00000000000E+00 0. -1.
         22    1    4    4    0    0 -0.11661953695E+02  0.85589651826E+01  0.53411795928E+02  0.55336037021E+02  0.00000000000E+00 0.  1.
         22    1    4    4    0    0 -0.14304550418E+02  0.17776284815E+02  0.10863916045E+03  0.11100938541E+03  0.00000000000E+00 0.  1.
<mgrwt>
<rscale>  0 0.91470624E+02</rscale>
<asrwt>0</asrwt>
<pdfrwt beam="2">  1        1 0.15528779E-02 0.91470624E+02</pdfrwt>
<pdfrwt beam="1">  1       -1 0.31881538E-01 0.91470624E+02</pdfrwt>
<totfact> 0.68139456E+04</totfact>
</mgrwt>
</event>
<event>
 7    1  0.2787125E-009  0.9333990E+02  0.7818608E-02  0.1294959E+00
          1   -1    0    0  501    0  0.00000000000E+00  0.00000000000E+00  0.53822020215E+02  0.53822020451E+02  0.50400000000E-02 0. -1.
         -1   -1    0    0    0  501 -0.00000000000E+00 -0.00000000000E+00 -0.40468271531E+02  0.40468271844E+02  0.50400000000E-02 0.  1.
         23    2    1    2    0    0  0.00000000000E+00 -0.17763568394E-14  0.13353748685E+02  0.94290292296E+02  0.93339898314E+02 0.  0.
    9000005    2    3    3    0    0 -0.27787765901E+02 -0.10294213514E+02 -0.28658013178E+02  0.42879020181E+02  0.11798215404E+02 0.  0.
         22    1    3    3    0    0  0.27787765901E+02  0.10294213514E+02  0.42011761863E+02  0.51411272115E+02  0.00000000000E+00 0. -1.
         22    1    4    4    0    0 -0.75622178292E+01  0.21790220010E+01 -0.96314892109E+01  0.12437880036E+02  0.00000000000E+00 0. -1.
         22    1    4    4    0    0 -0.20225548072E+02 -0.12473235515E+02 -0.19026523967E+02  0.30441140145E+02  0.00000000000E+00 0. -1.
<mgrwt>
<rscale>  0 0.93339898E+02</rscale>
<asrwt>0</asrwt>
<pdfrwt beam="1">  1        1 0.82803109E-02 0.93339898E+02</pdfrwt>
<pdfrwt beam="2">  1       -1 0.62258879E-02 0.93339898E+02</pdfrwt>
<totfact> 0.88794929E+04</totfact>
</mgrwt>
</event>
<event>
 7    1  0.2787125E-009  0.9053598E+02  0.7818608E-02  0.1301559E+00
         -1   -1    0    0    0  501 -0.00000000000E+00  0.00000000000E+00  0.92291602037E+02  0.92291602174E+02  0.50400000000E-02 0.  1.
          1   -1    0    0  501    0  0.00000000000E+00 -0.00000000000E+00 -0.22203439971E+02  0.22203440543E+02  0.50400000000E-02 0. -1.
         23    2    1    2    0    0  0.00000000000E+00 -0.17763568394E-14  0.70088162066E+02  0.11449504272E+03  0.90535983703E+02 0.  0.
    9000005    2    3    3    0    0 -0.37849486983E+02 -0.12988428852E+02  0.99494890132E+01  0.42259712404E+02  0.92524597751E+01 0.  0.
         22    1    3    3    0    0  0.37849486983E+02  0.12988428852E+02  0.60138673053E+02  0.72235330313E+02  0.00000000000E+00 0.  1.
         22    1    4    4    0    0 -0.24201215826E+02 -0.93647607301E+01  0.19330422942E+01  0.26021803233E+02  0.00000000000E+00 0. -1.
         22    1    4    4    0    0 -0.13648271157E+02 -0.36236681220E+01  0.80164467190E+01  0.16237909171E+02  0.00000000000E+00 0. -1.
<mgrwt>
<rscale>  0 0.90535984E+02</rscale>
<asrwt>0</asrwt>
<pdfrwt beam="2">  1        1 0.34159140E-02 0.90535984E+02</pdfrwt>
<pdfrwt beam="1">  1       -1 0.14198708E-01 0.90535984E+02</pdfrwt>
<totfact> 0.84080441E+04</totfact>
</mgrwt>
</event>
<event>
 7    1  0.2787125E-009  0.9266322E+02  0.7818608E-02  0.1296528E+00
          1   -1    0    0  501    0  0.00000000000E+00  0.00000000000E+00  0.13710939359E+03  0.13710939368E+03  0.50400000000E-02 0. -1.
         -1   -1    0    0    0  501 -0.00000000000E+00 -0.00000000000E+00 -0.15656244848E+02  0.15656245660E+02  0.50400000000E-02 0.  1.
         23    2    1    2    0    0  0.00000000000E+00  0.00000000000E+00  0.12145314874E+03  0.15276563934E+03  0.92663224768E+02 0.  0.
    9000005    2    3    3    0    0  0.18791806294E+02  0.36643977149E+02  0.95524178220E+02  0.10410123184E+03  0.40354431380E+01 0.  0.
         22    1    3    3    0    0 -0.18791806294E+02 -0.36643977149E+02  0.25928970524E+02  0.48664407502E+02  0.00000000000E+00 0.  1.
         22    1    4    4    0    0  0.18255955446E+02  0.33585974549E+02  0.86942412338E+02  0.94975158114E+02  0.00000000000E+00 0.  1.
         22    1    4    4    0    0  0.53585084790E+00  0.30580026009E+01  0.85817658812E+01  0.91260737274E+01  0.00000000000E+00 0.  1.
<mgrwt>
<rscale>  0 0.92663225E+02</rscale>
<asrwt>0</asrwt>
<pdfrwt beam="1">  1        1 0.21093753E-01 0.92663225E+02</pdfrwt>
<pdfrwt beam="2">  1       -1 0.24086531E-02 0.92663225E+02</pdfrwt>
<totfact> 0.10558674E+05</totfact>
</mgrwt>
</event>
<event>
 7    1  0.2787125E-009  0.8979724E+02  0.7818608E-02  0.1303343E+00
          1   -1    0    0  501    0  0.00000000000E+00  0.00000000000E+00  0.57002493321E+02  0.57002493543E+02  0.50400000000E-02 0. -1.
         -1   -1    0    0    0  501 -0.00000000000E+00 -0.00000000000E+00 -0.35364876840E+02  0.35364877200E+02  0.50400000000E-02 0.  1.
         23    2    1    2    0    0  0.00000000000E+00  0.00000000000E+00  0.21637616480E+02  0.92367370743E+02  0.89797242335E+02 0.  0.
    9000005    2    3    3    0    0  0.10471082252E+02  0.40506014872E+02 -0.39095251789E+01  0.43346586872E+02  0.10642434026E+02 0.  0.
         22    1    3    3    0    0 -0.10471082252E+02 -0.40506014872E+02  0.25547141659E+02  0.49020783871E+02  0.00000000000E+00 0. -1.
         22    1    4    4    0    0  0.57427576146E+01  0.29501606892E+02  0.17361447894E+01  0.30105452546E+02  0.00000000000E+00 0. -1.
         22    1    4    4    0    0  0.47283246378E+01  0.11004407980E+02 -0.56456699684E+01  0.13241134327E+02  0.00000000000E+00 0. -1.
<mgrwt>
<rscale>  0 0.89797242E+02</rscale>
<asrwt>0</asrwt>
<pdfrwt beam="1">  1        1 0.87696143E-02 0.89797242E+02</pdfrwt>
<pdfrwt beam="2">  1       -1 0.54407504E-02 0.89797242E+02</pdfrwt>
<totfact> 0.99759694E+04</totfact>
</mgrwt>
</event>
<event>
 7    1  0.2787125E-009  0.9623786E+02  0.7818608E-02  0.1288412E+00
          1   -1    0    0  501    0  0.00000000000E+00  0.00000000000E+00  0.20378656425E+02  0.20378657048E+02  0.50400000000E-02 0. -1.
         -1   -1    0    0    0  501 -0.00000000000E+00 -0.00000000000E+00 -0.11362040571E+03  0.11362040582E+03  0.50400000000E-02 0.  1.
         23    2    1    2    0    0  0.00000000000E+00  0.00000000000E+00 -0.93241749281E+02  0.13399906287E+03  0.96237856584E+02 0.  0.
    9000005    2    3    3    0    0  0.13702243181E+02  0.57298243933E+01 -0.11013503446E+03  0.11150538731E+03  0.91182907903E+01 0.  0.
         22    1    3    3    0    0 -0.13702243181E+02 -0.57298243933E+01  0.16893285183E+02  0.22493675556E+02  0.00000000000E+00 0. -1.
         22    1    4    4    0    0  0.69185258475E+01 -0.10819576101E+00 -0.26337463117E+02  0.27231226004E+02  0.00000000000E+00 0.  1.
         22    1    4    4    0    0  0.67837173339E+01  0.58380201543E+01 -0.83797571346E+02  0.84274161305E+02  0.00000000000E+00 0.  1.
<mgrwt>
<rscale>  0 0.96237857E+02</rscale>
<asrwt>0</asrwt>
<pdfrwt beam="1">  1        1 0.31351780E-02 0.96237857E+02</pdfrwt>
<pdfrwt beam="2">  1       -1 0.17480062E-01 0.96237857E+02</pdfrwt>
<totfact> 0.69043380E+04</totfact>
</mgrwt>
</event>
<event>
 7    1  0.2787125E-009  0.8987721E+02  0.7818608E-02  0.1303149E+00
          1   -1    0    0  501    0  0.00000000000E+00  0.00000000000E+00  0.18887482762E+02  0.18887483435E+02  0.50400000000E-02 0. -1.
         -1   -1    0    0    0  501 -0.00000000000E+00 -0.00000000000E+00 -0.10692151180E+03  0.10692151192E+03  0.50400000000E-02 0.  1.
         23    2    1    2    0    0  0.00000000000E+00  0.00000000000E+00 -0.88034029042E+02  0.12580899536E+03  0.89877210925E+02 0.  0.
    9000005    2    3    3    0    0  0.17883924525E+02 -0.37861445454E+02 -0.66498745967E+02  0.78722986551E+02  0.46799132500E+01 0.  0.
         22    1    3    3    0    0 -0.17883924525E+02  0.37861445454E+02 -0.21535283075E+02  0.47086008807E+02  0.00000000000E+00 0.  1.
         22    1    4    4    0    0  0.12788236769E+02 -0.23802367449E+02 -0.39460434042E+02  0.47824863310E+02  0.00000000000E+00 0. -1.
         22    1    4    4    0    0  0.50956877558E+01 -0.14059078005E+02 -0.27038311924E+02  0.30898123240E+02  0.00000000000E+00 0. -1.
<mgrwt>
<rscale>  0 0.89877211E+02</rscale>
<asrwt>0</asrwt>
<pdfrwt beam="1">  1        1 0.29057667E-02 0.89877211E+02</pdfrwt>
<pdfrwt beam="2">  1       -1 0.16449463E-01 0.89877211E+02</pdfrwt>
<totfact> 0.83375244E+04</totfact>
</mgrwt>
</event>
<event>
 7    1  0.2787125E-009  0.9120437E+02  0.7818608E-02  0.1299961E+00
          1   -1    0    0  501    0  0.00000000000E+00  0.00000000000E+00  0.37083929868E+02  0.37083930211E+02  0.50400000000E-02 0. -1.
         -1   -1    0    0    0  501 -0.00000000000E+00 -0.00000000000E+00 -0.56077096845E+02  0.56077097071E+02  0.50400000000E-02 0.  1.
         23    2    1    2    0    0 -0.35527136788E-14  0.00000000000E+00 -0.18993166977E+02  0.93161027282E+02  0.91204367288E+02 0.  0.
    9000005    2    3    3    0    0  0.21098962496E+02  0.38634479965E+02 -0.36463620769E+01  0.46542214758E+02  0.14666033466E+02 0.  0.
         22    1    3    3    0    0 -0.21098962496E+02 -0.38634479965E+02 -0.15346804900E+02  0.46618812524E+02  0.00000000000E+00 0. -1.
         22    1    4    4    0    0  0.85911175867E+01  0.12449951672E+02  0.55327458051E+01  0.16106516512E+02  0.00000000000E+00 0.  1.
         22    1    4    4    0    0  0.12507844910E+02  0.26184528293E+02 -0.91791078819E+01  0.30435698246E+02  0.00000000000E+00 0.  1.
<mgrwt>
<rscale>  0 0.91204367E+02</rscale>
<asrwt>0</asrwt>
<pdfrwt beam="1">  1        1 0.57052200E-02 0.91204367E+02</pdfrwt>
<pdfrwt beam="2">  1       -1 0.86272457E-02 0.91204367E+02</pdfrwt>
<totfact> 0.89544449E+04</totfact>
</mgrwt>
</event>
<event>
 7    1  0.2787125E-009  0.9103731E+02  0.7818608E-02  0.1300359E+00
         -1   -1    0    0    0  501 -0.00000000000E+00  0.00000000000E+00  0.73038776120E+01  0.73038793510E+01  0.50400000000E-02 0.  1.
          1   -1    0    0  501    0  0.00000000000E+00 -0.00000000000E+00 -0.28367775913E+03  0.28367775917E+03  0.50400000000E-02 0. -1.
         23    2    1    2    0    0 -0.71054273576E-14  0.00000000000E+00 -0.27637388151E+03  0.29098163852E+03  0.91037308691E+02 0.  0.
    9000005    2    3    3    0    0 -0.33041004099E+02  0.27659463065E+02 -0.10315306286E+03  0.11248176215E+03  0.12443415546E+02 0.  0.
         22    1    3    3    0    0  0.33041004099E+02 -0.27659463065E+02 -0.17322081866E+03  0.17849987637E+03  0.00000000000E+00 0. -1.
         22    1    4    4    0    0 -0.21128255588E+02  0.15417114012E+02 -0.46993195342E+02  0.53781511666E+02  0.00000000000E+00 0.  1.
         22    1    4    4    0    0 -0.11912748511E+02  0.12242349052E+02 -0.56159867516E+02  0.58700250483E+02  0.00000000000E+00 0.  1.
<mgrwt>
<rscale>  0 0.91037309E+02</rscale>
<asrwt>0</asrwt>
<pdfrwt beam="2">  1        1 0.43642724E-01 0.91037309E+02</pdfrwt>
<pdfrwt beam="1">  1       -1 0.11236738E-02 0.91037309E+02</pdfrwt>
<totfact> 0.12727185E+05</totfact>
</mgrwt>
</event>
<event>
 7    1  0.2787125E-009  0.9060656E+02  0.7818608E-02  0.1301389E+00
         -1   -1    0    0    0  501 -0.00000000000E+00  0.00000000000E+00  0.13950686348E+03  0.13950686357E+03  0.50400000000E-02 0.  1.
          1   -1    0    0  501    0  0.00000000000E+00 -0.00000000000E+00 -0.14711727523E+02  0.14711728386E+02  0.50400000000E-02 0. -1.
         23    2    1    2    0    0  0.00000000000E+00  0.00000000000E+00  0.12479513596E+03  0.15421859196E+03  0.90606556862E+02 0.  0.
    9000005    2    3    3    0    0  0.15719677702E+02 -0.33569211679E+02  0.20453361648E+02  0.43488261398E+02  0.99442765873E+01 0.  0.
         22    1    3    3    0    0 -0.15719677702E+02  0.33569211679E+02  0.10434177431E+03  0.11073033056E+03  0.00000000000E+00 0.  1.
         22    1    4    4    0    0  0.13282222584E+02 -0.32555196327E+02  0.16765964057E+02  0.38953251410E+02  0.00000000000E+00 0. -1.
         22    1    4    4    0    0  0.24374551175E+01 -0.10140153518E+01  0.36873975917E+01  0.45350099871E+01  0.00000000000E+00 0. -1.
<mgrwt>
<rscale>  0 0.90606557E+02</rscale>
<asrwt>0</asrwt>
<pdfrwt beam="2">  1        1 0.22633427E-02 0.90606557E+02</pdfrwt>
<pdfrwt beam="1">  1       -1 0.21462595E-01 0.90606557E+02</pdfrwt>
<totfact> 0.77286327E+04</totfact>
</mgrwt>
</event>
<event>
 7    1  0.2787125E-009  0.9183277E+02  0.7818608E-02  0.1298473E+00
         -1   -1    0    0    0  501 -0.00000000000E+00  0.00000000000E+00  0.47062798588E+02  0.47062798858E+02  0.50400000000E-02 0.  1.
          1   -1    0    0  501    0  0.00000000000E+00 -0.00000000000E+00 -0.44797892862E+02  0.44797893146E+02  0.50400000000E-02 0. -1.
         23    2    1    2    0    0  0.35527136788E-14 -0.35527136788E-14  0.22649057254E+01  0.91860692003E+02  0.91832766142E+02 0.  0.
    9000005    2    3    3    0    0 -0.24307343444E+02  0.15521039309E+02 -0.34032737703E+02  0.45500487895E+02  0.89620062793E+01 0.  0.
         22    1    3    3    0    0  0.24307343444E+02 -0.15521039309E+02  0.36297643429E+02  0.46360204109E+02  0.00000000000E+00 0.  1.
         22    1    4    4    0    0 -0.14152060953E+02  0.11594477803E+02 -0.26725646973E+02  0.32387851903E+02  0.00000000000E+00 0.  1.
         22    1    4    4    0    0 -0.10155282490E+02  0.39265615061E+01 -0.73070907306E+01  0.13112635992E+02  0.00000000000E+00 0.  1.
<mgrwt>
<rscale>  0 0.91832766E+02</rscale>
<asrwt>0</asrwt>
<pdfrwt beam="2">  1        1 0.68919836E-02 0.91832766E+02</pdfrwt>
<pdfrwt beam="1">  1       -1 0.72404306E-02 0.91832766E+02</pdfrwt>
<totfact> 0.90387735E+04</totfact>
</mgrwt>
</event>
<event>
 7    1  0.2787125E-009  0.9588781E+02  0.7818608E-02  0.1289189E+00
         -1   -1    0    0    0  501 -0.00000000000E+00  0.00000000000E+00  0.12015718497E+02  0.12015719554E+02  0.50400000000E-02 0.  1.
          1   -1    0    0  501    0  0.00000000000E+00 -0.00000000000E+00 -0.19130090196E+03  0.19130090202E+03  0.50400000000E-02 0. -1.
         23    2    1    2    0    0  0.16653345369E-15  0.71054273576E-14 -0.17928518346E+03  0.20331662158E+03  0.95887807367E+02 0.  0.
    9000005    2    3    3    0    0  0.45530392288E+00  0.39455282929E+02 -0.14698809453E+03  0.15232614594E+03  0.63896908897E+01 0.  0.
         22    1    3    3    0    0 -0.45530392288E+00 -0.39455282929E+02 -0.32297088925E+02  0.50990475637E+02  0.00000000000E+00 0.  1.
         22    1    4    4    0    0 -0.23687960425E+01  0.11921815238E+02 -0.50902915416E+02  0.52334001099E+02  0.00000000000E+00 0. -1.
         22    1    4    4    0    0  0.28240999654E+01  0.27533467691E+02 -0.96085179119E+02  0.99992144842E+02  0.00000000000E+00 0. -1.
<mgrwt>
<rscale>  0 0.95887807E+02</rscale>
<asrwt>0</asrwt>
<pdfrwt beam="2">  1        1 0.29430906E-01 0.95887807E+02</pdfrwt>
<pdfrwt beam="1">  1       -1 0.18485723E-02 0.95887807E+02</pdfrwt>
<totfact> 0.10249642E+05</totfact>
</mgrwt>
</event>
<event>
 7    1  0.2787125E-009  0.9335178E+02  0.7818608E-02  0.1294932E+00
         -1   -1    0    0    0  501 -0.00000000000E+00  0.00000000000E+00  0.40748401515E+03  0.40748401518E+03  0.50400000000E-02 0.  1.
          1   -1    0    0  501    0  0.00000000000E+00 -0.00000000000E+00 -0.53465617340E+01  0.53465641095E+01  0.50400000000E-02 0. -1.
         23    2    1    2    0    0  0.00000000000E+00  0.00000000000E+00  0.40213745341E+03  0.41283057929E+03  0.93351784973E+02 0.  0.
    9000005    2    3    3    0    0  0.26917432866E+02  0.24644144202E+02  0.32780430850E+03  0.33002177258E+03  0.11261601614E+02 0.  0.
         22    1    3    3    0    0 -0.26917432866E+02 -0.24644144202E+02  0.74333144916E+02  0.82808806709E+02  0.00000000000E+00 0. -1.
         22    1    4    4    0    0  0.25248085147E+02  0.25125192682E+02  0.29027055036E+03  0.29244783042E+03  0.00000000000E+00 0. -1.
         22    1    4    4    0    0  0.16693477193E+01 -0.48104847952E+00  0.37533758138E+02  0.37573942160E+02  0.00000000000E+00 0. -1.
<mgrwt>
<rscale>  0 0.93351785E+02</rscale>
<asrwt>0</asrwt>
<pdfrwt beam="2">  1        1 0.82254810E-03 0.93351785E+02</pdfrwt>
<pdfrwt beam="1">  1       -1 0.62689852E-01 0.93351785E+02</pdfrwt>
<totfact> 0.49622723E+04</totfact>
</mgrwt>
</event>
<event>
 7    1  0.2787125E-009  0.9252697E+02  0.7818608E-02  0.1296845E+00
         -1   -1    0    0    0  501 -0.00000000000E+00  0.00000000000E+00  0.55692453458E+02  0.55692453686E+02  0.50400000000E-02 0.  1.
          1   -1    0    0  501    0  0.00000000000E+00 -0.00000000000E+00 -0.38430879895E+02  0.38430880226E+02  0.50400000000E-02 0. -1.
         23    2    1    2    0    0  0.00000000000E+00  0.00000000000E+00  0.17261573563E+02  0.94123333912E+02  0.92526969392E+02 0.  0.
    9000005    2    3    3    0    0  0.12119049297E+02 -0.43683080207E+02  0.17074689155E+02  0.48789927047E+02  0.58162805436E+01 0.  0.
         22    1    3    3    0    0 -0.12119049297E+02  0.43683080207E+02  0.18688440837E+00  0.45333406865E+02  0.00000000000E+00 0. -1.
         22    1    4    4    0    0  0.81239191211E+01 -0.28438721837E+02  0.81481003104E+01  0.30678176287E+02  0.00000000000E+00 0. -1.
         22    1    4    4    0    0  0.39951301756E+01 -0.15244358369E+02  0.89265888441E+01  0.18111750760E+02  0.00000000000E+00 0. -1.
<mgrwt>
<rscale>  0 0.92526969E+02</rscale>
<asrwt>0</asrwt>
<pdfrwt beam="2">  1        1 0.59124431E-02 0.92526969E+02</pdfrwt>
<pdfrwt beam="1">  1       -1 0.85680698E-02 0.92526969E+02</pdfrwt>
<totfact> 0.86431974E+04</totfact>
</mgrwt>
</event>
<event>
 7    1  0.2787125E-009  0.1015041E+03  0.7818608E-02  0.1277165E+00
          1   -1    0    0  501    0  0.00000000000E+00  0.00000000000E+00  0.22350656237E+01  0.22350713062E+01  0.50400000000E-02 0. -1.
         -1   -1    0    0    0  501 -0.00000000000E+00 -0.00000000000E+00 -0.11524342155E+04  0.11524342155E+04  0.50400000000E-02 0.  1.
         23    2    1    2    0    0  0.88817841970E-15  0.35527136788E-14 -0.11501991499E+04  0.11546692868E+04  0.10150407648E+03 0.  0.
    9000005    2    3    3    0    0 -0.45980963878E+01 -0.29868074451E+02 -0.10380055638E+04  0.10384770103E+04  0.81059309132E+01 0.  0.
         22    1    3    3    0    0  0.45980963878E+01  0.29868074451E+02 -0.11219358610E+03  0.11619227652E+03  0.00000000000E+00 0. -1.
         22    1    4    4    0    0 -0.27084072675E+01 -0.26437578515E+02 -0.80507831009E+03  0.80551683185E+03  0.00000000000E+00 0. -1.
         22    1    4    4    0    0 -0.18896891203E+01 -0.34304959357E+01 -0.23292725369E+03  0.23296017844E+03  0.00000000000E+00 0. -1.
<mgrwt>
<rscale>  0 0.10150408E+03</rscale>
<asrwt>0</asrwt>
<pdfrwt beam="1">  1        1 0.34385761E-03 0.10150408E+03</pdfrwt>
<pdfrwt beam="2">  1       -1 0.17729710E+00 0.10150408E+03</pdfrwt>
<totfact> 0.16039175E+04</totfact>
</mgrwt>
</event>
<event>
 7    1  0.2787125E-009  0.9280791E+02  0.7818608E-02  0.1296191E+00
         -1   -1    0    0    0  501 -0.00000000000E+00  0.00000000000E+00  0.10272198905E+02  0.10272200141E+02  0.50400000000E-02 0.  1.
          1   -1    0    0  501    0  0.00000000000E+00 -0.00000000000E+00 -0.20962666832E+03  0.20962666838E+03  0.50400000000E-02 0. -1.
         23    2    1    2    0    0  0.00000000000E+00  0.00000000000E+00 -0.19935446942E+03  0.21989886853E+03  0.92807908616E+02 0.  0.
    9000005    2    3    3    0    0  0.19743239583E+01 -0.33873898714E+02 -0.31095392454E+02  0.48252557904E+02  0.14492996350E+02 0.  0.
         22    1    3    3    0    0 -0.19743239583E+01  0.33873898714E+02 -0.16825907697E+03  0.17164631062E+03  0.00000000000E+00 0. -1.
         22    1    4    4    0    0  0.69449487596E+00 -0.11660661021E+02 -0.20531769776E+02  0.23622169856E+02  0.00000000000E+00 0. -1.
         22    1    4    4    0    0  0.12798290823E+01 -0.22213237693E+02 -0.10563622678E+02  0.24630388047E+02  0.00000000000E+00 0. -1.
<mgrwt>
<rscale>  0 0.92807909E+02</rscale>
<asrwt>0</asrwt>
<pdfrwt beam="2">  1        1 0.32250254E-01 0.92807909E+02</pdfrwt>
<pdfrwt beam="1">  1       -1 0.15803385E-02 0.92807909E+02</pdfrwt>
<totfact> 0.11393892E+05</totfact>
</mgrwt>
</event>
<event>
 7    1  0.2787125E-009  0.9324170E+02  0.7818608E-02  0.1295186E+00
          1   -1    0    0  501    0  0.00000000000E+00  0.00000000000E+00  0.15846789852E+03  0.15846789860E+03  0.50400000000E-02 0. -1.
         -1   -1    0    0    0  501 -0.00000000000E+00 -0.00000000000E+00 -0.13715734236E+02  0.13715735162E+02  0.50400000000E-02 0.  1.
         23    2    1    2    0    0 -0.35527136788E-14  0.35527136788E-14  0.14475216429E+03  0.17218363377E+03  0.93241700279E+02 0.  0.
    9000005    2    3    3    0    0  0.30242777077E+02 -0.30175048761E+02  0.10544695076E+03  0.11413142500E+03  0.90423234225E+01 0.  0.
         22    1    3    3    0    0 -0.30242777077E+02  0.30175048761E+02  0.39305213523E+02  0.58052208771E+02  0.00000000000E+00 0.  1.
         22    1    4    4    0    0  0.25162991481E+02 -0.19494595959E+02  0.77974355332E+02  0.84221229517E+02  0.00000000000E+00 0.  1.
         22    1    4    4    0    0  0.50797855953E+01 -0.10680452803E+02  0.27472595432E+02  0.29910195478E+02  0.00000000000E+00 0.  1.
<mgrwt>
<rscale>  0 0.93241700E+02</rscale>
<asrwt>0</asrwt>
<pdfrwt beam="1">  1        1 0.24379678E-01 0.93241700E+02</pdfrwt>
<pdfrwt beam="2">  1       -1 0.21101130E-02 0.93241700E+02</pdfrwt>
<totfact> 0.10663040E+05</totfact>
</mgrwt>
</event>
<event>
 7    1  0.2787125E-009  0.9072732E+02  0.7818608E-02  0.1301100E+00
         -1   -1    0    0    0  501 -0.00000000000E+00  0.00000000000E+00  0.51569765286E+03  0.51569765288E+03  0.50400000000E-02 0. -1.
          1   -1    0    0  501    0  0.00000000000E+00 -0.00000000000E+00 -0.39904408991E+01  0.39904440819E+01  0.50400000000E-02 0.  1.
         23    2    1    2    0    0  0.71054273576E-14  0.00000000000E+00  0.51170721196E+03  0.51968809696E+03  0.90727324196E+02 0.  0.
    9000005    2    3    3    0    0 -0.40927002161E+02  0.16669849117E+02  0.30777319380E+03  0.31102092864E+03  0.75349752988E+01 0.  0.
         22    1    3    3    0    0  0.40927002161E+02 -0.16669849117E+02  0.20393401816E+03  0.20866716833E+03  0.00000000000E+00 0.  1.
         22    1    4    4    0    0 -0.18229473375E+02  0.51372840071E+01  0.15299429962E+03  0.15416212603E+03  0.00000000000E+00 0. -1.
         22    1    4    4    0    0 -0.22697528786E+02  0.11532565110E+02  0.15477889418E+03  0.15685880260E+03  0.00000000000E+00 0. -1.
<mgrwt>
<rscale>  0 0.90727324E+02</rscale>
<asrwt>0</asrwt>
<pdfrwt beam="2">  1        1 0.61391411E-03 0.90727324E+02</pdfrwt>
<pdfrwt beam="1">  1       -1 0.79338116E-01 0.90727324E+02</pdfrwt>
<totfact> 0.46743268E+04</totfact>
</mgrwt>
</event>
<event>
 7    1  0.2787125E-009  0.9027781E+02  0.7818608E-02  0.1302180E+00
          1   -1    0    0  501    0  0.00000000000E+00  0.00000000000E+00  0.83819212594E+01  0.83819227747E+01  0.50400000000E-02 0. -1.
         -1   -1    0    0    0  501 -0.00000000000E+00 -0.00000000000E+00 -0.24308513793E+03  0.24308513798E+03  0.50400000000E-02 0.  1.
         23    2    1    2    0    0  0.35527136788E-14  0.35527136788E-14 -0.23470321667E+03  0.25146706075E+03  0.90277808625E+02 0.  0.
    9000005    2    3    3    0    0  0.27705269104E+02 -0.22747933390E+02 -0.42137701717E+02  0.55593305601E+02  0.54753367001E+01 0.  0.
         22    1    3    3    0    0 -0.27705269104E+02  0.22747933390E+02 -0.19256551495E+03  0.19587375515E+03  0.00000000000E+00 0.  1.
         22    1    4    4    0    0  0.15854184494E+01 -0.25606362638E+01 -0.19610018401E+01  0.35938750607E+01  0.00000000000E+00 0. -1.
         22    1    4    4    0    0  0.26119850655E+02 -0.20187297126E+02 -0.40176699877E+02  0.51999430540E+02  0.00000000000E+00 0. -1.
<mgrwt>
<rscale>  0 0.90277809E+02</rscale>
<asrwt>0</asrwt>
<pdfrwt beam="1">  1        1 0.12895267E-02 0.90277809E+02</pdfrwt>
<pdfrwt beam="2">  1       -1 0.37397708E-01 0.90277809E+02</pdfrwt>
<totfact> 0.67088452E+04</totfact>
</mgrwt>
</event>
<event>
 7    1  0.2787125E-009  0.9125027E+02  0.7818608E-02  0.1299852E+00
         -1   -1    0    0    0  501 -0.00000000000E+00  0.00000000000E+00  0.53996714936E+02  0.53996715172E+02  0.50400000000E-02 0.  1.
          1   -1    0    0  501    0  0.00000000000E+00 -0.00000000000E+00 -0.38551472976E+02  0.38551473306E+02  0.50400000000E-02 0. -1.
         23    2    1    2    0    0  0.00000000000E+00  0.00000000000E+00  0.15445241960E+02  0.92548188477E+02  0.91250269540E+02 0.  0.
    9000005    2    3    3    0    0 -0.37224712723E+02  0.20110948210E+02  0.21170374333E+02  0.49852677989E+02  0.15715447116E+02 0.  0.
         22    1    3    3    0    0  0.37224712723E+02 -0.20110948210E+02 -0.57251323728E+01  0.42695510488E+02  0.00000000000E+00 0. -1.
         22    1    4    4    0    0 -0.24187432928E+02  0.12442544385E+02  0.21581321711E+02  0.34721783785E+02  0.00000000000E+00 0.  1.
         22    1    4    4    0    0 -0.13037279795E+02  0.76684038252E+01 -0.41094737747E+00  0.15130894204E+02  0.00000000000E+00 0.  1.
<mgrwt>
<rscale>  0 0.91250270E+02</rscale>
<asrwt>0</asrwt>
<pdfrwt beam="2">  1        1 0.59309960E-02 0.91250270E+02</pdfrwt>
<pdfrwt beam="1">  1       -1 0.83071868E-02 0.91250270E+02</pdfrwt>
<totfact> 0.89950223E+04</totfact>
</mgrwt>
</event>
<event>
 7    1  0.2787125E-009  0.9154446E+02  0.7818608E-02  0.1299154E+00
          1   -1    0    0  501    0  0.00000000000E+00  0.00000000000E+00  0.40130985576E+02  0.40130985893E+02  0.50400000000E-02 0. -1.
         -1   -1    0    0    0  501 -0.00000000000E+00 -0.00000000000E+00 -0.52206471232E+02  0.52206471475E+02  0.50400000000E-02 0.  1.
         23    2    1    2    0    0  0.00000000000E+00  0.00000000000E+00 -0.12075485656E+02  0.92337457368E+02  0.91544462855E+02 0.  0.
    9000005    2    3    3    0    0 -0.11586477005E+02  0.35911899395E+02 -0.31195895284E+02  0.50034962975E+02  0.10315166979E+02 0.  0.
         22    1    3    3    0    0  0.11586477005E+02 -0.35911899395E+02  0.19120409628E+02  0.42302494393E+02  0.00000000000E+00 0. -1.
         22    1    4    4    0    0 -0.54905166089E+01  0.49478282367E+01 -0.78344735306E+01  0.10770596659E+02  0.00000000000E+00 0. -1.
         22    1    4    4    0    0 -0.60959603962E+01  0.30964071158E+02 -0.23361421754E+02  0.39264366316E+02  0.00000000000E+00 0. -1.
<mgrwt>
<rscale>  0 0.91544463E+02</rscale>
<asrwt>0</asrwt>
<pdfrwt beam="1">  1        1 0.61739978E-02 0.91544463E+02</pdfrwt>
<pdfrwt beam="2">  1       -1 0.80317648E-02 0.91544463E+02</pdfrwt>
<totfact> 0.89682370E+04</totfact>
</mgrwt>
</event>
<event>
 7    1  0.2787125E-009  0.9355368E+02  0.7818608E-02  0.1294467E+00
          1   -1    0    0  501    0  0.00000000000E+00  0.00000000000E+00  0.58641841017E+02  0.58641841234E+02  0.50400000000E-02 0. -1.
         -1   -1    0    0    0  501 -0.00000000000E+00 -0.00000000000E+00 -0.37312482462E+02  0.37312482802E+02  0.50400000000E-02 0.  1.
         23    2    1    2    0    0  0.00000000000E+00  0.00000000000E+00  0.21329358555E+02  0.95954324036E+02  0.93553678521E+02 0.  0.
    9000005    2    3    3    0    0  0.28167602594E+02  0.36324457046E+02  0.12459740867E+02  0.49140328975E+02  0.12109780083E+02 0.  0.
         22    1    3    3    0    0 -0.28167602594E+02 -0.36324457046E+02  0.88696176885E+01  0.46813995061E+02  0.00000000000E+00 0. -1.
         22    1    4    4    0    0  0.51488443334E+01  0.83424713840E+01 -0.22108692411E+01  0.10049645246E+02  0.00000000000E+00 0. -1.
         22    1    4    4    0    0  0.23018758261E+02  0.27981985662E+02  0.14670610108E+02  0.39090683729E+02  0.00000000000E+00 0. -1.
<mgrwt>
<rscale>  0 0.93553679E+02</rscale>
<asrwt>0</asrwt>
<pdfrwt beam="1">  1        1 0.90218217E-02 0.93553679E+02</pdfrwt>
<pdfrwt beam="2">  1       -1 0.57403820E-02 0.93553679E+02</pdfrwt>
<totfact> 0.89397652E+04</totfact>
</mgrwt>
</event>
<event>
 7    1  0.2787125E-009  0.9231036E+02  0.7818608E-02  0.1297351E+00
          1   -1    0    0  501    0  0.00000000000E+00  0.00000000000E+00  0.76052001613E+02  0.76052001780E+02  0.50400000000E-02 0. -1.
         -1   -1    0    0    0  501 -0.00000000000E+00 -0.00000000000E+00 -0.28011106221E+02  0.28011106675E+02  0.50400000000E-02 0.  1.
         23    2    1    2    0    0  0.44408920985E-15  0.35527136788E-14  0.48040895392E+02  0.10406310846E+03  0.92310361885E+02 0.  0.
    9000005    2    3    3    0    0 -0.24324670983E+01 -0.29020885056E+02 -0.15752422506E+02  0.33936679243E+02  0.74451808346E+01 0.  0.
         22    1    3    3    0    0  0.24324670983E+01  0.29020885056E+02  0.63793317897E+02  0.70126429212E+02  0.00000000000E+00 0. -1.
         22    1    4    4    0    0  0.24922949438E+01 -0.60518693468E+01 -0.39905360467E+01  0.76655746437E+01  0.00000000000E+00 0. -1.
         22    1    4    4    0    0 -0.49247620421E+01 -0.22969015709E+02 -0.11761886459E+02  0.26271104600E+02  0.00000000000E+00 0. -1.
<mgrwt>
<rscale>  0 0.92310362E+02</rscale>
<asrwt>0</asrwt>
<pdfrwt beam="1">  1        1 0.11700308E-01 0.92310362E+02</pdfrwt>
<pdfrwt beam="2">  1       -1 0.43094011E-02 0.92310362E+02</pdfrwt>
<totfact> 0.96601924E+04</totfact>
</mgrwt>
</event>
<event>
 7    1  0.2787125E-009  0.9498172E+02  0.7818608E-02  0.1291217E+00
          1   -1    0    0  501    0  0.00000000000E+00  0.00000000000E+00  0.74522776709E+02  0.74522776880E+02  0.50400000000E-02 0. -1.
         -1   -1    0    0    0  501 -0.00000000000E+00 -0.00000000000E+00 -0.30264328659E+02  0.30264329079E+02  0.50400000000E-02 0.  1.
         23    2    1    2    0    0 -0.35527136788E-14  0.00000000000E+00  0.44258448050E+02  0.10478710596E+03  0.94981721144E+02 0.  0.
    9000005    2    3    3    0    0  0.27906152426E+02  0.97047727770E+01 -0.17509185378E+02  0.36316846012E+02  0.11807022224E+02 0.  0.
         22    1    3    3    0    0 -0.27906152426E+02 -0.97047727770E+01  0.61767633428E+02  0.68470259947E+02  0.00000000000E+00 0. -1.
         22    1    4    4    0    0  0.14257835820E+02  0.62099979374E+01 -0.25349998443E+01  0.15756782059E+02  0.00000000000E+00 0. -1.
         22    1    4    4    0    0  0.13648316606E+02  0.34947748396E+01 -0.14974185534E+02  0.20560063953E+02  0.00000000000E+00 0. -1.
<mgrwt>
<rscale>  0 0.94981721E+02</rscale>
<asrwt>0</asrwt>
<pdfrwt beam="1">  1        1 0.11465043E-01 0.94981721E+02</pdfrwt>
<pdfrwt beam="2">  1       -1 0.46560506E-02 0.94981721E+02</pdfrwt>
<totfact> 0.88991061E+04</totfact>
</mgrwt>
</event>
<event>
 7    1  0.3108739E-009  0.8953911E+02  0.7818608E-02  0.1303972E+00
         -1   -1    0    0    0  501 -0.00000000000E+00  0.00000000000E+00  0.70265599985E+02  0.70265600166E+02  0.50400000000E-02 0.  1.
          1   -1    0    0  501    0  0.00000000000E+00 -0.00000000000E+00 -0.28524808853E+02  0.28524809298E+02  0.50400000000E-02 0. -1.
         23    2    1    2    0    0  0.00000000000E+00  0.00000000000E+00  0.41740791132E+02  0.98790409464E+02  0.89539105187E+02 0.  0.
    9000005    2    3    3    0    0 -0.12984176847E+02  0.33828147667E+02  0.47818113155E+02  0.62049883257E+02  0.15832992246E+02 0.  0.
         22    1    3    3    0    0  0.12984176847E+02 -0.33828147667E+02 -0.60773220238E+01  0.36740526207E+02  0.00000000000E+00 0. -1.
         22    1    4    4    0    0 -0.58560895689E+01  0.30703873846E+01  0.15585633146E+02  0.16930239936E+02  0.00000000000E+00 0.  1.
         22    1    4    4    0    0 -0.71280872778E+01  0.30757760283E+02  0.32232480010E+02  0.45119643321E+02  0.00000000000E+00 0.  1.
<mgrwt>
<rscale>  0 0.89539105E+02</rscale>
<asrwt>0</asrwt>
<pdfrwt beam="2">  1        1 0.43884322E-02 0.89539105E+02</pdfrwt>
<pdfrwt beam="1">  1       -1 0.10810092E-01 0.89539105E+02</pdfrwt>
<totfact> 0.90572640E+04</totfact>
</mgrwt>
</event>
<event>
 7    1  0.2787125E-009  0.9021870E+02  0.7818608E-02  0.1302323E+00
          1   -1    0    0  501    0  0.00000000000E+00  0.00000000000E+00  0.38386732092E+02  0.38386732423E+02  0.50400000000E-02 0. -1.
         -1   -1    0    0    0  501 -0.00000000000E+00 -0.00000000000E+00 -0.53009295926E+02  0.53009296165E+02  0.50400000000E-02 0.  1.
         23    2    1    2    0    0  0.00000000000E+00  0.00000000000E+00 -0.14622563833E+02  0.91396028588E+02  0.90218704650E+02 0.  0.
    9000005    2    3    3    0    0  0.27584988839E+02  0.24105812604E+02 -0.33910224321E+02  0.49995114859E+02  0.27543394266E+01 0.  0.
         22    1    3    3    0    0 -0.27584988839E+02 -0.24105812604E+02  0.19287660488E+02  0.41400913730E+02  0.00000000000E+00 0. -1.
         22    1    4    4    0    0  0.17672509510E+02  0.16569705816E+02 -0.21031336436E+02  0.32080989005E+02  0.00000000000E+00 0.  1.
         22    1    4    4    0    0  0.99124793289E+01  0.75361067876E+01 -0.12878887885E+02  0.17914125854E+02  0.00000000000E+00 0.  1.
<mgrwt>
<rscale>  0 0.90218705E+02</rscale>
<asrwt>0</asrwt>
<pdfrwt beam="1">  1        1 0.59056511E-02 0.90218705E+02</pdfrwt>
<pdfrwt beam="2">  1       -1 0.81552764E-02 0.90218705E+02</pdfrwt>
<totfact> 0.92827086E+04</totfact>
</mgrwt>
</event>
<event>
 7    1  0.2787125E-009  0.9327688E+02  0.7818608E-02  0.1295105E+00
          1   -1    0    0  501    0  0.00000000000E+00  0.00000000000E+00  0.83452369190E+03  0.83452369192E+03  0.50400000000E-02 0. -1.
         -1   -1    0    0    0  501 -0.00000000000E+00 -0.00000000000E+00 -0.26064475543E+01  0.26064524271E+01  0.50400000000E-02 0.  1.
         23    2    1    2    0    0 -0.88817841970E-15  0.00000000000E+00  0.83191724435E+03  0.83713014435E+03  0.93276884205E+02 0.  0.
    9000005    2    3    3    0    0 -0.44872534135E+01  0.26417022616E+02  0.75753789513E+03  0.75807141860E+03  0.95193805124E+01 0.  0.
         22    1    3    3    0    0  0.44872534135E+01 -0.26417022616E+02  0.74379349215E+02  0.79058725747E+02  0.00000000000E+00 0. -1.
         22    1    4    4    0    0 -0.72232193887E+01  0.18645084922E+02  0.57524440470E+03  0.57559181650E+03  0.00000000000E+00 0.  1.
         22    1    4    4    0    0  0.27359659752E+01  0.77719376936E+01  0.18229349044E+03  0.18247960210E+03  0.00000000000E+00 0.  1.
<mgrwt>
<rscale>  0 0.93276884E+02</rscale>
<asrwt>0</asrwt>
<pdfrwt beam="1">  1        1 0.12838822E+00 0.93276884E+02</pdfrwt>
<pdfrwt beam="2">  1       -1 0.40099245E-03 0.93276884E+02</pdfrwt>
<totfact> 0.13246586E+05</totfact>
</mgrwt>
</event>
<event>
 7    1  0.2787125E-009  0.9175568E+02  0.7818608E-02  0.1298655E+00
         -1   -1    0    0    0  501 -0.00000000000E+00  0.00000000000E+00  0.10756516561E+03  0.10756516573E+03  0.50400000000E-02 0.  1.
          1   -1    0    0  501    0  0.00000000000E+00 -0.00000000000E+00 -0.19567450979E+02  0.19567451628E+02  0.50400000000E-02 0. -1.
         23    2    1    2    0    0  0.35527136788E-14  0.00000000000E+00  0.87997714636E+02  0.12713261736E+03  0.91755678929E+02 0.  0.
    9000005    2    3    3    0    0  0.29307001090E+02 -0.26235119600E+02  0.14607268152E+02  0.43865940662E+02  0.12793226877E+02 0.  0.
         22    1    3    3    0    0 -0.29307001090E+02  0.26235119600E+02  0.73390446483E+02  0.83266676698E+02  0.00000000000E+00 0.  1.
         22    1    4    4    0    0  0.22017876519E+02 -0.11501547115E+02  0.74212318138E+01  0.25925800934E+02  0.00000000000E+00 0. -1.
         22    1    4    4    0    0  0.72891245714E+01 -0.14733572485E+02  0.71860363384E+01  0.17940139728E+02  0.00000000000E+00 0. -1.
<mgrwt>
<rscale>  0 0.91755679E+02</rscale>
<asrwt>0</asrwt>
<pdfrwt beam="2">  1        1 0.30103772E-02 0.91755679E+02</pdfrwt>
<pdfrwt beam="1">  1       -1 0.16548487E-01 0.91755679E+02</pdfrwt>
<totfact> 0.78954008E+04</totfact>
</mgrwt>
</event>
<event>
 7    1  0.2787125E-009  0.9093678E+02  0.7818608E-02  0.1300599E+00
         -1   -1    0    0    0  501 -0.00000000000E+00  0.00000000000E+00  0.11975285656E+02  0.11975286716E+02  0.50400000000E-02 0.  1.
          1   -1    0    0  501    0  0.00000000000E+00 -0.00000000000E+00 -0.17263675348E+03  0.17263675355E+03  0.50400000000E-02 0. -1.
         23    2    1    2    0    0  0.22204460493E-15  0.00000000000E+00 -0.16066146782E+03  0.18461204027E+03  0.90936781167E+02 0.  0.
    9000005    2    3    3    0    0  0.13214027051E+01 -0.16267110128E+02 -0.16637957520E+03  0.16731863896E+03  0.68555759251E+01 0.  0.
         22    1    3    3    0    0 -0.13214027051E+01  0.16267110128E+02  0.57181073756E+01  0.17293401314E+02  0.00000000000E+00 0.  1.
         22    1    4    4    0    0  0.40773932645E+00 -0.14413120497E+02 -0.15907880467E+03  0.15973093122E+03  0.00000000000E+00 0.  1.
         22    1    4    4    0    0  0.91366337862E+00 -0.18539896318E+01 -0.73007705331E+01  0.75877077369E+01  0.00000000000E+00 0.  1.
<mgrwt>
<rscale>  0 0.90936781E+02</rscale>
<asrwt>0</asrwt>
<pdfrwt beam="2">  1        1 0.26559499E-01 0.90936781E+02</pdfrwt>
<pdfrwt beam="1">  1       -1 0.18423518E-02 0.90936781E+02</pdfrwt>
<totfact> 0.11592816E+05</totfact>
</mgrwt>
</event>
<event>
 7    1  0.2787125E-009  0.7501134E+02  0.7818608E-02  0.1343836E+00
          1   -1    0    0  501    0  0.00000000000E+00  0.00000000000E+00  0.45148033858E+02  0.45148034139E+02  0.50400000000E-02 0. -1.
         -1   -1    0    0    0  501 -0.00000000000E+00 -0.00000000000E+00 -0.31156956277E+02  0.31156956684E+02  0.50400000000E-02 0.  1.
         23    2    1    2    0    0  0.00000000000E+00 -0.35527136788E-14  0.13991077581E+02  0.76304990823E+02  0.75011341627E+02 0.  0.
    9000005    2    3    3    0    0  0.21020608941E+02  0.26588410441E+02  0.21215719122E+02  0.41649471560E+02  0.11651702593E+02 0.  0.
         22    1    3    3    0    0 -0.21020608941E+02 -0.26588410441E+02 -0.72246415412E+01  0.34655519264E+02  0.00000000000E+00 0. -1.
         22    1    4    4    0    0 -0.82607835143E+00  0.40361656219E+01  0.44141951788E+01  0.60380590794E+01  0.00000000000E+00 0.  1.
         22    1    4    4    0    0  0.21846687293E+02  0.22552244819E+02  0.16801523943E+02  0.35611412480E+02  0.00000000000E+00 0.  1.
<mgrwt>
<rscale>  0 0.75011342E+02</rscale>
<asrwt>0</asrwt>
<pdfrwt beam="1">  1        1 0.69458514E-02 0.75011342E+02</pdfrwt>
<pdfrwt beam="2">  1       -1 0.47933780E-02 0.75011342E+02</pdfrwt>
<totfact> 0.15834152E+05</totfact>
</mgrwt>
</event>
<event>
 7    1  0.2787125E-009  0.9376354E+02  0.7818608E-02  0.1293985E+00
         -1   -1    0    0    0  501 -0.00000000000E+00  0.00000000000E+00  0.35895897699E+02  0.35895898053E+02  0.50400000000E-02 0.  1.
          1   -1    0    0  501    0  0.00000000000E+00 -0.00000000000E+00 -0.61229841865E+02  0.61229842073E+02  0.50400000000E-02 0. -1.
         23    2    1    2    0    0  0.00000000000E+00  0.00000000000E+00 -0.25333944166E+02  0.97125740125E+02  0.93763535918E+02 0.  0.
    9000005    2    3    3    0    0  0.91150079138E+01 -0.34768593372E+02 -0.41984585868E+02  0.57512834105E+02  0.15908556877E+02 0.  0.
         22    1    3    3    0    0 -0.91150079138E+01  0.34768593372E+02  0.16650641702E+02  0.39612906021E+02  0.00000000000E+00 0. -1.
         22    1    4    4    0    0 -0.59798551186E-02  0.16203992318E+01 -0.81210060516E+00  0.18125222266E+01  0.00000000000E+00 0. -1.
         22    1    4    4    0    0  0.91209877689E+01 -0.36388992604E+02 -0.41172485263E+02  0.55700311878E+02  0.00000000000E+00 0. -1.
<mgrwt>
<rscale>  0 0.93763536E+02</rscale>
<asrwt>0</asrwt>
<pdfrwt beam="2">  1        1 0.94199757E-02 0.93763536E+02</pdfrwt>
<pdfrwt beam="1">  1       -1 0.55224459E-02 0.93763536E+02</pdfrwt>
<totfact> 0.89435019E+04</totfact>
</mgrwt>
</event>
<event>
 7    1  0.2787125E-009  0.9004707E+02  0.7818608E-02  0.1302738E+00
          1   -1    0    0  501    0  0.00000000000E+00  0.00000000000E+00  0.36047010052E+03  0.36047010056E+03  0.50400000000E-02 0. -1.
         -1   -1    0    0    0  501 -0.00000000000E+00 -0.00000000000E+00 -0.56235407463E+01  0.56235430049E+01  0.50400000000E-02 0.  1.
         23    2    1    2    0    0 -0.71054273576E-14  0.00000000000E+00  0.35484655978E+03  0.36609364356E+03  0.90047070313E+02 0.  0.
    9000005    2    3    3    0    0  0.34075745528E+02 -0.22220003225E+02  0.25473958060E+03  0.25803674995E+03  0.59854344620E+01 0.  0.
         22    1    3    3    0    0 -0.34075745528E+02  0.22220003225E+02  0.10010697918E+03  0.10805689361E+03  0.00000000000E+00 0.  1.
         22    1    4    4    0    0  0.13757655383E+02 -0.65062644330E+01  0.10783330269E+03  0.10890190874E+03  0.00000000000E+00 0. -1.
         22    1    4    4    0    0  0.20318090146E+02 -0.15713738793E+02  0.14690627792E+03  0.14913484122E+03  0.00000000000E+00 0. -1.
<mgrwt>
<rscale>  0 0.90047070E+02</rscale>
<asrwt>0</asrwt>
<pdfrwt beam="1">  1        1 0.55456937E-01 0.90047070E+02</pdfrwt>
<pdfrwt beam="2">  1       -1 0.86516032E-03 0.90047070E+02</pdfrwt>
<totfact> 0.13698343E+05</totfact>
</mgrwt>
</event>
<event>
 7    1  0.2787125E-009  0.9134937E+02  0.7818608E-02  0.1299617E+00
          1   -1    0    0  501    0  0.00000000000E+00  0.00000000000E+00  0.40770376604E+02  0.40770376916E+02  0.50400000000E-02 0. -1.
         -1   -1    0    0    0  501 -0.00000000000E+00 -0.00000000000E+00 -0.51168936719E+02  0.51168936968E+02  0.50400000000E-02 0.  1.
         23    2    1    2    0    0  0.17763568394E-14  0.00000000000E+00 -0.10398560115E+02  0.91939313883E+02  0.91349369920E+02 0.  0.
    9000005    2    3    3    0    0 -0.13413776585E+02 -0.15168654525E+02 -0.46381794491E+02  0.50649961279E+02  0.20322979559E+01 0.  0.
         22    1    3    3    0    0  0.13413776585E+02  0.15168654525E+02  0.35983234376E+02  0.41289352605E+02  0.00000000000E+00 0. -1.
         22    1    4    4    0    0 -0.88781996542E+01 -0.85433880368E+01 -0.28232065291E+02  0.30803594252E+02  0.00000000000E+00 0.  1.
         22    1    4    4    0    0 -0.45355769312E+01 -0.66252664881E+01 -0.18149729200E+02  0.19846367027E+02  0.00000000000E+00 0.  1.
<mgrwt>
<rscale>  0 0.91349370E+02</rscale>
<asrwt>0</asrwt>
<pdfrwt beam="1">  1        1 0.62723657E-02 0.91349370E+02</pdfrwt>
<pdfrwt beam="2">  1       -1 0.78721442E-02 0.91349370E+02</pdfrwt>
<totfact> 0.90442274E+04</totfact>
</mgrwt>
</event>
<event>
 7    1  0.2787125E-009  0.9196071E+02  0.7818608E-02  0.1298172E+00
          1   -1    0    0  501    0  0.00000000000E+00  0.00000000000E+00  0.13062202549E+03  0.13062202558E+03  0.50400000000E-02 0. -1.
         -1   -1    0    0    0  501 -0.00000000000E+00 -0.00000000000E+00 -0.16185577197E+02  0.16185577982E+02  0.50400000000E-02 0.  1.
         23    2    1    2    0    0  0.00000000000E+00  0.35527136788E-14  0.11443644829E+03  0.14680760357E+03  0.91960707738E+02 0.  0.
    9000005    2    3    3    0    0 -0.46239272918E+01  0.26795029658E+02  0.11558492468E+03  0.11959228957E+03  0.14250845373E+02 0.  0.
         22    1    3    3    0    0  0.46239272918E+01 -0.26795029658E+02 -0.11484763873E+01  0.27215313997E+02  0.00000000000E+00 0.  1.
         22    1    4    4    0    0  0.22270083170E+00  0.24232009037E+02  0.80071212350E+02  0.83657868158E+02  0.00000000000E+00 0. -1.
         22    1    4    4    0    0 -0.48466281234E+01  0.25630206203E+01  0.35513712326E+02  0.35934421410E+02  0.00000000000E+00 0. -1.
<mgrwt>
<rscale>  0 0.91960708E+02</rscale>
<asrwt>0</asrwt>
<pdfrwt beam="1">  1        1 0.20095696E-01 0.91960708E+02</pdfrwt>
<pdfrwt beam="2">  1       -1 0.24900889E-02 0.91960708E+02</pdfrwt>
<totfact> 0.10685196E+05</totfact>
</mgrwt>
</event>
<event>
 7    1  0.2787125E-009  0.9087745E+02  0.7818608E-02  0.1300741E+00
          1   -1    0    0  501    0  0.00000000000E+00  0.00000000000E+00  0.34303007620E+03  0.34303007624E+03  0.50400000000E-02 0. -1.
         -1   -1    0    0    0  501 -0.00000000000E+00 -0.00000000000E+00 -0.60189401374E+01  0.60189422475E+01  0.50400000000E-02 0.  1.
         23    2    1    2    0    0  0.35527136788E-14  0.00000000000E+00  0.33701113607E+03  0.34904901849E+03  0.90877453061E+02 0.  0.
    9000005    2    3    3    0    0 -0.23633585016E+02 -0.95288909598E+01  0.31275937410E+03  0.31387098468E+03  0.68718875000E+01 0.  0.
         22    1    3    3    0    0  0.23633585016E+02  0.95288909598E+01  0.24251761968E+02  0.35178033802E+02  0.00000000000E+00 0.  1.
         22    1    4    4    0    0 -0.19603489756E+02 -0.75973763179E+01  0.21949456172E+03  0.22049916000E+03  0.00000000000E+00 0. -1.
         22    1    4    4    0    0 -0.40300952596E+01 -0.19315146420E+01  0.93264812381E+02  0.93371824685E+02  0.00000000000E+00 0. -1.
<mgrwt>
<rscale>  0 0.90877453E+02</rscale>
<asrwt>0</asrwt>
<pdfrwt beam="1">  1        1 0.52773869E-01 0.90877453E+02</pdfrwt>
<pdfrwt beam="2">  1       -1 0.92599076E-03 0.90877453E+02</pdfrwt>
<totfact> 0.13251115E+05</totfact>
</mgrwt>
</event>
<event>
 7    1  0.2787125E-009  0.9230716E+02  0.7818608E-02  0.1297359E+00
         -1   -1    0    0    0  501 -0.00000000000E+00  0.00000000000E+00  0.30965253931E+02  0.30965254341E+02  0.50400000000E-02 0.  1.
          1   -1    0    0  501    0  0.00000000000E+00 -0.00000000000E+00 -0.68791713773E+02  0.68791713958E+02  0.50400000000E-02 0. -1.
         23    2    1    2    0    0  0.00000000000E+00  0.00000000000E+00 -0.37826459843E+02  0.99756968299E+02  0.92307159310E+02 0.  0.
    9000005    2    3    3    0    0  0.15044496095E+02 -0.26154290910E+02  0.18418297821E+02  0.35930198364E+02  0.64313034536E+01 0.  0.
         22    1    3    3    0    0 -0.15044496095E+02  0.26154290910E+02 -0.56244757663E+02  0.63826769935E+02  0.00000000000E+00 0. -1.
         22    1    4    4    0    0  0.10569818418E+02 -0.22759167142E+02  0.13672864683E+02  0.28577053365E+02  0.00000000000E+00 0.  1.
         22    1    4    4    0    0  0.44746776771E+01 -0.33951237679E+01  0.47454331375E+01  0.73531449989E+01  0.00000000000E+00 0.  1.
<mgrwt>
<rscale>  0 0.92307159E+02</rscale>
<asrwt>0</asrwt>
<pdfrwt beam="2">  1        1 0.10583341E-01 0.92307159E+02</pdfrwt>
<pdfrwt beam="1">  1       -1 0.47638853E-02 0.92307159E+02</pdfrwt>
<totfact> 0.95107014E+04</totfact>
</mgrwt>
</event>
<event>
 7    1  0.2787125E-009  0.9125462E+02  0.7818608E-02  0.1299842E+00
         -1   -1    0    0    0  501 -0.00000000000E+00  0.00000000000E+00  0.50050827188E+01  0.50050852564E+01  0.50400000000E-02 0.  1.
          1   -1    0    0  501    0  0.00000000000E+00 -0.00000000000E+00 -0.41594733330E+03  0.41594733333E+03  0.50400000000E-02 0. -1.
         23    2    1    2    0    0  0.00000000000E+00  0.00000000000E+00 -0.41094225058E+03  0.42095241858E+03  0.91254618520E+02 0.  0.
    9000005    2    3    3    0    0 -0.34916377770E+02 -0.27707365260E+02 -0.20469376739E+03  0.20994225688E+03  0.13760860729E+02 0.  0.
         22    1    3    3    0    0  0.34916377770E+02  0.27707365260E+02 -0.20624848319E+03  0.21101016171E+03  0.00000000000E+00 0.  1.
         22    1    4    4    0    0 -0.26762832521E+02 -0.17991712466E+02 -0.11806678260E+03  0.12239165036E+03  0.00000000000E+00 0. -1.
         22    1    4    4    0    0 -0.81535452488E+01 -0.97156527937E+01 -0.86626984787E+02  0.87550606523E+02  0.00000000000E+00 0. -1.
<mgrwt>
<rscale>  0 0.91254619E+02</rscale>
<asrwt>0</asrwt>
<pdfrwt beam="2">  1        1 0.63991871E-01 0.91254619E+02</pdfrwt>
<pdfrwt beam="1">  1       -1 0.77001325E-03 0.91254619E+02</pdfrwt>
<totfact> 0.13543451E+05</totfact>
</mgrwt>
</event>
<event>
 7    1  0.3348524E-009  0.6933884E+02  0.7818608E-02  0.1362356E+00
         -1   -1    0    0    0  501 -0.00000000000E+00  0.00000000000E+00  0.41961786079E+02  0.41961786382E+02  0.50400000000E-02 0.  1.
          1   -1    0    0  501    0  0.00000000000E+00 -0.00000000000E+00 -0.28644366733E+02  0.28644367176E+02  0.50400000000E-02 0. -1.
         23    2    1    2    0    0  0.00000000000E+00  0.00000000000E+00  0.13317419347E+02  0.70606153558E+02  0.69338843820E+02 0.  0.
    9000005    2    3    3    0    0 -0.97644789476E+01  0.13547818264E+02  0.36234288694E+02  0.42250002029E+02  0.13901459113E+02 0.  0.
         22    1    3    3    0    0  0.97644789476E+01 -0.13547818264E+02 -0.22916869347E+02  0.28356151529E+02  0.00000000000E+00 0. -1.
         22    1    4    4    0    0 -0.77281806747E+01  0.74978439343E+01  0.33705901819E+02  0.35384039589E+02  0.00000000000E+00 0.  1.
         22    1    4    4    0    0 -0.20362982729E+01  0.60499743298E+01  0.25283868757E+01  0.68659624409E+01  0.00000000000E+00 0.  1.
<mgrwt>
<rscale>  0 0.69338844E+02</rscale>
<asrwt>0</asrwt>
<pdfrwt beam="2">  1        1 0.44068257E-02 0.69338844E+02</pdfrwt>
<pdfrwt beam="1">  1       -1 0.64556594E-02 0.69338844E+02</pdfrwt>
<totfact> 0.18542823E+05</totfact>
</mgrwt>
</event>
<event>
 7    1  0.2787125E-009  0.9054728E+02  0.7818608E-02  0.1301532E+00
         -1   -1    0    0    0  501 -0.00000000000E+00  0.00000000000E+00  0.97797004259E+02  0.97797004389E+02  0.50400000000E-02 0.  1.
          1   -1    0    0  501    0  0.00000000000E+00 -0.00000000000E+00 -0.20958743727E+02  0.20958744333E+02  0.50400000000E-02 0. -1.
         23    2    1    2    0    0  0.71054273576E-14  0.35527136788E-14  0.76838260532E+02  0.11875574872E+03  0.90547278110E+02 0.  0.
    9000005    2    3    3    0    0 -0.29894735937E+02 -0.27078352568E+02  0.62329160529E+02  0.75890303461E+02  0.15731544507E+02 0.  0.
         22    1    3    3    0    0  0.29894735937E+02  0.27078352568E+02  0.14509100003E+02  0.42865445261E+02  0.00000000000E+00 0. -1.
         22    1    4    4    0    0 -0.12842308193E+02 -0.17778369233E+02  0.21678383478E+02  0.30837438326E+02  0.00000000000E+00 0.  1.
         22    1    4    4    0    0 -0.17052427744E+02 -0.92999833359E+01  0.40650777051E+02  0.45052865135E+02  0.00000000000E+00 0.  1.
<mgrwt>
<rscale>  0 0.90547278E+02</rscale>
<asrwt>0</asrwt>
<pdfrwt beam="2">  1        1 0.32244222E-02 0.90547278E+02</pdfrwt>
<pdfrwt beam="1">  1       -1 0.15045693E-01 0.90547278E+02</pdfrwt>
<totfact> 0.83175747E+04</totfact>
</mgrwt>
</event>
<event>
 7    1  0.2787125E-009  0.9411056E+02  0.7818608E-02  0.1293192E+00
          1   -1    0    0  501    0  0.00000000000E+00  0.00000000000E+00  0.30322498479E+02  0.30322498898E+02  0.50400000000E-02 0. -1.
         -1   -1    0    0    0  501 -0.00000000000E+00 -0.00000000000E+00 -0.73021669965E+02  0.73021670139E+02  0.50400000000E-02 0.  1.
         23    2    1    2    0    0 -0.71054273576E-14  0.00000000000E+00 -0.42699171486E+02  0.10334416904E+03  0.94110562788E+02 0.  0.
    9000005    2    3    3    0    0  0.44659820239E+02 -0.11078879211E+02 -0.17088864555E+02  0.50683662682E+02  0.12631835290E+02 0.  0.
         22    1    3    3    0    0 -0.44659820239E+02  0.11078879211E+02 -0.25610306931E+02  0.52660506354E+02  0.00000000000E+00 0.  1.
         22    1    4    4    0    0  0.41152687516E+02 -0.79005792039E+01 -0.11690750370E+02  0.43504442138E+02  0.00000000000E+00 0. -1.
         22    1    4    4    0    0  0.35071327228E+01 -0.31783000075E+01 -0.53981141846E+01  0.71792205442E+01  0.00000000000E+00 0. -1.
<mgrwt>
<rscale>  0 0.94110563E+02</rscale>
<asrwt>0</asrwt>
<pdfrwt beam="1">  1        1 0.46649998E-02 0.94110563E+02</pdfrwt>
<pdfrwt beam="2">  1       -1 0.11234103E-01 0.94110563E+02</pdfrwt>
<totfact> 0.79263253E+04</totfact>
</mgrwt>
</event>
<event>
 7    1  0.2787125E-009  0.9024456E+02  0.7818608E-02  0.1302261E+00
         -1   -1    0    0    0  501 -0.00000000000E+00  0.00000000000E+00  0.21018724774E+02  0.21018725378E+02  0.50400000000E-02 0.  1.
          1   -1    0    0  501    0  0.00000000000E+00 -0.00000000000E+00 -0.96866971029E+02  0.96866971160E+02  0.50400000000E-02 0. -1.
         23    2    1    2    0    0  0.00000000000E+00  0.00000000000E+00 -0.75848246255E+02  0.11788569654E+03  0.90244562099E+02 0.  0.
    9000005    2    3    3    0    0  0.35941165924E+02 -0.92782312654E+01 -0.70422407633E+02  0.80371796339E+02  0.11066036622E+02 0.  0.
         22    1    3    3    0    0 -0.35941165924E+02  0.92782312654E+01 -0.54258386220E+01  0.37513900199E+02  0.00000000000E+00 0.  1.
         22    1    4    4    0    0  0.15947023780E+02 -0.90907100288E+01 -0.28106425069E+02  0.33569624759E+02  0.00000000000E+00 0.  1.
         22    1    4    4    0    0  0.19994142144E+02 -0.18752123661E+00 -0.42315982564E+02  0.46802171580E+02  0.00000000000E+00 0.  1.
<mgrwt>
<rscale>  0 0.90244562E+02</rscale>
<asrwt>0</asrwt>
<pdfrwt beam="2">  1        1 0.14902611E-01 0.90244562E+02</pdfrwt>
<pdfrwt beam="1">  1       -1 0.32336501E-02 0.90244562E+02</pdfrwt>
<totfact> 0.10685349E+05</totfact>
</mgrwt>
</event>
<event>
 7    1  0.2787125E-009  0.9086484E+02  0.7818608E-02  0.1300771E+00
         -1   -1    0    0    0  501 -0.00000000000E+00  0.00000000000E+00  0.76946566061E+01  0.76946582567E+01  0.50400000000E-02 0.  1.
          1   -1    0    0  501    0  0.00000000000E+00 -0.00000000000E+00 -0.26825166727E+03  0.26825166732E+03  0.50400000000E-02 0. -1.
         23    2    1    2    0    0  0.00000000000E+00  0.00000000000E+00 -0.26055701067E+03  0.27594632558E+03  0.90864838039E+02 0.  0.
    9000005    2    3    3    0    0  0.15594110200E+02  0.34442850595E+02 -0.20614573889E+03  0.20968870166E+03  0.66181352064E+01 0.  0.
         22    1    3    3    0    0 -0.15594110200E+02 -0.34442850595E+02 -0.54411271779E+02  0.66257623914E+02  0.00000000000E+00 0.  1.
         22    1    4    4    0    0  0.10695848986E+02  0.23257744347E+02 -0.15541077727E+03  0.15750502706E+03  0.00000000000E+00 0. -1.
         22    1    4    4    0    0  0.48982612146E+01  0.11185106248E+02 -0.50734961618E+02  0.52183674603E+02  0.00000000000E+00 0. -1.
<mgrwt>
<rscale>  0 0.90864838E+02</rscale>
<asrwt>0</asrwt>
<pdfrwt beam="2">  1        1 0.41269480E-01 0.90864838E+02</pdfrwt>
<pdfrwt beam="1">  1       -1 0.11837937E-02 0.90864838E+02</pdfrwt>
<totfact> 0.12653530E+05</totfact>
</mgrwt>
</event>
<event>
 7    1  0.2787125E-009  0.9706521E+02  0.7818608E-02  0.1286591E+00
          1   -1    0    0  501    0  0.00000000000E+00  0.00000000000E+00  0.93013104218E+03  0.93013104220E+03  0.50400000000E-02 0. -1.
         -1   -1    0    0    0  501 -0.00000000000E+00 -0.00000000000E+00 -0.25323438056E+01  0.25323488210E+01  0.50400000000E-02 0.  1.
         23    2    1    2    0    0  0.00000000000E+00  0.00000000000E+00  0.92759869838E+03  0.93266339102E+03  0.97065213712E+02 0.  0.
    9000005    2    3    3    0    0  0.20530402503E+02  0.24095634701E+02  0.81446910209E+03  0.81518827623E+03  0.13034968444E+02 0.  0.
         22    1    3    3    0    0 -0.20530402503E+02 -0.24095634701E+02  0.11312959629E+03  0.11747511479E+03  0.00000000000E+00 0.  1.
         22    1    4    4    0    0  0.13483733224E+02  0.16918303435E+02  0.38965886495E+03  0.39025897951E+03  0.00000000000E+00 0. -1.
         22    1    4    4    0    0  0.70466692794E+01  0.71773312655E+01  0.42481023714E+03  0.42492929672E+03  0.00000000000E+00 0. -1.
<mgrwt>
<rscale>  0 0.97065214E+02</rscale>
<asrwt>0</asrwt>
<pdfrwt beam="1">  1        1 0.14309737E+00 0.97065214E+02</pdfrwt>
<pdfrwt beam="2">  1       -1 0.38959097E-03 0.97065214E+02</pdfrwt>
<totfact> 0.11717554E+05</totfact>
</mgrwt>
</event>
<event>
 7    1  0.2787125E-009  0.8865226E+02  0.7818608E-02  0.1306149E+00
         -1   -1    0    0    0  501 -0.00000000000E+00  0.00000000000E+00  0.18435246489E+02  0.18435247178E+02  0.50400000000E-02 0.  1.
          1   -1    0    0  501    0  0.00000000000E+00 -0.00000000000E+00 -0.10657875345E+03  0.10657875357E+03  0.50400000000E-02 0. -1.
         23    2    1    2    0    0  0.00000000000E+00 -0.35527136788E-14 -0.88143506964E+02  0.12501400075E+03  0.88652256393E+02 0.  0.
    9000005    2    3    3    0    0  0.21835160769E+02 -0.29477353700E+02 -0.77089355657E+02  0.86701040957E+02  0.15119957684E+02 0.  0.
         22    1    3    3    0    0 -0.21835160769E+02  0.29477353700E+02 -0.11054151306E+02  0.38312959793E+02  0.00000000000E+00 0.  1.
         22    1    4    4    0    0  0.13239406667E+02 -0.82335812639E+01 -0.21368649421E+02  0.26451709347E+02  0.00000000000E+00 0. -1.
         22    1    4    4    0    0  0.85957541020E+01 -0.21243772436E+02 -0.55720706236E+02  0.60249331609E+02  0.00000000000E+00 0. -1.
<mgrwt>
<rscale>  0 0.88652256E+02</rscale>
<asrwt>0</asrwt>
<pdfrwt beam="2">  1        1 0.16396731E-01 0.88652256E+02</pdfrwt>
<pdfrwt beam="1">  1       -1 0.28361919E-02 0.88652256E+02</pdfrwt>
<totfact> 0.11393250E+05</totfact>
</mgrwt>
</event>
<event>
 7    1  0.2787125E-009  0.9683838E+02  0.7818608E-02  0.1287088E+00
          1   -1    0    0  501    0  0.00000000000E+00  0.00000000000E+00  0.37160936719E+03  0.37160936723E+03  0.50400000000E-02 0. -1.
         -1   -1    0    0    0  501 -0.00000000000E+00 -0.00000000000E+00 -0.63088230718E+01  0.63088250850E+01  0.50400000000E-02 0.  1.
         23    2    1    2    0    0  0.35527136788E-14  0.35527136788E-14  0.36530054412E+03  0.37791819231E+03  0.96838383636E+02 0.  0.
    9000005    2    3    3    0    0  0.29728173888E+02 -0.30525690992E+02  0.26765135172E+03  0.27137736957E+03  0.13886990516E+02 0.  0.
         22    1    3    3    0    0 -0.29728173888E+02  0.30525690992E+02  0.97649192400E+02  0.10654082274E+03  0.00000000000E+00 0.  1.
         22    1    4    4    0    0  0.38699577914E+01 -0.10437315892E+02  0.46428207690E+02  0.47744032147E+02  0.00000000000E+00 0.  1.
         22    1    4    4    0    0  0.25858216097E+02 -0.20088375100E+02  0.22122314403E+03  0.22363333743E+03  0.00000000000E+00 0.  1.
<mgrwt>
<rscale>  0 0.96838384E+02</rscale>
<asrwt>0</asrwt>
<pdfrwt beam="1">  1        1 0.57170680E-01 0.96838384E+02</pdfrwt>
<pdfrwt beam="2">  1       -1 0.97058819E-03 0.96838384E+02</pdfrwt>
<totfact> 0.11345374E+05</totfact>
</mgrwt>
</event>
<event>
 7    1  0.2787125E-009  0.8907974E+02  0.7818608E-02  0.1305096E+00
         -1   -1    0    0    0  501 -0.00000000000E+00  0.00000000000E+00  0.12496489925E+02  0.12496490941E+02  0.50400000000E-02 0.  1.
          1   -1    0    0  501    0  0.00000000000E+00 -0.00000000000E+00 -0.15874858515E+03  0.15874858523E+03  0.50400000000E-02 0. -1.
         23    2    1    2    0    0 -0.35527136788E-14  0.00000000000E+00 -0.14625209522E+03  0.17124507617E+03  0.89079743798E+02 0.  0.
    9000005    2    3    3    0    0  0.26826508891E+02  0.64760258275E+01 -0.13980066927E+03  0.14290391552E+03  0.10756461044E+02 0.  0.
         22    1    3    3    0    0 -0.26826508891E+02 -0.64760258275E+01 -0.64514259519E+01  0.28341160644E+02  0.00000000000E+00 0.  1.
         22    1    4    4    0    0  0.82935258940E+00 -0.18515100243E+01 -0.16075832906E+02  0.16203342825E+02  0.00000000000E+00 0.  1.
         22    1    4    4    0    0  0.25997156302E+02  0.83275358518E+01 -0.12372483636E+03  0.12670057270E+03  0.00000000000E+00 0.  1.
<mgrwt>
<rscale>  0 0.89079744E+02</rscale>
<asrwt>0</asrwt>
<pdfrwt beam="2">  1        1 0.24422858E-01 0.89079744E+02</pdfrwt>
<pdfrwt beam="1">  1       -1 0.19225371E-02 0.89079744E+02</pdfrwt>
<totfact> 0.12062986E+05</totfact>
</mgrwt>
</event>
<event>
 7    1  0.2787125E-009  0.8624783E+02  0.7818608E-02  0.1312201E+00
          1   -1    0    0  501    0  0.00000000000E+00  0.00000000000E+00  0.85524259158E+03  0.85524259159E+03  0.50400000000E-02 0. -1.
         -1   -1    0    0    0  501 -0.00000000000E+00 -0.00000000000E+00 -0.21744348985E+01  0.21744407394E+01  0.50400000000E-02 0.  1.
         23    2    1    2    0    0  0.00000000000E+00  0.00000000000E+00  0.85306815668E+03  0.85741703233E+03  0.86247825439E+02 0.  0.
    9000005    2    3    3    0    0 -0.11709418938E+02 -0.13140521108E+01  0.83846731666E+03  0.83865478955E+03  0.13250573901E+02 0.  0.
         22    1    3    3    0    0  0.11709418938E+02  0.13140521108E+01  0.14600840019E+02  0.18762242779E+02  0.00000000000E+00 0.  1.
         22    1    4    4    0    0  0.20089489218E+01 -0.24612328604E+01  0.80822995376E+02  0.80885413546E+02  0.00000000000E+00 0.  1.
         22    1    4    4    0    0 -0.13718367860E+02  0.11471807496E+01  0.75764432128E+03  0.75776937601E+03  0.00000000000E+00 0.  1.
<mgrwt>
<rscale>  0 0.86247825E+02</rscale>
<asrwt>0</asrwt>
<pdfrwt beam="1">  1        1 0.13157597E+00 0.86247825E+02</pdfrwt>
<pdfrwt beam="2">  1       -1 0.33452843E-03 0.86247825E+02</pdfrwt>
<totfact> 0.16239969E+05</totfact>
</mgrwt>
</event>
<event>
 7    1  0.2787125E-009  0.9432130E+02  0.7818608E-02  0.1292712E+00
          1   -1    0    0  501    0  0.00000000000E+00  0.00000000000E+00  0.63317420132E+02  0.63317420332E+02  0.50400000000E-02 0. -1.
         -1   -1    0    0    0  501 -0.00000000000E+00 -0.00000000000E+00 -0.35126617633E+02  0.35126617995E+02  0.50400000000E-02 0.  1.
         23    2    1    2    0    0  0.00000000000E+00  0.00000000000E+00  0.28190802498E+02  0.98444038327E+02  0.94321298426E+02 0.  0.
    9000005    2    3    3    0    0 -0.43940751610E+02 -0.14239187161E+02  0.21215497479E+02  0.51730025621E+02  0.96101048070E+01 0.  0.
         22    1    3    3    0    0  0.43940751610E+02  0.14239187161E+02  0.69753050189E+01  0.46714012706E+02  0.00000000000E+00 0.  1.
         22    1    4    4    0    0 -0.24790483955E+02 -0.63516493844E+01  0.67468466735E+01  0.26465666148E+02  0.00000000000E+00 0. -1.
         22    1    4    4    0    0 -0.19150267654E+02 -0.78875377765E+01  0.14468650806E+02  0.25264359472E+02  0.00000000000E+00 0. -1.
<mgrwt>
<rscale>  0 0.94321298E+02</rscale>
<asrwt>0</asrwt>
<pdfrwt beam="1">  1        1 0.97411415E-02 0.94321298E+02</pdfrwt>
<pdfrwt beam="2">  1       -1 0.54040951E-02 0.94321298E+02</pdfrwt>
<totfact> 0.88429116E+04</totfact>
</mgrwt>
</event>
<event>
 7    1  0.2787125E-009  0.9843851E+02  0.7818608E-02  0.1283614E+00
         -1   -1    0    0    0  501 -0.00000000000E+00  0.00000000000E+00  0.14040615478E+03  0.14040615487E+03  0.50400000000E-02 0.  1.
          1   -1    0    0  501    0  0.00000000000E+00 -0.00000000000E+00 -0.17253767103E+02  0.17253767839E+02  0.50400000000E-02 0. -1.
         23    2    1    2    0    0  0.00000000000E+00  0.00000000000E+00  0.12315238767E+03  0.15765992270E+03  0.98438511964E+02 0.  0.
    9000005    2    3    3    0    0  0.26373847470E+02  0.20381296256E+02  0.61050627108E+01  0.35959251596E+02  0.12034073176E+02 0.  0.
         22    1    3    3    0    0 -0.26373847470E+02 -0.20381296256E+02  0.11704732496E+03  0.12170067111E+03  0.00000000000E+00 0.  1.
         22    1    4    4    0    0  0.88629240054E+01  0.14377975822E+02  0.37183294501E+01  0.17294611431E+02  0.00000000000E+00 0. -1.
         22    1    4    4    0    0  0.17510923465E+02  0.60033204341E+01  0.23867332608E+01  0.18664640165E+02  0.00000000000E+00 0. -1.
<mgrwt>
<rscale>  0 0.98438512E+02</rscale>
<asrwt>0</asrwt>
<pdfrwt beam="2">  1        1 0.26544258E-02 0.98438512E+02</pdfrwt>
<pdfrwt beam="1">  1       -1 0.21600947E-01 0.98438512E+02</pdfrwt>
<totfact> 0.62219381E+04</totfact>
</mgrwt>
</event>
<event>
 7    1  0.2787125E-009  0.9156567E+02  0.7818608E-02  0.1299104E+00
          1   -1    0    0  501    0  0.00000000000E+00  0.00000000000E+00  0.16771269373E+03  0.16771269381E+03  0.50400000000E-02 0. -1.
         -1   -1    0    0    0  501 -0.00000000000E+00 -0.00000000000E+00 -0.12497968278E+02  0.12497969294E+02  0.50400000000E-02 0.  1.
         23    2    1    2    0    0 -0.71054273576E-14  0.00000000000E+00  0.15521472545E+03  0.18021066310E+03  0.91565670956E+02 0.  0.
    9000005    2    3    3    0    0  0.42482718439E+02  0.95164931224E+01  0.10163303529E+03  0.11117195998E+03  0.11601112752E+02 0.  0.
         22    1    3    3    0    0 -0.42482718439E+02 -0.95164931224E+01  0.53581690162E+02  0.69038703115E+02  0.00000000000E+00 0. -1.
         22    1    4    4    0    0  0.84018683544E+01  0.65961367402E+01  0.28463549211E+02  0.30401875690E+02  0.00000000000E+00 0. -1.
         22    1    4    4    0    0  0.34080850084E+02  0.29203563822E+01  0.73169486079E+02  0.80770084294E+02  0.00000000000E+00 0. -1.
<mgrwt>
<rscale>  0 0.91565671E+02</rscale>
<asrwt>0</asrwt>
<pdfrwt beam="1">  1        1 0.25801952E-01 0.91565671E+02</pdfrwt>
<pdfrwt beam="2">  1       -1 0.19227645E-02 0.91565671E+02</pdfrwt>
<totfact> 0.11317856E+05</totfact>
</mgrwt>
</event>
<event>
 7    1  0.2787125E-009  0.8957759E+02  0.7818608E-02  0.1303878E+00
         -1   -1    0    0    0  501 -0.00000000000E+00  0.00000000000E+00  0.46846346580E+02  0.46846346851E+02  0.50400000000E-02 0.  1.
          1   -1    0    0  501    0  0.00000000000E+00 -0.00000000000E+00 -0.42821610052E+02  0.42821610348E+02  0.50400000000E-02 0. -1.
         23    2    1    2    0    0  0.71054273576E-14  0.00000000000E+00  0.40247365281E+01  0.89667957199E+02  0.89577586729E+02 0.  0.
    9000005    2    3    3    0    0 -0.42893256893E+02 -0.98872712782E+01 -0.42716722552E+01  0.44874877166E+02  0.76103742750E+01 0.  0.
         22    1    3    3    0    0  0.42893256893E+02  0.98872712782E+01  0.82964087833E+01  0.44793080033E+02  0.00000000000E+00 0.  1.
         22    1    4    4    0    0 -0.39540492070E+02 -0.94705723357E+01 -0.59677616694E+01  0.41094481781E+02  0.00000000000E+00 0.  1.
         22    1    4    4    0    0 -0.33527648226E+01 -0.41669894257E+00  0.16960894143E+01  0.37803953849E+01  0.00000000000E+00 0.  1.
<mgrwt>
<rscale>  0 0.89577587E+02</rscale>
<asrwt>0</asrwt>
<pdfrwt beam="2">  1        1 0.65879400E-02 0.89577587E+02</pdfrwt>
<pdfrwt beam="1">  1       -1 0.72071303E-02 0.89577587E+02</pdfrwt>
<totfact> 0.96272454E+04</totfact>
</mgrwt>
</event>
<event>
 7    1  0.2787125E-009  0.9267947E+02  0.7818608E-02  0.1296490E+00
          1   -1    0    0  501    0  0.00000000000E+00  0.00000000000E+00  0.14962241469E+03  0.14962241477E+03  0.50400000000E-02 0. -1.
         -1   -1    0    0    0  501 -0.00000000000E+00 -0.00000000000E+00 -0.14351934023E+02  0.14351934908E+02  0.50400000000E-02 0.  1.
         23    2    1    2    0    0  0.00000000000E+00 -0.71054273576E-14  0.13527048066E+03  0.16397434968E+03  0.92679471373E+02 0.  0.
    9000005    2    3    3    0    0 -0.51936436982E+01  0.45199277548E+02  0.67262976263E+02  0.82151557742E+02  0.12434702966E+02 0.  0.
         22    1    3    3    0    0  0.51936436982E+01 -0.45199277548E+02  0.68007504400E+02  0.81822791938E+02  0.00000000000E+00 0.  1.
         22    1    4    4    0    0  0.16418325636E+01  0.30420084614E+02  0.48855427749E+02  0.57575428637E+02  0.00000000000E+00 0.  1.
         22    1    4    4    0    0 -0.68354762617E+01  0.14779192934E+02  0.18407548514E+02  0.24576129105E+02  0.00000000000E+00 0.  1.
<mgrwt>
<rscale>  0 0.92679471E+02</rscale>
<asrwt>0</asrwt>
<pdfrwt beam="1">  1        1 0.23018834E-01 0.92679471E+02</pdfrwt>
<pdfrwt beam="2">  1       -1 0.22079899E-02 0.92679471E+02</pdfrwt>
<totfact> 0.10723684E+05</totfact>
</mgrwt>
</event>
<event>
 7    1  0.2787125E-009  0.9167548E+02  0.7818608E-02  0.1298844E+00
         -1   -1    0    0    0  501 -0.00000000000E+00  0.00000000000E+00  0.95819339240E+01  0.95819352495E+01  0.50400000000E-02 0.  1.
          1   -1    0    0  501    0  0.00000000000E+00 -0.00000000000E+00 -0.21927706493E+03  0.21927706499E+03  0.50400000000E-02 0. -1.
         23    2    1    2    0    0  0.44408920985E-15 -0.71054273576E-14 -0.20969513101E+03  0.22885900024E+03  0.91675482121E+02 0.  0.
    9000005    2    3    3    0    0 -0.26798590655E+01 -0.41807992571E+02 -0.69537974234E+02  0.82574624853E+02  0.15097977398E+02 0.  0.
         22    1    3    3    0    0  0.26798590655E+01  0.41807992571E+02 -0.14015715677E+03  0.14628437538E+03  0.00000000000E+00 0. -1.
         22    1    4    4    0    0  0.60986137498E+01 -0.22118465282E+02 -0.37356884543E+02  0.43840123390E+02  0.00000000000E+00 0.  1.
         22    1    4    4    0    0 -0.87784728153E+01 -0.19689527289E+02 -0.32181089691E+02  0.38734501462E+02  0.00000000000E+00 0.  1.
<mgrwt>
<rscale>  0 0.91675482E+02</rscale>
<asrwt>0</asrwt>
<pdfrwt beam="2">  1        1 0.33734929E-01 0.91675482E+02</pdfrwt>
<pdfrwt beam="1">  1       -1 0.14741440E-02 0.91675482E+02</pdfrwt>
<totfact> 0.11879643E+05</totfact>
</mgrwt>
</event>
<event>
 7    1  0.2787125E-009  0.8970429E+02  0.7818608E-02  0.1303569E+00
         -1   -1    0    0    0  501 -0.00000000000E+00  0.00000000000E+00  0.45006648599E+01  0.45006676818E+01  0.50400000000E-02 0.  1.
          1   -1    0    0  501    0  0.00000000000E+00 -0.00000000000E+00 -0.44698160408E+03  0.44698160411E+03  0.50400000000E-02 0. -1.
         23    2    1    2    0    0 -0.44408920985E-15  0.00000000000E+00 -0.44248093922E+03  0.45148227179E+03  0.89704292918E+02 0.  0.
    9000005    2    3    3    0    0  0.25270140047E+01 -0.34466753108E+02 -0.36063375030E+03  0.36263799677E+03  0.15977233091E+02 0.  0.
         22    1    3    3    0    0 -0.25270140047E+01  0.34466753108E+02 -0.81847188923E+02  0.88844275022E+02  0.00000000000E+00 0.  1.
         22    1    4    4    0    0  0.54461532525E+01 -0.63358935853E+01 -0.47458413725E+02  0.48188226426E+02  0.00000000000E+00 0. -1.
         22    1    4    4    0    0 -0.29191392478E+01 -0.28130859523E+02 -0.31317533658E+03  0.31444977035E+03  0.00000000000E+00 0. -1.
<mgrwt>
<rscale>  0 0.89704293E+02</rscale>
<asrwt>0</asrwt>
<pdfrwt beam="2">  1        1 0.68766366E-01 0.89704293E+02</pdfrwt>
<pdfrwt beam="1">  1       -1 0.69241055E-03 0.89704293E+02</pdfrwt>
<totfact> 0.14327414E+05</totfact>
</mgrwt>
</event>
<event>
 7    1  0.2787125E-009  0.8026811E+02  0.7818608E-02  0.1328292E+00
          1   -1    0    0  501    0  0.00000000000E+00  0.00000000000E+00  0.14472322091E+01  0.14472409850E+01  0.50400000000E-02 0. -1.
         -1   -1    0    0    0  501 -0.00000000000E+00 -0.00000000000E+00 -0.11129780180E+04  0.11129780180E+04  0.50400000000E-02 0.  1.
         23    2    1    2    0    0  0.00000000000E+00  0.00000000000E+00 -0.11115307858E+04  0.11144252590E+04  0.80268114017E+02 0.  0.
    9000005    2    3    3    0    0 -0.71712532784E+01  0.11878337417E+02 -0.10781461591E+04  0.10782720423E+04  0.88845482023E+01 0.  0.
         22    1    3    3    0    0  0.71712532784E+01 -0.11878337417E+02 -0.33384626706E+02  0.36153216643E+02  0.00000000000E+00 0. -1.
         22    1    4    4    0    0 -0.31482224903E+01  0.22783123700E+01 -0.10774420164E+03  0.10781426158E+03  0.00000000000E+00 0. -1.
         22    1    4    4    0    0 -0.40230307881E+01  0.96000250468E+01 -0.97040195741E+03  0.97045778075E+03  0.00000000000E+00 0. -1.
<mgrwt>
<rscale>  0 0.80268114E+02</rscale>
<asrwt>0</asrwt>
<pdfrwt beam="1">  1        1 0.22265267E-03 0.80268114E+02</pdfrwt>
<pdfrwt beam="2">  1       -1 0.17122670E+00 0.80268114E+02</pdfrwt>
<totfact> 0.31209412E+04</totfact>
</mgrwt>
</event>
<event>
 7    1  0.2787125E-009  0.9665787E+02  0.7818608E-02  0.1287485E+00
          1   -1    0    0  501    0  0.00000000000E+00  0.00000000000E+00  0.62333132550E+01  0.62333152926E+01  0.50400000000E-02 0. -1.
         -1   -1    0    0    0  501 -0.00000000000E+00 -0.00000000000E+00 -0.37471010615E+03  0.37471010619E+03  0.50400000000E-02 0.  1.
         23    2    1    2    0    0  0.00000000000E+00  0.00000000000E+00 -0.36847679290E+03  0.38094342148E+03  0.96657868093E+02 0.  0.
    9000005    2    3    3    0    0 -0.25491770488E+02 -0.15074360160E+02 -0.33461507483E+03  0.33595806111E+03  0.48480745887E+01 0.  0.
         22    1    3    3    0    0  0.25491770488E+02  0.15074360160E+02 -0.33861718073E+02  0.44985360371E+02  0.00000000000E+00 0. -1.
         22    1    4    4    0    0 -0.14136156852E+02 -0.56149106592E+01 -0.17578309796E+03  0.17643994922E+03  0.00000000000E+00 0.  1.
         22    1    4    4    0    0 -0.11355613636E+02 -0.94594495004E+01 -0.15883197687E+03  0.15951811189E+03  0.00000000000E+00 0.  1.
<mgrwt>
<rscale>  0 0.96657868E+02</rscale>
<asrwt>0</asrwt>
<pdfrwt beam="1">  1        1 0.95897172E-03 0.96657868E+02</pdfrwt>
<pdfrwt beam="2">  1       -1 0.57647691E-01 0.96657868E+02</pdfrwt>
<totfact> 0.47206709E+04</totfact>
</mgrwt>
</event>
<event>
 7    1  0.2787125E-009  0.9228981E+02  0.7818608E-02  0.1297399E+00
          1   -1    0    0  501    0  0.00000000000E+00  0.00000000000E+00  0.16507749544E+02  0.16507750314E+02  0.50400000000E-02 0. -1.
         -1   -1    0    0    0  501 -0.00000000000E+00 -0.00000000000E+00 -0.12899106877E+03  0.12899106887E+03  0.50400000000E-02 0.  1.
         23    2    1    2    0    0  0.35527136788E-14  0.00000000000E+00 -0.11248331922E+03  0.14549881918E+03  0.92289811351E+02 0.  0.
    9000005    2    3    3    0    0 -0.27053686823E+02 -0.14000565227E+02 -0.20426061175E+01  0.30934126064E+02  0.49829828644E+01 0.  0.
         22    1    3    3    0    0  0.27053686823E+02  0.14000565227E+02 -0.11044071311E+03  0.11456469312E+03  0.00000000000E+00 0.  1.
         22    1    4    4    0    0 -0.76218983869E+01 -0.61917833843E+01 -0.18411239470E+01  0.99910586970E+01  0.00000000000E+00 0.  1.
         22    1    4    4    0    0 -0.19431788436E+02 -0.78087818425E+01 -0.20148217058E+00  0.20943067367E+02  0.00000000000E+00 0.  1.
<mgrwt>
<rscale>  0 0.92289811E+02</rscale>
<asrwt>0</asrwt>
<pdfrwt beam="1">  1        1 0.25396539E-02 0.92289811E+02</pdfrwt>
<pdfrwt beam="2">  1       -1 0.19844779E-01 0.92289811E+02</pdfrwt>
<totfact> 0.74958921E+04</totfact>
</mgrwt>
</event>
<event>
 7    1  0.2787125E-009  0.8091704E+02  0.7818608E-02  0.1326469E+00
          1   -1    0    0  501    0  0.00000000000E+00  0.00000000000E+00  0.31378157778E+02  0.31378158182E+02  0.50400000000E-02 0.  1.
         -1   -1    0    0    0  501 -0.00000000000E+00 -0.00000000000E+00 -0.52166601083E+02  0.52166601327E+02  0.50400000000E-02 0. -1.
         23    2    1    2    0    0  0.00000000000E+00  0.00000000000E+00 -0.20788443306E+02  0.83544759509E+02  0.80917040643E+02 0.  0.
    9000005    2    3    3    0    0  0.79882367682E+01 -0.16904199562E+02  0.26157243694E+02  0.33012973301E+02  0.74894004458E+01 0.  0.
         22    1    3    3    0    0 -0.79882367682E+01  0.16904199562E+02 -0.46945687000E+02  0.50531786208E+02  0.00000000000E+00 0. -1.
         22    1    4    4    0    0  0.83683354042E+01 -0.16898883609E+02  0.26484075573E+02  0.32511652736E+02  0.00000000000E+00 0.  1.
         22    1    4    4    0    0 -0.38009863594E+00 -0.53159531426E-02 -0.32683187896E+00  0.50132056561E+00  0.00000000000E+00 0.  1.
<mgrwt>
<rscale>  0 0.80917041E+02</rscale>
<asrwt>0</asrwt>
<pdfrwt beam="1">  1        1 0.48274089E-02 0.80917041E+02</pdfrwt>
<pdfrwt beam="2">  1       -1 0.80256310E-02 0.80917041E+02</pdfrwt>
<totfact> 0.12239923E+05</totfact>
</mgrwt>
</event>
<event>
 7    1  0.2787125E-009  0.9172873E+02  0.7818608E-02  0.1298719E+00
         -1   -1    0    0    0  501 -0.00000000000E+00  0.00000000000E+00  0.15597007981E+03  0.15597007989E+03  0.50400000000E-02 0.  1.
          1   -1    0    0  501    0  0.00000000000E+00 -0.00000000000E+00 -0.13486816253E+02  0.13486817195E+02  0.50400000000E-02 0. -1.
         23    2    1    2    0    0  0.00000000000E+00  0.00000000000E+00  0.14248326356E+03  0.16945689708E+03  0.91728728193E+02 0.  0.
    9000005    2    3    3    0    0 -0.40533844939E+02  0.13570562118E+02  0.48435591662E+02  0.66150956643E+02  0.14240427782E+02 0.  0.
         22    1    3    3    0    0  0.40533844939E+02 -0.13570562118E+02  0.94047671893E+02  0.10330594044E+03  0.00000000000E+00 0.  1.
         22    1    4    4    0    0 -0.26936684785E+02  0.17034409375E+01  0.28134771461E+02  0.38987845072E+02  0.00000000000E+00 0.  1.
         22    1    4    4    0    0 -0.13597160155E+02  0.11867121180E+02  0.20300820201E+02  0.27163111571E+02  0.00000000000E+00 0.  1.
<mgrwt>
<rscale>  0 0.91728728E+02</rscale>
<asrwt>0</asrwt>
<pdfrwt beam="2">  1        1 0.20748948E-02 0.91728728E+02</pdfrwt>
<pdfrwt beam="1">  1       -1 0.23995398E-01 0.91728728E+02</pdfrwt>
<totfact> 0.72946085E+04</totfact>
</mgrwt>
</event>
<event>
 7    1  0.2787125E-009  0.9297261E+02  0.7818608E-02  0.1295809E+00
         -1   -1    0    0    0  501 -0.00000000000E+00  0.00000000000E+00  0.38222498451E+02  0.38222498783E+02  0.50400000000E-02 0.  1.
          1   -1    0    0  501    0  0.00000000000E+00 -0.00000000000E+00 -0.56536768616E+02  0.56536768841E+02  0.50400000000E-02 0. -1.
         23    2    1    2    0    0 -0.35527136788E-14  0.17763568394E-14 -0.18314270165E+02  0.94759267624E+02  0.92972610531E+02 0.  0.
    9000005    2    3    3    0    0 -0.22335770150E+02  0.86835043955E+01 -0.48681247979E+02  0.56075379268E+02  0.14152539647E+02 0.  0.
         22    1    3    3    0    0  0.22335770150E+02 -0.86835043955E+01  0.30366977814E+02  0.38683888356E+02  0.00000000000E+00 0.  1.
         22    1    4    4    0    0 -0.18409656111E+02  0.43404987011E+01 -0.45796429401E+02  0.49548645925E+02  0.00000000000E+00 0.  1.
         22    1    4    4    0    0 -0.39261140384E+01  0.43430056944E+01 -0.28848185786E+01  0.65267333434E+01  0.00000000000E+00 0.  1.
<mgrwt>
<rscale>  0 0.92972611E+02</rscale>
<asrwt>0</asrwt>
<pdfrwt beam="2">  1        1 0.86979644E-02 0.92972611E+02</pdfrwt>
<pdfrwt beam="1">  1       -1 0.58803844E-02 0.92972611E+02</pdfrwt>
<totfact> 0.90456881E+04</totfact>
</mgrwt>
</event>
<event>
 7    1  0.2787125E-009  0.9355976E+02  0.7818608E-02  0.1294453E+00
          1   -1    0    0  501    0  0.00000000000E+00  0.00000000000E+00  0.11278430878E+03  0.11278430890E+03  0.50400000000E-02 0. -1.
         -1   -1    0    0    0  501 -0.00000000000E+00 -0.00000000000E+00 -0.19403029001E+02  0.19403029656E+02  0.50400000000E-02 0.  1.
         23    2    1    2    0    0  0.00000000000E+00  0.88817841970E-15  0.93381279781E+02  0.13218733855E+03  0.93559761969E+02 0.  0.
    9000005    2    3    3    0    0 -0.41419685363E+02  0.76947676042E+01  0.23941272321E+02  0.50967178368E+02  0.15800916633E+02 0.  0.
         22    1    3    3    0    0  0.41419685363E+02 -0.76947676042E+01  0.69440007461E+02  0.81220160183E+02  0.00000000000E+00 0. -1.
         22    1    4    4    0    0 -0.10661521859E+02  0.89646338377E+01  0.48816777789E+01  0.14760199393E+02  0.00000000000E+00 0.  1.
         22    1    4    4    0    0 -0.30758163504E+02 -0.12698662336E+01  0.19059594542E+02  0.36206978975E+02  0.00000000000E+00 0.  1.
<mgrwt>
<rscale>  0 0.93559762E+02</rscale>
<asrwt>0</asrwt>
<pdfrwt beam="1">  1        1 0.17351432E-01 0.93559762E+02</pdfrwt>
<pdfrwt beam="2">  1       -1 0.29850814E-02 0.93559762E+02</pdfrwt>
<totfact> 0.99360466E+04</totfact>
</mgrwt>
</event>
<event>
 7    1  0.2787125E-009  0.8964681E+02  0.7818608E-02  0.1303709E+00
          1   -1    0    0  501    0  0.00000000000E+00  0.00000000000E+00  0.47617323665E+02  0.47617323932E+02  0.50400000000E-02 0. -1.
         -1   -1    0    0    0  501 -0.00000000000E+00 -0.00000000000E+00 -0.42193416284E+02  0.42193416585E+02  0.50400000000E-02 0.  1.
         23    2    1    2    0    0  0.00000000000E+00  0.00000000000E+00  0.54239073809E+01  0.89810740517E+02  0.89646808872E+02 0.  0.
    9000005    2    3    3    0    0 -0.13685700128E+02 -0.21458839238E+02 -0.32509933528E+02  0.44129711024E+02  0.15580611273E+02 0.  0.
         22    1    3    3    0    0  0.13685700128E+02  0.21458839238E+02  0.37933840909E+02  0.45681029493E+02  0.00000000000E+00 0. -1.
         22    1    4    4    0    0 -0.63539378856E+01 -0.17240495322E-01 -0.11940375499E+02  0.13525730700E+02  0.00000000000E+00 0.  1.
         22    1    4    4    0    0 -0.73317622423E+01 -0.21441598742E+02 -0.20569558029E+02  0.30603980325E+02  0.00000000000E+00 0.  1.
<mgrwt>
<rscale>  0 0.89646809E+02</rscale>
<asrwt>0</asrwt>
<pdfrwt beam="1">  1        1 0.73257422E-02 0.89646809E+02</pdfrwt>
<pdfrwt beam="2">  1       -1 0.64912948E-02 0.89646809E+02</pdfrwt>
<totfact> 0.97588079E+04</totfact>
</mgrwt>
</event>
<event>
 7    1  0.2787125E-009  0.8726302E+02  0.7818608E-02  0.1309618E+00
          1   -1    0    0  501    0  0.00000000000E+00  0.00000000000E+00  0.12520634192E+03  0.12520634202E+03  0.50400000000E-02 0. -1.
         -1   -1    0    0    0  501 -0.00000000000E+00 -0.00000000000E+00 -0.15204569568E+02  0.15204570403E+02  0.50400000000E-02 0.  1.
         23    2    1    2    0    0  0.00000000000E+00  0.35527136788E-14  0.11000177235E+03  0.14041091243E+03  0.87263018556E+02 0.  0.
    9000005    2    3    3    0    0 -0.34722558474E+02  0.22287336520E+02  0.72678435174E+02  0.84774477114E+02  0.14218846453E+02 0.  0.
         22    1    3    3    0    0  0.34722558474E+02 -0.22287336520E+02  0.37323337180E+02  0.55636435313E+02  0.00000000000E+00 0.  1.
         22    1    4    4    0    0 -0.31429756678E+01 -0.20409428213E+01  0.71650264828E+01  0.80858733695E+01  0.00000000000E+00 0. -1.
         22    1    4    4    0    0 -0.31579582806E+02  0.24328279341E+02  0.65513408691E+02  0.76688603744E+02  0.00000000000E+00 0. -1.
<mgrwt>
<rscale>  0 0.87263019E+02</rscale>
<asrwt>0</asrwt>
<pdfrwt beam="1">  1        1 0.19262515E-01 0.87263019E+02</pdfrwt>
<pdfrwt beam="2">  1       -1 0.23391645E-02 0.87263019E+02</pdfrwt>
<totfact> 0.12219319E+05</totfact>
</mgrwt>
</event>
<event>
 7    1  0.3686969E-009  0.9156247E+02  0.7818608E-02  0.1299111E+00
          1   -1    0    0  501    0  0.00000000000E+00  0.00000000000E+00  0.23943276406E+02  0.23943276937E+02  0.50400000000E-02 0. -1.
         -1   -1    0    0    0  501 -0.00000000000E+00 -0.00000000000E+00 -0.87536943011E+02  0.87536943156E+02  0.50400000000E-02 0.  1.
         23    2    1    2    0    0  0.44408920985E-15 -0.35527136788E-14 -0.63593666605E+02  0.11148022009E+03  0.91562465234E+02 0.  0.
    9000005    2    3    3    0    0  0.20499492165E+01 -0.27562347695E+02  0.98739561116E+01  0.32985781501E+02  0.15055944664E+02 0.  0.
         22    1    3    3    0    0 -0.20499492165E+01  0.27562347695E+02 -0.73467622716E+02  0.78494438591E+02  0.00000000000E+00 0.  1.
         22    1    4    4    0    0 -0.61022938436E+00  0.17307260754E-01  0.47737647486E+01  0.48126405764E+01  0.00000000000E+00 0.  1.
         22    1    4    4    0    0  0.26601786008E+01 -0.27579654955E+02  0.51001913630E+01  0.28173140925E+02  0.00000000000E+00 0.  1.
<mgrwt>
<rscale>  0 0.91562465E+02</rscale>
<asrwt>0</asrwt>
<pdfrwt beam="1">  1        1 0.36835811E-02 0.91562465E+02</pdfrwt>
<pdfrwt beam="2">  1       -1 0.13467222E-01 0.91562465E+02</pdfrwt>
<totfact> 0.82450029E+04</totfact>
</mgrwt>
</event>
<event>
 7    1  0.2787125E-009  0.8122453E+02  0.7818608E-02  0.1325612E+00
         -1   -1    0    0    0  501 -0.00000000000E+00  0.00000000000E+00  0.21905457040E+03  0.21905457046E+03  0.50400000000E-02 0.  1.
          1   -1    0    0  501    0  0.00000000000E+00 -0.00000000000E+00 -0.75294300872E+01  0.75294317740E+01  0.50400000000E-02 0. -1.
         23    2    1    2    0    0  0.00000000000E+00  0.00000000000E+00  0.21152514031E+03  0.22658400223E+03  0.81224534983E+02 0.  0.
    9000005    2    3    3    0    0  0.38094762699E+02  0.69611943665E+01  0.91696203834E+02  0.10065289730E+03  0.14937963884E+02 0.  0.
         22    1    3    3    0    0 -0.38094762699E+02 -0.69611943665E+01  0.11982893648E+03  0.12593110493E+03  0.00000000000E+00 0.  1.
         22    1    4    4    0    0  0.19192208342E+02  0.42354621285E+01  0.64448357441E+02  0.67378563189E+02  0.00000000000E+00 0. -1.
         22    1    4    4    0    0  0.18902554357E+02  0.27257322381E+01  0.27247846393E+02  0.33274334110E+02  0.00000000000E+00 0. -1.
<mgrwt>
<rscale>  0 0.81224535E+02</rscale>
<asrwt>0</asrwt>
<pdfrwt beam="2">  1        1 0.11583741E-02 0.81224535E+02</pdfrwt>
<pdfrwt beam="1">  1       -1 0.33700700E-01 0.81224535E+02</pdfrwt>
<totfact> 0.91240321E+04</totfact>
</mgrwt>
</event>
<event>
 7    1  0.2787125E-009  0.9188087E+02  0.7818608E-02  0.1298360E+00
         -1   -1    0    0    0  501 -0.00000000000E+00  0.00000000000E+00  0.37810381072E+01  0.37810414663E+01  0.50400000000E-02 0.  1.
          1   -1    0    0  501    0  0.00000000000E+00 -0.00000000000E+00 -0.55818606385E+03  0.55818606387E+03  0.50400000000E-02 0. -1.
         23    2    1    2    0    0  0.00000000000E+00  0.00000000000E+00 -0.55440502574E+03  0.56196710534E+03  0.91880873496E+02 0.  0.
    9000005    2    3    3    0    0 -0.24939586190E+02  0.11324401493E+02 -0.50196291519E+03  0.50280292709E+03  0.96845359942E+01 0.  0.
         22    1    3    3    0    0  0.24939586190E+02 -0.11324401493E+02 -0.52442110554E+02  0.59164178249E+02  0.00000000000E+00 0.  1.
         22    1    4    4    0    0 -0.23464659094E+01  0.33551464280E+01 -0.13301675804E+03  0.13307975365E+03  0.00000000000E+00 0.  1.
         22    1    4    4    0    0 -0.22593120280E+02  0.79692550649E+01 -0.36894615715E+03  0.36972317345E+03  0.00000000000E+00 0.  1.
<mgrwt>
<rscale>  0 0.91880873E+02</rscale>
<asrwt>0</asrwt>
<pdfrwt beam="2">  1        1 0.85874714E-01 0.91880873E+02</pdfrwt>
<pdfrwt beam="1">  1       -1 0.58169887E-03 0.91880873E+02</pdfrwt>
<totfact> 0.13800184E+05</totfact>
</mgrwt>
</event>
<event>
 7    1  0.2787125E-009  0.9171578E+02  0.7818608E-02  0.1298749E+00
          1   -1    0    0  501    0  0.00000000000E+00  0.00000000000E+00  0.40854889590E+03  0.40854889593E+03  0.50400000000E-02 0. -1.
         -1   -1    0    0    0  501 -0.00000000000E+00 -0.00000000000E+00 -0.51473536889E+01  0.51473561564E+01  0.50400000000E-02 0.  1.
         23    2    1    2    0    0  0.00000000000E+00  0.00000000000E+00  0.40340154221E+03  0.41369625209E+03  0.91715782355E+02 0.  0.
    9000005    2    3    3    0    0 -0.20941716777E+02  0.14960723297E+01  0.38551982241E+03  0.38611818767E+03  0.45746742197E+01 0.  0.
         22    1    3    3    0    0  0.20941716777E+02 -0.14960723297E+01  0.17881719799E+02  0.27578064416E+02  0.00000000000E+00 0.  1.
         22    1    4    4    0    0 -0.10344377242E+02 -0.12759779472E+01  0.16842545536E+03  0.16874764672E+03  0.00000000000E+00 0.  1.
         22    1    4    4    0    0 -0.10597339534E+02  0.27720502769E+01  0.21709436705E+03  0.21737054095E+03  0.00000000000E+00 0.  1.
<mgrwt>
<rscale>  0 0.91715782E+02</rscale>
<asrwt>0</asrwt>
<pdfrwt beam="1">  1        1 0.62853700E-01 0.91715782E+02</pdfrwt>
<pdfrwt beam="2">  1       -1 0.79190047E-03 0.91715782E+02</pdfrwt>
<totfact> 0.13325187E+05</totfact>
</mgrwt>
</event>
<event>
 7    1  0.2900948E-009  0.9546566E+02  0.7818608E-02  0.1290131E+00
         -1   -1    0    0    0  501 -0.00000000000E+00  0.00000000000E+00  0.74591784723E+01  0.74591801751E+01  0.50400000000E-02 0.  1.
          1   -1    0    0  501    0  0.00000000000E+00 -0.00000000000E+00 -0.30545223552E+03  0.30545223556E+03  0.50400000000E-02 0. -1.
         23    2    1    2    0    0  0.00000000000E+00 -0.71054273576E-14 -0.29799305705E+03  0.31291141573E+03  0.95465659007E+02 0.  0.
    9000005    2    3    3    0    0 -0.10607849886E+02  0.35633825911E+02 -0.24446778885E+03  0.24774048384E+03  0.15117920530E+02 0.  0.
         22    1    3    3    0    0  0.10607849886E+02 -0.35633825911E+02 -0.53525268194E+02  0.65170931891E+02  0.00000000000E+00 0.  1.
         22    1    4    4    0    0 -0.27952887170E+01  0.12136958156E+02 -0.43336590982E+02  0.45090791857E+02  0.00000000000E+00 0. -1.
         22    1    4    4    0    0 -0.78125611686E+01  0.23496867754E+02 -0.20113119787E+03  0.20264969199E+03  0.00000000000E+00 0. -1.
<mgrwt>
<rscale>  0 0.95465659E+02</rscale>
<asrwt>0</asrwt>
<pdfrwt beam="2">  1        1 0.46992642E-01 0.95465659E+02</pdfrwt>
<pdfrwt beam="1">  1       -1 0.11475663E-02 0.95465659E+02</pdfrwt>
<totfact> 0.11370440E+05</totfact>
</mgrwt>
</event>
<event>
 7    1  0.2787125E-009  0.9016044E+02  0.7818608E-02  0.1302464E+00
         -1   -1    0    0    0  501 -0.00000000000E+00  0.00000000000E+00  0.21546374273E+03  0.21546374279E+03  0.50400000000E-02 0.  1.
          1   -1    0    0  501    0  0.00000000000E+00 -0.00000000000E+00 -0.94318700504E+01  0.94318713970E+01  0.50400000000E-02 0. -1.
         23    2    1    2    0    0  0.00000000000E+00  0.00000000000E+00  0.20603187268E+03  0.22489561419E+03  0.90160438776E+02 0.  0.
    9000005    2    3    3    0    0 -0.29825147799E+02 -0.27991189120E+02  0.14836687366E+03  0.15419697048E+03  0.95357431119E+01 0.  0.
         22    1    3    3    0    0  0.29825147799E+02  0.27991189120E+02  0.57664999021E+02  0.70698643705E+02  0.00000000000E+00 0.  1.
         22    1    4    4    0    0 -0.21367353245E+01 -0.40326570993E+01  0.88754101323E+01  0.99800233539E+01  0.00000000000E+00 0.  1.
         22    1    4    4    0    0 -0.27688412475E+02 -0.23958532021E+02  0.13949146353E+03  0.14421694713E+03  0.00000000000E+00 0.  1.
<mgrwt>
<rscale>  0 0.90160439E+02</rscale>
<asrwt>0</asrwt>
<pdfrwt beam="2">  1        1 0.14510570E-02 0.90160439E+02</pdfrwt>
<pdfrwt beam="1">  1       -1 0.33148269E-01 0.90160439E+02</pdfrwt>
<totfact> 0.69933717E+04</totfact>
</mgrwt>
</event>
<event>
 7    1  0.2787125E-009  0.9189606E+02  0.7818608E-02  0.1298324E+00
         -1   -1    0    0    0  501 -0.00000000000E+00  0.00000000000E+00  0.17197758277E+01  0.17197832129E+01  0.50400000000E-02 0.  1.
          1   -1    0    0  501    0  0.00000000000E+00 -0.00000000000E+00 -0.12276116103E+04  0.12276116104E+04  0.50400000000E-02 0. -1.
         23    2    1    2    0    0  0.00000000000E+00 -0.35527136788E-14 -0.12258918345E+04  0.12293313936E+04  0.91896056914E+02 0.  0.
    9000005    2    3    3    0    0  0.79412057994E+01 -0.24389571650E+02 -0.11226257852E+04  0.11229274891E+04  0.44247165565E+01 0.  0.
         22    1    3    3    0    0 -0.79412057994E+01  0.24389571650E+02 -0.10326604931E+03  0.10640390451E+03  0.00000000000E+00 0.  1.
         22    1    4    4    0    0  0.14108271572E+01 -0.41024013356E+01 -0.12829055884E+03  0.12836388752E+03  0.00000000000E+00 0.  1.
         22    1    4    4    0    0  0.65303786422E+01 -0.20287170314E+02 -0.99433522636E+03  0.99456360154E+03  0.00000000000E+00 0.  1.
<mgrwt>
<rscale>  0 0.91896057E+02</rscale>
<asrwt>0</asrwt>
<pdfrwt beam="2">  1        1 0.18886262E+00 0.91896057E+02</pdfrwt>
<pdfrwt beam="1">  1       -1 0.26458245E-03 0.91896057E+02</pdfrwt>
<totfact> 0.12331468E+05</totfact>
</mgrwt>
</event>
<event>
 7    1  0.2787125E-009  0.8980893E+02  0.7818608E-02  0.1303315E+00
          1   -1    0    0  501    0  0.00000000000E+00  0.00000000000E+00  0.21527757286E+02  0.21527757876E+02  0.50400000000E-02 0. -1.
         -1   -1    0    0    0  501 -0.00000000000E+00 -0.00000000000E+00 -0.93665631001E+02  0.93665631136E+02  0.50400000000E-02 0.  1.
         23    2    1    2    0    0  0.00000000000E+00  0.00000000000E+00 -0.72137873715E+02  0.11519338901E+03  0.89808930781E+02 0.  0.
    9000005    2    3    3    0    0 -0.39088090952E+02  0.52436953272E+00 -0.11172323778E+02  0.42771347500E+02  0.13282075540E+02 0.  0.
         22    1    3    3    0    0  0.39088090952E+02 -0.52436953272E+00 -0.60965549937E+02  0.72422041512E+02  0.00000000000E+00 0.  1.
         22    1    4    4    0    0 -0.18020899335E+02 -0.24602321050E+00 -0.12036536050E+02  0.21672368129E+02  0.00000000000E+00 0.  1.
         22    1    4    4    0    0 -0.21067191617E+02  0.77039274322E+00  0.86421227216E+00  0.21098979371E+02  0.00000000000E+00 0.  1.
<mgrwt>
<rscale>  0 0.89808931E+02</rscale>
<asrwt>0</asrwt>
<pdfrwt beam="1">  1        1 0.33119628E-02 0.89808931E+02</pdfrwt>
<pdfrwt beam="2">  1       -1 0.14410097E-01 0.89808931E+02</pdfrwt>
<totfact> 0.85611885E+04</totfact>
</mgrwt>
</event>
<event>
 7    1  0.2787125E-009  0.8925237E+02  0.7818608E-02  0.1304672E+00
         -1   -1    0    0    0  501 -0.00000000000E+00  0.00000000000E+00  0.44328095513E+01  0.44328124165E+01  0.50400000000E-02 0.  1.
          1   -1    0    0  501    0  0.00000000000E+00 -0.00000000000E+00 -0.44926260996E+03  0.44926260999E+03  0.50400000000E-02 0. -1.
         23    2    1    2    0    0  0.00000000000E+00  0.00000000000E+00 -0.44482980041E+03  0.45369542240E+03  0.89252366800E+02 0.  0.
    9000005    2    3    3    0    0  0.30609528270E+02  0.21310122415E+02 -0.34635872380E+03  0.34839766618E+03  0.50501194396E+01 0.  0.
         22    1    3    3    0    0 -0.30609528270E+02 -0.21310122415E+02 -0.98471076603E+02  0.10529775622E+03  0.00000000000E+00 0.  1.
         22    1    4    4    0    0  0.29139230390E+02  0.21390715645E+02 -0.33061489874E+03  0.33258513006E+03  0.00000000000E+00 0. -1.
         22    1    4    4    0    0  0.14702978795E+01 -0.80593229985E-01 -0.15743825061E+02  0.15812536124E+02  0.00000000000E+00 0. -1.
<mgrwt>
<rscale>  0 0.89252367E+02</rscale>
<asrwt>0</asrwt>
<pdfrwt beam="2">  1        1 0.69117289E-01 0.89252367E+02</pdfrwt>
<pdfrwt beam="1">  1       -1 0.68197128E-03 0.89252367E+02</pdfrwt>
<totfact> 0.14530794E+05</totfact>
</mgrwt>
</event>
<event>
 7    1  0.2787125E-009  0.9727555E+02  0.7818608E-02  0.1286132E+00
          1   -1    0    0  501    0  0.00000000000E+00  0.00000000000E+00  0.12956115483E+03  0.12956115493E+03  0.50400000000E-02 0. -1.
         -1   -1    0    0    0  501 -0.00000000000E+00 -0.00000000000E+00 -0.18258815903E+02  0.18258816598E+02  0.50400000000E-02 0.  1.
         23    2    1    2    0    0  0.00000000000E+00  0.00000000000E+00  0.11130233893E+03  0.14781997153E+03  0.97275553616E+02 0.  0.
    9000005    2    3    3    0    0 -0.16697932829E+02  0.80119163271E+01  0.12383661526E+03  0.12545661205E+03  0.78001578600E+01 0.  0.
         22    1    3    3    0    0  0.16697932829E+02 -0.80119163271E+01 -0.12534276335E+02  0.22363359480E+02  0.00000000000E+00 0.  1.
         22    1    4    4    0    0 -0.66512748437E+01  0.65548416852E+01  0.74763202671E+02  0.75344156245E+02  0.00000000000E+00 0.  1.
         22    1    4    4    0    0 -0.10046657985E+02  0.14570746418E+01  0.49073412591E+02  0.50112455802E+02  0.00000000000E+00 0.  1.
<mgrwt>
<rscale>  0 0.97275554E+02</rscale>
<asrwt>0</asrwt>
<pdfrwt beam="1">  1        1 0.19932484E-01 0.97275554E+02</pdfrwt>
<pdfrwt beam="2">  1       -1 0.28090488E-02 0.97275554E+02</pdfrwt>
<totfact> 0.91570534E+04</totfact>
</mgrwt>
</event>
<event>
 7    1  0.2787125E-009  0.9105434E+02  0.7818608E-02  0.1300318E+00
          1   -1    0    0  501    0  0.00000000000E+00  0.00000000000E+00  0.68051697148E+03  0.68051697150E+03  0.50400000000E-02 0. -1.
         -1   -1    0    0    0  501 -0.00000000000E+00 -0.00000000000E+00 -0.30458044812E+01  0.30458086511E+01  0.50400000000E-02 0.  1.
         23    2    1    2    0    0  0.17763568394E-14 -0.22204460493E-15  0.67747116700E+03  0.68356278015E+03  0.91054337027E+02 0.  0.
    9000005    2    3    3    0    0  0.15983404485E+02 -0.12260850553E+01  0.65860815202E+03  0.65880826869E+03  0.25815662691E+01 0.  0.
         22    1    3    3    0    0 -0.15983404485E+02  0.12260850553E+01  0.18863014980E+02  0.24754511460E+02  0.00000000000E+00 0.  1.
         22    1    4    4    0    0  0.43745670324E+01  0.80629518408E+00  0.18640559244E+03  0.18645865988E+03  0.00000000000E+00 0. -1.
         22    1    4    4    0    0  0.11608837453E+02 -0.20323802394E+01  0.47220255958E+03  0.47234960882E+03  0.00000000000E+00 0. -1.
<mgrwt>
<rscale>  0 0.91054337E+02</rscale>
<asrwt>0</asrwt>
<pdfrwt beam="1">  1        1 0.10469494E+00 0.91054337E+02</pdfrwt>
<pdfrwt beam="2">  1       -1 0.46858554E-03 0.91054337E+02</pdfrwt>
<totfact> 0.14269024E+05</totfact>
</mgrwt>
</event>
<event>
 7    1  0.2787125E-009  0.9386382E+02  0.7818608E-02  0.1293756E+00
          1   -1    0    0  501    0  0.00000000000E+00  0.00000000000E+00  0.95316623002E+01  0.95316636327E+01  0.50400000000E-02 0. -1.
         -1   -1    0    0    0  501 -0.00000000000E+00 -0.00000000000E+00 -0.23108290376E+03  0.23108290382E+03  0.50400000000E-02 0.  1.
         23    2    1    2    0    0 -0.35527136788E-14  0.00000000000E+00 -0.22155124146E+03  0.24061456745E+03  0.93863824105E+02 0.  0.
    9000005    2    3    3    0    0  0.31698398307E+02  0.12866750582E+02 -0.19264228204E+03  0.19582539844E+03  0.81360996654E+01 0.  0.
         22    1    3    3    0    0 -0.31698398307E+02 -0.12866750582E+02 -0.28908959417E+02  0.44789169007E+02  0.00000000000E+00 0. -1.
         22    1    4    4    0    0  0.22072657705E+02  0.56985341911E+01 -0.13899965646E+03  0.14085659376E+03  0.00000000000E+00 0.  1.
         22    1    4    4    0    0  0.96257406025E+01  0.71682163913E+01 -0.53642625580E+02  0.54968804676E+02  0.00000000000E+00 0.  1.
<mgrwt>
<rscale>  0 0.93863824E+02</rscale>
<asrwt>0</asrwt>
<pdfrwt beam="1">  1        1 0.14664099E-02 0.93863824E+02</pdfrwt>
<pdfrwt beam="2">  1       -1 0.35551212E-01 0.93863824E+02</pdfrwt>
<totfact> 0.61603090E+04</totfact>
</mgrwt>
</event>
<event>
 7    1  0.2787125E-009  0.8803890E+02  0.7818608E-02  0.1307671E+00
          1   -1    0    0  501    0  0.00000000000E+00  0.00000000000E+00  0.44378916102E+03  0.44378916104E+03  0.50400000000E-02 0. -1.
         -1   -1    0    0    0  501 -0.00000000000E+00 -0.00000000000E+00 -0.43662883494E+01  0.43662912582E+01  0.50400000000E-02 0.  1.
         23    2    1    2    0    0  0.00000000000E+00  0.00000000000E+00  0.43942287267E+03  0.44815545230E+03  0.88038902799E+02 0.  0.
    9000005    2    3    3    0    0  0.87860492661E+01  0.91567801957E+01  0.43382937390E+03  0.43428719669E+03  0.15375378573E+02 0.  0.
         22    1    3    3    0    0 -0.87860492661E+01 -0.91567801957E+01  0.55934987670E+01  0.13868255612E+02  0.00000000000E+00 0.  1.
         22    1    4    4    0    0 -0.16101141014E+01  0.76999542294E+01  0.27431185563E+03  0.27442462699E+03  0.00000000000E+00 0. -1.
         22    1    4    4    0    0  0.10396163368E+02  0.14568259664E+01  0.15951751827E+03  0.15986256970E+03  0.00000000000E+00 0. -1.
<mgrwt>
<rscale>  0 0.88038903E+02</rscale>
<asrwt>0</asrwt>
<pdfrwt beam="1">  1        1 0.68275266E-01 0.88038903E+02</pdfrwt>
<pdfrwt beam="2">  1       -1 0.67173679E-03 0.88038903E+02</pdfrwt>
<totfact> 0.15039871E+05</totfact>
</mgrwt>
</event>
<event>
 7    1  0.2787125E-009  0.9322641E+02  0.7818608E-02  0.1295221E+00
         -1   -1    0    0    0  501 -0.00000000000E+00  0.00000000000E+00  0.20104715983E+03  0.20104715990E+03  0.50400000000E-02 0.  1.
          1   -1    0    0  501    0  0.00000000000E+00 -0.00000000000E+00 -0.10807368490E+02  0.10807369666E+02  0.50400000000E-02 0. -1.
         23    2    1    2    0    0  0.00000000000E+00  0.00000000000E+00  0.19023979134E+03  0.21185452956E+03  0.93226409809E+02 0.  0.
    9000005    2    3    3    0    0 -0.10430313565E+02  0.32577302814E+02  0.16590746307E+03  0.16987674616E+03  0.12757369869E+02 0.  0.
         22    1    3    3    0    0  0.10430313565E+02 -0.32577302814E+02  0.24332328275E+02  0.41977783398E+02  0.00000000000E+00 0. -1.
         22    1    4    4    0    0  0.45830271622E+00  0.10683804865E+02  0.74152160115E+02  0.74919267064E+02  0.00000000000E+00 0. -1.
         22    1    4    4    0    0 -0.10888616281E+02  0.21893497949E+02  0.91755302952E+02  0.94957479099E+02  0.00000000000E+00 0. -1.
<mgrwt>
<rscale>  0 0.93226410E+02</rscale>
<asrwt>0</asrwt>
<pdfrwt beam="2">  1        1 0.16626721E-02 0.93226410E+02</pdfrwt>
<pdfrwt beam="1">  1       -1 0.30930333E-01 0.93226410E+02</pdfrwt>
<totfact> 0.65414112E+04</totfact>
</mgrwt>
</event>
<event>
 7    1  0.2787125E-009  0.9104817E+02  0.7818608E-02  0.1300333E+00
         -1   -1    0    0    0  501 -0.00000000000E+00  0.00000000000E+00  0.61802569692E+03  0.61802569695E+03  0.50400000000E-02 0.  1.
          1   -1    0    0  501    0  0.00000000000E+00 -0.00000000000E+00 -0.33533251113E+01  0.33533288988E+01  0.50400000000E-02 0. -1.
         23    2    1    2    0    0  0.00000000000E+00  0.44408920985E-15  0.61467237181E+03  0.62137902584E+03  0.91048169054E+02 0.  0.
    9000005    2    3    3    0    0 -0.10725698346E+02 -0.38671408418E+01  0.60782476754E+03  0.60807921127E+03  0.13393422478E+02 0.  0.
         22    1    3    3    0    0  0.10725698346E+02  0.38671408418E+01  0.68476042740E+01  0.13299814570E+02  0.00000000000E+00 0. -1.
         22    1    4    4    0    0 -0.18051083448E+01 -0.68782938528E+01  0.36970183656E+03  0.36977022230E+03  0.00000000000E+00 0.  1.
         22    1    4    4    0    0 -0.89205900016E+01  0.30111530110E+01  0.23812293098E+03  0.23830898898E+03  0.00000000000E+00 0.  1.
<mgrwt>
<rscale>  0 0.91048169E+02</rscale>
<asrwt>0</asrwt>
<pdfrwt beam="2">  1        1 0.51589609E-03 0.91048169E+02</pdfrwt>
<pdfrwt beam="1">  1       -1 0.95080945E-01 0.91048169E+02</pdfrwt>
<totfact> 0.40863216E+04</totfact>
</mgrwt>
</event>
<event>
 7    1  0.2787125E-009  0.9271099E+02  0.7818608E-02  0.1296416E+00
          1   -1    0    0  501    0  0.00000000000E+00  0.00000000000E+00  0.14094873083E+02  0.14094873984E+02  0.50400000000E-02 0. -1.
         -1   -1    0    0    0  501 -0.00000000000E+00 -0.00000000000E+00 -0.15245484628E+03  0.15245484637E+03  0.50400000000E-02 0.  1.
         23    2    1    2    0    0  0.00000000000E+00  0.44408920985E-15 -0.13835997320E+03  0.16654972035E+03  0.92710987294E+02 0.  0.
    9000005    2    3    3    0    0  0.33758887805E+02 -0.17233858509E+01 -0.12506040683E+03  0.13022464595E+03  0.13255960628E+02 0.  0.
         22    1    3    3    0    0 -0.33758887805E+02  0.17233858509E+01 -0.13299566375E+02  0.36325074403E+02  0.00000000000E+00 0. -1.
         22    1    4    4    0    0  0.24694382894E+02  0.46942044369E+01 -0.83023523609E+02  0.86745337479E+02  0.00000000000E+00 0. -1.
         22    1    4    4    0    0  0.90645049107E+01 -0.64175902877E+01 -0.42036883217E+02  0.43479308470E+02  0.00000000000E+00 0. -1.
<mgrwt>
<rscale>  0 0.92710987E+02</rscale>
<asrwt>0</asrwt>
<pdfrwt beam="1">  1        1 0.21684422E-02 0.92710987E+02</pdfrwt>
<pdfrwt beam="2">  1       -1 0.23454591E-01 0.92710987E+02</pdfrwt>
<totfact> 0.71340685E+04</totfact>
</mgrwt>
</event>
<event>
 7    1  0.2787125E-009  0.7701325E+02  0.7818608E-02  0.1337748E+00
          1   -1    0    0  501    0  0.00000000000E+00  0.00000000000E+00  0.16460235149E+03  0.16460235157E+03  0.50400000000E-02 0. -1.
         -1   -1    0    0    0  501 -0.00000000000E+00 -0.00000000000E+00 -0.90081349970E+01  0.90081364070E+01  0.50400000000E-02 0.  1.
         23    2    1    2    0    0  0.00000000000E+00  0.00000000000E+00  0.15559421649E+03  0.17361048798E+03  0.77013254240E+02 0.  0.
    9000005    2    3    3    0    0 -0.33779904633E+02  0.39935335712E+01  0.49227666651E+02  0.61937424110E+02  0.15995345390E+02 0.  0.
         22    1    3    3    0    0  0.33779904633E+02 -0.39935335712E+01  0.10636654984E+03  0.11167306387E+03  0.00000000000E+00 0. -1.
         22    1    4    4    0    0  0.16700099402E+01 -0.69515500606E+00  0.19532027683E+01  0.26621748134E+01  0.00000000000E+00 0.  1.
         22    1    4    4    0    0 -0.35449914573E+02  0.46886885773E+01  0.47274463882E+02  0.59275249297E+02  0.00000000000E+00 0.  1.
<mgrwt>
<rscale>  0 0.77013254E+02</rscale>
<asrwt>0</asrwt>
<pdfrwt beam="1">  1        1 0.25323438E-01 0.77013254E+02</pdfrwt>
<pdfrwt beam="2">  1       -1 0.13858671E-02 0.77013254E+02</pdfrwt>
<totfact> 0.17891309E+05</totfact>
</mgrwt>
</event>
<event>
 7    1  0.2787125E-009  0.9093660E+02  0.7818608E-02  0.1300599E+00
          1   -1    0    0  501    0  0.00000000000E+00  0.00000000000E+00  0.47951448847E+02  0.47951449111E+02  0.50400000000E-02 0. -1.
         -1   -1    0    0    0  501 -0.00000000000E+00 -0.00000000000E+00 -0.43113736851E+02  0.43113737146E+02  0.50400000000E-02 0.  1.
         23    2    1    2    0    0  0.00000000000E+00  0.00000000000E+00  0.48377119952E+01  0.91065186257E+02  0.90936597092E+02 0.  0.
    9000005    2    3    3    0    0  0.62676659636E+01 -0.42536250889E+02  0.16169012917E+02  0.46601553287E+02  0.78518477927E+01 0.  0.
         22    1    3    3    0    0 -0.62676659636E+01  0.42536250889E+02 -0.11331300921E+02  0.44463632970E+02  0.00000000000E+00 0.  1.
         22    1    4    4    0    0  0.55651908465E+01 -0.41198350015E+02  0.13821861729E+02  0.43810036005E+02  0.00000000000E+00 0. -1.
         22    1    4    4    0    0  0.70247511713E+00 -0.13379008745E+01  0.23471511879E+01  0.27915172826E+01  0.00000000000E+00 0. -1.
<mgrwt>
<rscale>  0 0.90936597E+02</rscale>
<asrwt>0</asrwt>
<pdfrwt beam="1">  1        1 0.73771460E-02 0.90936597E+02</pdfrwt>
<pdfrwt beam="2">  1       -1 0.66328826E-02 0.90936597E+02</pdfrwt>
<totfact> 0.93867992E+04</totfact>
</mgrwt>
</event>
<event>
 7    1  0.2787125E-009  0.9156655E+02  0.7818608E-02  0.1299102E+00
          1   -1    0    0  501    0  0.00000000000E+00  0.00000000000E+00  0.28196716494E+02  0.28196716945E+02  0.50400000000E-02 0. -1.
         -1   -1    0    0    0  501 -0.00000000000E+00 -0.00000000000E+00 -0.74338739662E+02  0.74338739833E+02  0.50400000000E-02 0.  1.
         23    2    1    2    0    0  0.00000000000E+00  0.00000000000E+00 -0.46142023168E+02  0.10253545678E+03  0.91566552816E+02 0.  0.
    9000005    2    3    3    0    0  0.15495658570E+02  0.41720477351E+02 -0.25108215832E+02  0.53310110502E+02  0.15193146960E+02 0.  0.
         22    1    3    3    0    0 -0.15495658570E+02 -0.41720477351E+02 -0.21033807336E+02  0.49225346276E+02  0.00000000000E+00 0. -1.
         22    1    4    4    0    0 -0.22433516377E+01  0.71425157242E+01 -0.76578131870E+01  0.10709353867E+02  0.00000000000E+00 0.  1.
         22    1    4    4    0    0  0.17739010207E+02  0.34577961627E+02 -0.17450402645E+02  0.42600756635E+02  0.00000000000E+00 0.  1.
<mgrwt>
<rscale>  0 0.91566553E+02</rscale>
<asrwt>0</asrwt>
<pdfrwt beam="1">  1        1 0.43379565E-02 0.91566553E+02</pdfrwt>
<pdfrwt beam="2">  1       -1 0.11436729E-01 0.91566553E+02</pdfrwt>
<totfact> 0.84764406E+04</totfact>
</mgrwt>
</event>
<event>
 7    1  0.2787125E-009  0.9379195E+02  0.7818608E-02  0.1293920E+00
         -1   -1    0    0    0  501 -0.00000000000E+00  0.00000000000E+00  0.36655237317E+02  0.36655237664E+02  0.50400000000E-02 0. -1.
          1   -1    0    0  501    0  0.00000000000E+00 -0.00000000000E+00 -0.59997765329E+02  0.59997765541E+02  0.50400000000E-02 0.  1.
         23    2    1    2    0    0  0.00000000000E+00  0.00000000000E+00 -0.23342528012E+02  0.96653003205E+02  0.93791947493E+02 0.  0.
    9000005    2    3    3    0    0  0.18550079540E+02 -0.36060556570E+02 -0.33942843144E+02  0.54738377214E+02  0.14131671815E+02 0.  0.
         22    1    3    3    0    0 -0.18550079540E+02  0.36060556570E+02  0.10600315132E+02  0.41914625991E+02  0.00000000000E+00 0.  1.
         22    1    4    4    0    0 -0.14377386691E+01 -0.84822353132E+01 -0.94928725477E+01  0.12811324584E+02  0.00000000000E+00 0.  1.
         22    1    4    4    0    0  0.19987818209E+02 -0.27578321256E+02 -0.24449970596E+02  0.41927052630E+02  0.00000000000E+00 0.  1.
<mgrwt>
<rscale>  0 0.93791947E+02</rscale>
<asrwt>0</asrwt>
<pdfrwt beam="2">  1        1 0.92304255E-02 0.93791947E+02</pdfrwt>
<pdfrwt beam="1">  1       -1 0.56392673E-02 0.93791947E+02</pdfrwt>
<totfact> 0.89079185E+04</totfact>
</mgrwt>
</event>
<event>
 7    1  0.2787125E-009  0.9103591E+02  0.7818608E-02  0.1300362E+00
          1   -1    0    0  501    0  0.00000000000E+00  0.00000000000E+00  0.24906053196E+03  0.24906053201E+03  0.50400000000E-02 0. -1.
         -1   -1    0    0    0  501 -0.00000000000E+00 -0.00000000000E+00 -0.83187967594E+01  0.83187982862E+01  0.50400000000E-02 0.  1.
         23    2    1    2    0    0  0.00000000000E+00  0.00000000000E+00  0.24074173520E+03  0.25737933030E+03  0.91035908283E+02 0.  0.
    9000005    2    3    3    0    0  0.32414036246E+02  0.15094606856E+02  0.46568045732E+02  0.59940887780E+02  0.12075191203E+02 0.  0.
         22    1    3    3    0    0 -0.32414036246E+02 -0.15094606856E+02  0.19417368947E+03  0.19743844252E+03  0.00000000000E+00 0. -1.
         22    1    4    4    0    0  0.19113764457E+02  0.37368703048E+01  0.18450801134E+02  0.26827826112E+02  0.00000000000E+00 0. -1.
         22    1    4    4    0    0  0.13300271789E+02  0.11357736551E+02  0.28117244598E+02  0.33113061667E+02  0.00000000000E+00 0. -1.
<mgrwt>
<rscale>  0 0.91035908E+02</rscale>
<asrwt>0</asrwt>
<pdfrwt beam="1">  1        1 0.38316997E-01 0.91035908E+02</pdfrwt>
<pdfrwt beam="2">  1       -1 0.12798153E-02 0.91035908E+02</pdfrwt>
<totfact> 0.12409145E+05</totfact>
</mgrwt>
</event>
<event>
 7    1  0.2787125E-009  0.9093216E+02  0.7818608E-02  0.1300610E+00
         -1   -1    0    0    0  501 -0.00000000000E+00  0.00000000000E+00  0.68259658377E+01  0.68259676984E+01  0.50400000000E-02 0.  1.
          1   -1    0    0  501    0  0.00000000000E+00 -0.00000000000E+00 -0.30283830577E+03  0.30283830582E+03  0.50400000000E-02 0. -1.
         23    2    1    2    0    0 -0.17763568394E-14  0.00000000000E+00 -0.29601233994E+03  0.30966427351E+03  0.90932155460E+02 0.  0.
    9000005    2    3    3    0    0  0.10091168143E+02 -0.39798316611E+02 -0.21216427984E+03  0.21630349555E+03  0.93692512563E+01 0.  0.
         22    1    3    3    0    0 -0.10091168143E+02  0.39798316611E+02 -0.83848060100E+02  0.93360777964E+02  0.00000000000E+00 0.  1.
         22    1    4    4    0    0  0.95906346861E+01 -0.40077427326E+02 -0.20408462571E+03  0.20820354201E+03  0.00000000000E+00 0.  1.
         22    1    4    4    0    0  0.50053345732E+00  0.27911071441E+00 -0.80796541294E+01  0.80999535421E+01  0.00000000000E+00 0.  1.
<mgrwt>
<rscale>  0 0.90932155E+02</rscale>
<asrwt>0</asrwt>
<pdfrwt beam="2">  1        1 0.46590498E-01 0.90932155E+02</pdfrwt>
<pdfrwt beam="1">  1       -1 0.10501490E-02 0.90932155E+02</pdfrwt>
<totfact> 0.12927396E+05</totfact>
</mgrwt>
</event>
<event>
 7    1  0.2787125E-009  0.9098729E+02  0.7818608E-02  0.1300478E+00
         -1   -1    0    0    0  501 -0.00000000000E+00  0.00000000000E+00  0.17041763504E+02  0.17041764249E+02  0.50400000000E-02 0.  1.
          1   -1    0    0  501    0  0.00000000000E+00 -0.00000000000E+00 -0.12144704763E+03  0.12144704773E+03  0.50400000000E-02 0. -1.
         23    2    1    2    0    0  0.00000000000E+00 -0.35527136788E-14 -0.10440528413E+03  0.13848881198E+03  0.90987294119E+02 0.  0.
    9000005    2    3    3    0    0 -0.23638261941E+02  0.23464293948E+02 -0.99076610494E+02  0.10475848022E+03  0.69874110667E+01 0.  0.
         22    1    3    3    0    0  0.23638261941E+02 -0.23464293948E+02 -0.53286736322E+01  0.33730331761E+02  0.00000000000E+00 0.  1.
         22    1    4    4    0    0  0.46421151604E+00  0.12459375264E+00 -0.13623654746E+01  0.14446645359E+01  0.00000000000E+00 0.  1.
         22    1    4    4    0    0 -0.24102473457E+02  0.23339700195E+02 -0.97714245019E+02  0.10331381569E+03  0.00000000000E+00 0.  1.
<mgrwt>
<rscale>  0 0.90987294E+02</rscale>
<asrwt>0</asrwt>
<pdfrwt beam="2">  1        1 0.18684161E-01 0.90987294E+02</pdfrwt>
<pdfrwt beam="1">  1       -1 0.26218099E-02 0.90987294E+02</pdfrwt>
<totfact> 0.10857484E+05</totfact>
</mgrwt>
</event>
<event>
 7    1  0.2787125E-009  0.9452257E+02  0.7818608E-02  0.1292255E+00
         -1   -1    0    0    0  501 -0.00000000000E+00  0.00000000000E+00  0.52640519621E+03  0.52640519623E+03  0.50400000000E-02 0.  1.
          1   -1    0    0  501    0  0.00000000000E+00 -0.00000000000E+00 -0.42431726747E+01  0.42431756679E+01  0.50400000000E-02 0. -1.
         23    2    1    2    0    0 -0.17763568394E-14 -0.17763568394E-14  0.52216202353E+03  0.53064837190E+03  0.94522567568E+02 0.  0.
    9000005    2    3    3    0    0  0.14806325634E+02  0.10727777714E+02  0.50553142792E+03  0.50593219897E+03  0.84292855635E+01 0.  0.
         22    1    3    3    0    0 -0.14806325634E+02 -0.10727777714E+02  0.16630595615E+02  0.24716172924E+02  0.00000000000E+00 0. -1.
         22    1    4    4    0    0  0.66292654490E+01  0.17070404614E+01  0.10957341722E+03  0.10978704345E+03  0.00000000000E+00 0.  1.
         22    1    4    4    0    0  0.81770601847E+01  0.90207372530E+01  0.39595801069E+03  0.39614515552E+03  0.00000000000E+00 0.  1.
<mgrwt>
<rscale>  0 0.94522568E+02</rscale>
<asrwt>0</asrwt>
<pdfrwt beam="2">  1        1 0.65279652E-03 0.94522568E+02</pdfrwt>
<pdfrwt beam="1">  1       -1 0.80985354E-01 0.94522568E+02</pdfrwt>
<totfact> 0.41422817E+04</totfact>
</mgrwt>
</event>
<event>
 7    1  0.2787125E-009  0.9204175E+02  0.7818608E-02  0.1297981E+00
          1   -1    0    0  501    0  0.00000000000E+00  0.00000000000E+00  0.61371665973E+01  0.61371686668E+01  0.50400000000E-02 0. -1.
         -1   -1    0    0    0  501 -0.00000000000E+00 -0.00000000000E+00 -0.34509744804E+03  0.34509744808E+03  0.50400000000E-02 0.  1.
         23    2    1    2    0    0  0.00000000000E+00  0.44408920985E-15 -0.33896028145E+03  0.35123461675E+03  0.92041749241E+02 0.  0.
    9000005    2    3    3    0    0 -0.44897868549E+02  0.22245404982E+01 -0.18952899263E+03  0.19518822218E+03  0.12507431758E+02 0.  0.
         22    1    3    3    0    0  0.44897868549E+02 -0.22245404982E+01 -0.14943128882E+03  0.15604639457E+03  0.00000000000E+00 0. -1.
         22    1    4    4    0    0 -0.19025554927E+02  0.51427344561E+01 -0.10122776623E+03  0.10312846413E+03  0.00000000000E+00 0.  1.
         22    1    4    4    0    0 -0.25872313621E+02 -0.29181939579E+01 -0.88301226397E+02  0.92059758045E+02  0.00000000000E+00 0.  1.
<mgrwt>
<rscale>  0 0.92041749E+02</rscale>
<asrwt>0</asrwt>
<pdfrwt beam="1">  1        1 0.94417991E-03 0.92041749E+02</pdfrwt>
<pdfrwt beam="2">  1       -1 0.53091900E-01 0.92041749E+02</pdfrwt>
<totfact> 0.55748726E+04</totfact>
</mgrwt>
</event>
<event>
 7    1  0.2787125E-009  0.9175625E+02  0.7818608E-02  0.1298654E+00
          1   -1    0    0  501    0  0.00000000000E+00  0.00000000000E+00  0.59741347149E+01  0.59741368409E+01  0.50400000000E-02 0. -1.
         -1   -1    0    0    0  501 -0.00000000000E+00 -0.00000000000E+00 -0.35231911082E+03  0.35231911086E+03  0.50400000000E-02 0.  1.
         23    2    1    2    0    0  0.00000000000E+00 -0.17763568394E-14 -0.34634497611E+03  0.35829324770E+03  0.91756247047E+02 0.  0.
    9000005    2    3    3    0    0  0.43497217453E+02  0.85433507716E+01 -0.12865700544E+03  0.13613778560E+03  0.39843255363E+01 0.  0.
         22    1    3    3    0    0 -0.43497217453E+02 -0.85433507716E+01 -0.21768797066E+03  0.22215546210E+03  0.00000000000E+00 0. -1.
         22    1    4    4    0    0  0.23362590786E+02  0.36923614087E+01 -0.63114030997E+02  0.67400482860E+02  0.00000000000E+00 0. -1.
         22    1    4    4    0    0  0.20134626667E+02  0.48509893629E+01 -0.65542974447E+02  0.68737302742E+02  0.00000000000E+00 0. -1.
<mgrwt>
<rscale>  0 0.91756247E+02</rscale>
<asrwt>0</asrwt>
<pdfrwt beam="1">  1        1 0.91909809E-03 0.91756247E+02</pdfrwt>
<pdfrwt beam="2">  1       -1 0.54202924E-01 0.91756247E+02</pdfrwt>
<totfact> 0.55686792E+04</totfact>
</mgrwt>
</event>
<event>
 7    1  0.2787125E-009  0.8835807E+02  0.7818608E-02  0.1306877E+00
          1   -1    0    0  501    0  0.00000000000E+00  0.00000000000E+00  0.95746115585E+02  0.95746115718E+02  0.50400000000E-02 0. -1.
         -1   -1    0    0    0  501 -0.00000000000E+00 -0.00000000000E+00 -0.20385025979E+02  0.20385026602E+02  0.50400000000E-02 0.  1.
         23    2    1    2    0    0 -0.71054273576E-14  0.00000000000E+00  0.75361089607E+02  0.11613114232E+03  0.88358069183E+02 0.  0.
    9000005    2    3    3    0    0 -0.41682581355E+02  0.89474881409E+01  0.33798355463E+02  0.56591609218E+02  0.15581600349E+02 0.  0.
         22    1    3    3    0    0  0.41682581355E+02 -0.89474881409E+01  0.41562734144E+02  0.59539533102E+02  0.00000000000E+00 0.  1.
         22    1    4    4    0    0 -0.25090791351E+01  0.55238859439E+01  0.46060740946E+01  0.76173953942E+01  0.00000000000E+00 0. -1.
         22    1    4    4    0    0 -0.39173502220E+02  0.34236021970E+01  0.29192281368E+02  0.48974213824E+02  0.00000000000E+00 0. -1.
<mgrwt>
<rscale>  0 0.88358069E+02</rscale>
<asrwt>0</asrwt>
<pdfrwt beam="1">  1        1 0.14730172E-01 0.88358069E+02</pdfrwt>
<pdfrwt beam="2">  1       -1 0.31361579E-02 0.88358069E+02</pdfrwt>
<totfact> 0.11295689E+05</totfact>
</mgrwt>
</event>
<event>
 7    1  0.2787125E-009  0.9091187E+02  0.7818608E-02  0.1300658E+00
          1   -1    0    0  501    0  0.00000000000E+00  0.00000000000E+00  0.78209017475E+02  0.78209017637E+02  0.50400000000E-02 0. -1.
         -1   -1    0    0    0  501 -0.00000000000E+00 -0.00000000000E+00 -0.26419483015E+02  0.26419483495E+02  0.50400000000E-02 0.  1.
         23    2    1    2    0    0  0.00000000000E+00  0.00000000000E+00  0.51789534460E+02  0.10462850113E+03  0.90911865945E+02 0.  0.
    9000005    2    3    3    0    0 -0.15034910891E+02  0.41526396701E+02  0.36718880701E+02  0.57963580976E+02  0.78109123177E+01 0.  0.
         22    1    3    3    0    0  0.15034910891E+02 -0.41526396701E+02  0.15070653760E+02  0.46664920156E+02  0.00000000000E+00 0. -1.
         22    1    4    4    0    0 -0.96886711110E+00  0.10282466727E+01  0.33523967891E+01  0.36379333323E+01  0.00000000000E+00 0. -1.
         22    1    4    4    0    0 -0.14066043779E+02  0.40498150028E+02  0.33366483911E+02  0.54325647644E+02  0.00000000000E+00 0. -1.
<mgrwt>
<rscale>  0 0.90911866E+02</rscale>
<asrwt>0</asrwt>
<pdfrwt beam="1">  1        1 0.12032157E-01 0.90911866E+02</pdfrwt>
<pdfrwt beam="2">  1       -1 0.40645359E-02 0.90911866E+02</pdfrwt>
<totfact> 0.10119123E+05</totfact>
</mgrwt>
</event>
<event>
 7    1  0.2989588E-009  0.9140217E+02  0.7818608E-02  0.1299491E+00
         -1   -1    0    0    0  501 -0.00000000000E+00  0.00000000000E+00  0.19921053019E+02  0.19921053656E+02  0.50400000000E-02 0.  1.
          1   -1    0    0  501    0  0.00000000000E+00 -0.00000000000E+00 -0.10484330436E+03  0.10484330448E+03  0.50400000000E-02 0. -1.
         23    2    1    2    0    0  0.35527136788E-14  0.00000000000E+00 -0.84922251339E+02  0.12476435814E+03  0.91402167854E+02 0.  0.
    9000005    2    3    3    0    0 -0.24586810163E+02  0.27964756273E+02 -0.76862099141E+02  0.86665737677E+02  0.14718321075E+02 0.  0.
         22    1    3    3    0    0  0.24586810163E+02 -0.27964756273E+02 -0.80601521975E+01  0.38098620458E+02  0.00000000000E+00 0.  1.
         22    1    4    4    0    0 -0.18469664580E+01  0.27706558307E+01 -0.21296318829E+02  0.21555069346E+02  0.00000000000E+00 0.  1.
         22    1    4    4    0    0 -0.22739843705E+02  0.25194100442E+02 -0.55565780312E+02  0.65110668331E+02  0.00000000000E+00 0.  1.
<mgrwt>
<rscale>  0 0.91402168E+02</rscale>
<asrwt>0</asrwt>
<pdfrwt beam="2">  1        1 0.16129739E-01 0.91402168E+02</pdfrwt>
<pdfrwt beam="1">  1       -1 0.30647775E-02 0.91402168E+02</pdfrwt>
<totfact> 0.10457525E+05</totfact>
</mgrwt>
</event>
<event>
 7    1  0.2787125E-009  0.8905526E+02  0.7818608E-02  0.1305156E+00
          1   -1    0    0  501    0  0.00000000000E+00  0.00000000000E+00  0.94667067695E+01  0.94667081112E+01  0.50400000000E-02 0.  1.
         -1   -1    0    0    0  501 -0.00000000000E+00 -0.00000000000E+00 -0.20944025723E+03  0.20944025729E+03  0.50400000000E-02 0. -1.
         23    2    1    2    0    0  0.00000000000E+00  0.00000000000E+00 -0.19997355046E+03  0.21890696540E+03  0.89055255980E+02 0.  0.
    9000005    2    3    3    0    0 -0.39705543888E+02 -0.15866898598E+02 -0.12368203976E+03  0.13145021443E+03  0.12394483706E+02 0.  0.
         22    1    3    3    0    0  0.39705543888E+02  0.15866898598E+02 -0.76291510698E+02  0.87456750975E+02  0.00000000000E+00 0.  1.
         22    1    4    4    0    0 -0.12655129503E+02 -0.38500409957E+01 -0.23276139069E+02  0.26772257439E+02  0.00000000000E+00 0.  1.
         22    1    4    4    0    0 -0.27050414386E+02 -0.12016857602E+02 -0.10040590070E+03  0.10467795699E+03  0.00000000000E+00 0.  1.
<mgrwt>
<rscale>  0 0.89055256E+02</rscale>
<asrwt>0</asrwt>
<pdfrwt beam="1">  1        1 0.14564167E-02 0.89055256E+02</pdfrwt>
<pdfrwt beam="2">  1       -1 0.32221575E-01 0.89055256E+02</pdfrwt>
<totfact> 0.72828776E+04</totfact>
</mgrwt>
</event>
<event>
 7    1  0.2787125E-009  0.8817919E+02  0.7818608E-02  0.1307322E+00
         -1   -1    0    0    0  501 -0.00000000000E+00  0.00000000000E+00  0.30398536018E+01  0.30398577799E+01  0.50400000000E-02 0.  1.
          1   -1    0    0  501    0  0.00000000000E+00 -0.00000000000E+00 -0.63946862250E+03  0.63946862252E+03  0.50400000000E-02 0. -1.
         23    2    1    2    0    0  0.71054273576E-14  0.49960036108E-15 -0.63642876889E+03  0.64250848030E+03  0.88179189017E+02 0.  0.
    9000005    2    3    3    0    0  0.42371303704E+02 -0.11672018071E+00 -0.38554173993E+03  0.38806862040E+03  0.12628535542E+02 0.  0.
         22    1    3    3    0    0 -0.42371303704E+02  0.11672018071E+00 -0.25088702897E+03  0.25443985990E+03  0.00000000000E+00 0. -1.
         22    1    4    4    0    0  0.15052384601E+02  0.60222382497E+01 -0.14026316324E+03  0.14119701342E+03  0.00000000000E+00 0.  1.
         22    1    4    4    0    0  0.27318919103E+02 -0.61389584304E+01 -0.24527857668E+03  0.24687160698E+03  0.00000000000E+00 0.  1.
<mgrwt>
<rscale>  0 0.88179189E+02</rscale>
<asrwt>0</asrwt>
<pdfrwt beam="2">  1        1 0.98379681E-01 0.88179189E+02</pdfrwt>
<pdfrwt beam="1">  1       -1 0.46767062E-03 0.88179189E+02</pdfrwt>
<totfact> 0.15512089E+05</totfact>
</mgrwt>
</event>
<event>
 7    1  0.2787125E-009  0.9039840E+02  0.7818608E-02  0.1301890E+00
         -1   -1    0    0    0  501 -0.00000000000E+00  0.00000000000E+00  0.11352605205E+02  0.11352606324E+02  0.50400000000E-02 0.  1.
          1   -1    0    0  501    0  0.00000000000E+00 -0.00000000000E+00 -0.17995585096E+03  0.17995585103E+03  0.50400000000E-02 0. -1.
         23    2    1    2    0    0  0.00000000000E+00  0.00000000000E+00 -0.16860324575E+03  0.19130845735E+03  0.90398403615E+02 0.  0.
    9000005    2    3    3    0    0  0.37955589653E+02  0.86454397790E+01 -0.13204108853E+03  0.13790282323E+03  0.81834699482E+01 0.  0.
         22    1    3    3    0    0 -0.37955589653E+02 -0.86454397790E+01 -0.36562157219E+02  0.53405634117E+02  0.00000000000E+00 0.  1.
         22    1    4    4    0    0  0.16772585099E+02 -0.13214526773E+00 -0.60029551584E+02  0.62328838723E+02  0.00000000000E+00 0. -1.
         22    1    4    4    0    0  0.21183004554E+02  0.87775850467E+01 -0.72011536949E+02  0.75573984511E+02  0.00000000000E+00 0. -1.
<mgrwt>
<rscale>  0 0.90398404E+02</rscale>
<asrwt>0</asrwt>
<pdfrwt beam="2">  1        1 0.27685514E-01 0.90398404E+02</pdfrwt>
<pdfrwt beam="1">  1       -1 0.17465549E-02 0.90398404E+02</pdfrwt>
<totfact> 0.11872219E+05</totfact>
</mgrwt>
</event>
<event>
 7    1  0.2787125E-009  0.9243582E+02  0.7818608E-02  0.1297058E+00
         -1   -1    0    0    0  501 -0.00000000000E+00  0.00000000000E+00  0.14662925733E+02  0.14662926599E+02  0.50400000000E-02 0.  1.
          1   -1    0    0  501    0  0.00000000000E+00 -0.00000000000E+00 -0.14568000553E+03  0.14568000562E+03  0.50400000000E-02 0. -1.
         23    2    1    2    0    0  0.00000000000E+00  0.00000000000E+00 -0.13101707980E+03  0.16034293222E+03  0.92435819428E+02 0.  0.
    9000005    2    3    3    0    0 -0.20402313207E+02  0.26903945334E+02 -0.13541572629E+02  0.38111301927E+02  0.11358718528E+02 0.  0.
         22    1    3    3    0    0  0.20402313207E+02 -0.26903945334E+02 -0.11747550717E+03  0.12223163029E+03  0.00000000000E+00 0. -1.
         22    1    4    4    0    0 -0.15009837502E+02  0.25525116687E+02 -0.90627402500E+01  0.30967080336E+02  0.00000000000E+00 0. -1.
         22    1    4    4    0    0 -0.53924757053E+01  0.13788286476E+01 -0.44788323786E+01  0.71442215914E+01  0.00000000000E+00 0. -1.
<mgrwt>
<rscale>  0 0.92435819E+02</rscale>
<asrwt>0</asrwt>
<pdfrwt beam="2">  1        1 0.22412308E-01 0.92435819E+02</pdfrwt>
<pdfrwt beam="1">  1       -1 0.22558349E-02 0.92435819E+02</pdfrwt>
<totfact> 0.10747362E+05</totfact>
</mgrwt>
</event>
<event>
 7    1  0.2787125E-009  0.9102451E+02  0.7818608E-02  0.1300390E+00
          1   -1    0    0  501    0  0.00000000000E+00  0.00000000000E+00  0.32256920581E+01  0.32256959954E+01  0.50400000000E-02 0. -1.
         -1   -1    0    0    0  501 -0.00000000000E+00 -0.00000000000E+00 -0.64214558690E+03  0.64214558692E+03  0.50400000000E-02 0.  1.
         23    2    1    2    0    0  0.00000000000E+00  0.00000000000E+00 -0.63891989484E+03  0.64537128291E+03  0.91024506517E+02 0.  0.
    9000005    2    3    3    0    0  0.27079142456E+02 -0.34291680849E+02 -0.39984872757E+03  0.40233996322E+03  0.94467842917E+01 0.  0.
         22    1    3    3    0    0 -0.27079142456E+02  0.34291680849E+02 -0.23907116727E+03  0.24303131969E+03  0.00000000000E+00 0. -1.
         22    1    4    4    0    0  0.10534154247E+02 -0.97092638710E+01 -0.16700824592E+03  0.16762157503E+03  0.00000000000E+00 0. -1.
         22    1    4    4    0    0  0.16544988210E+02 -0.24582416978E+02 -0.23284048165E+03  0.23471838819E+03  0.00000000000E+00 0. -1.
<mgrwt>
<rscale>  0 0.91024507E+02</rscale>
<asrwt>0</asrwt>
<pdfrwt beam="1">  1        1 0.49626113E-03 0.91024507E+02</pdfrwt>
<pdfrwt beam="2">  1       -1 0.98791527E-01 0.91024507E+02</pdfrwt>
<totfact> 0.39709372E+04</totfact>
</mgrwt>
</event>
<event>
 7    1  0.2787125E-009  0.9034078E+02  0.7818608E-02  0.1302029E+00
         -1   -1    0    0    0  501 -0.00000000000E+00  0.00000000000E+00  0.14991750596E+03  0.14991750604E+03  0.50400000000E-02 0.  1.
          1   -1    0    0  501    0  0.00000000000E+00 -0.00000000000E+00 -0.13609912837E+02  0.13609913770E+02  0.50400000000E-02 0. -1.
         23    2    1    2    0    0  0.00000000000E+00  0.71054273576E-14  0.13630759312E+03  0.16352741981E+03  0.90340783082E+02 0.  0.
    9000005    2    3    3    0    0  0.25213293718E+02 -0.32126596293E+02  0.99172582854E+02  0.10832925538E+03  0.15238044856E+02 0.  0.
         22    1    3    3    0    0 -0.25213293718E+02  0.32126596293E+02  0.37135010266E+02  0.55198164434E+02  0.00000000000E+00 0. -1.
         22    1    4    4    0    0  0.15522581827E+02 -0.11317764055E+02  0.59147560602E+02  0.62189036453E+02  0.00000000000E+00 0.  1.
         22    1    4    4    0    0  0.96907118910E+01 -0.20808832237E+02  0.40025022253E+02  0.46140218924E+02  0.00000000000E+00 0.  1.
<mgrwt>
<rscale>  0 0.90340783E+02</rscale>
<asrwt>0</asrwt>
<pdfrwt beam="2">  1        1 0.20938328E-02 0.90340783E+02</pdfrwt>
<pdfrwt beam="1">  1       -1 0.23064232E-01 0.90340783E+02</pdfrwt>
<totfact> 0.76606503E+04</totfact>
</mgrwt>
</event>
<event>
 7    1  0.2787125E-009  0.9146391E+02  0.7818608E-02  0.1299345E+00
          1   -1    0    0  501    0  0.00000000000E+00  0.00000000000E+00  0.19308446210E+02  0.19308446868E+02  0.50400000000E-02 0. -1.
         -1   -1    0    0    0  501 -0.00000000000E+00 -0.00000000000E+00 -0.10831590418E+03  0.10831590430E+03  0.50400000000E-02 0.  1.
         23    2    1    2    0    0  0.00000000000E+00 -0.35527136788E-14 -0.89007457973E+02  0.12762435117E+03  0.91463913300E+02 0.  0.
    9000005    2    3    3    0    0  0.29088886255E+02  0.29028799151E+02 -0.69303806085E+02  0.82049485491E+02  0.15500517663E+02 0.  0.
         22    1    3    3    0    0 -0.29088886255E+02 -0.29028799151E+02 -0.19703651888E+02  0.45574865676E+02  0.00000000000E+00 0. -1.
         22    1    4    4    0    0  0.11119200499E+02  0.40190493743E+01 -0.29069882415E+02  0.31382279096E+02  0.00000000000E+00 0.  1.
         22    1    4    4    0    0  0.17969685756E+02  0.25009749777E+02 -0.40233923670E+02  0.50667206396E+02  0.00000000000E+00 0.  1.
<mgrwt>
<rscale>  0 0.91463913E+02</rscale>
<asrwt>0</asrwt>
<pdfrwt beam="1">  1        1 0.29705303E-02 0.91463913E+02</pdfrwt>
<pdfrwt beam="2">  1       -1 0.16663985E-01 0.91463913E+02</pdfrwt>
<totfact> 0.79499140E+04</totfact>
</mgrwt>
</event>
<event>
 7    1  0.2787125E-009  0.9055557E+02  0.7818608E-02  0.1301512E+00
         -1   -1    0    0    0  501 -0.00000000000E+00  0.00000000000E+00  0.93220125194E+00  0.93221487637E+00  0.50400000000E-02 0.  1.
          1   -1    0    0  501    0  0.00000000000E+00 -0.00000000000E+00 -0.21991633173E+04  0.21991633173E+04  0.50400000000E-02 0. -1.
         23    2    1    2    0    0  0.00000000000E+00  0.00000000000E+00 -0.21982311160E+04  0.22000955322E+04  0.90555569491E+02 0.  0.
    9000005    2    3    3    0    0  0.13097391694E+02  0.32261596062E+01 -0.21490077081E+04  0.21490573732E+04  0.56137656049E+01 0.  0.
         22    1    3    3    0    0 -0.13097391694E+02 -0.32261596062E+01 -0.49223407955E+02  0.51038158918E+02  0.00000000000E+00 0.  1.
         22    1    4    4    0    0  0.87895457661E+01  0.40567619644E+01 -0.11789212240E+04  0.11789609687E+04  0.00000000000E+00 0.  1.
         22    1    4    4    0    0  0.43078459281E+01 -0.83060235821E+00 -0.97008648408E+03  0.97009640451E+03  0.00000000000E+00 0.  1.
<mgrwt>
<rscale>  0 0.90555569E+02</rscale>
<asrwt>0</asrwt>
<pdfrwt beam="2">  1        1 0.33832867E+00 0.90555569E+02</pdfrwt>
<pdfrwt beam="1">  1       -1 0.14341839E-03 0.90555569E+02</pdfrwt>
<totfact> 0.69389312E+04</totfact>
</mgrwt>
</event>
<event>
 7    1  0.2787125E-009  0.9308431E+02  0.7818608E-02  0.1295550E+00
          1   -1    0    0  501    0  0.00000000000E+00  0.00000000000E+00  0.13240352617E+03  0.13240352626E+03  0.50400000000E-02 0. -1.
         -1   -1    0    0    0  501 -0.00000000000E+00 -0.00000000000E+00 -0.16360379383E+02  0.16360380160E+02  0.50400000000E-02 0.  1.
         23    2    1    2    0    0  0.00000000000E+00 -0.35527136788E-14  0.11604314678E+03  0.14876390642E+03  0.93084305544E+02 0.  0.
    9000005    2    3    3    0    0 -0.10668650606E+02 -0.29800768124E+02  0.53629779979E+01  0.33646550438E+02  0.10070895532E+02 0.  0.
         22    1    3    3    0    0  0.10668650606E+02  0.29800768124E+02  0.11068016879E+03  0.11511735599E+03  0.00000000000E+00 0. -1.
         22    1    4    4    0    0 -0.12513863488E+02 -0.27333031993E+02  0.42017584949E+01  0.30353684979E+02  0.00000000000E+00 0.  1.
         22    1    4    4    0    0  0.18452128829E+01 -0.24677361310E+01  0.11612195030E+01  0.32928654588E+01  0.00000000000E+00 0.  1.
<mgrwt>
<rscale>  0 0.93084306E+02</rscale>
<asrwt>0</asrwt>
<pdfrwt beam="1">  1        1 0.20369773E-01 0.93084306E+02</pdfrwt>
<pdfrwt beam="2">  1       -1 0.25169816E-02 0.93084306E+02</pdfrwt>
<totfact> 0.10364031E+05</totfact>
</mgrwt>
</event>
<event>
 7    1  0.2787125E-009  0.9314411E+02  0.7818608E-02  0.1295412E+00
         -1   -1    0    0    0  501 -0.00000000000E+00  0.00000000000E+00  0.10099369327E+02  0.10099370584E+02  0.50400000000E-02 0.  1.
          1   -1    0    0  501    0  0.00000000000E+00 -0.00000000000E+00 -0.21476152377E+03  0.21476152383E+03  0.50400000000E-02 0. -1.
         23    2    1    2    0    0  0.00000000000E+00  0.00000000000E+00 -0.20466215445E+03  0.22486089442E+03  0.93144105424E+02 0.  0.
    9000005    2    3    3    0    0 -0.36756189501E+02  0.62201623958E+01 -0.16863085349E+03  0.17301533014E+03  0.10403452629E+02 0.  0.
         22    1    3    3    0    0  0.36756189501E+02 -0.62201623958E+01 -0.36031300953E+02  0.51845564277E+02  0.00000000000E+00 0.  1.
         22    1    4    4    0    0 -0.36577126557E+02  0.43783876955E+01 -0.16152112290E+03  0.16566873455E+03  0.00000000000E+00 0.  1.
         22    1    4    4    0    0 -0.17906294402E+00  0.18417747002E+01 -0.71097305934E+01  0.73465955854E+01  0.00000000000E+00 0.  1.
<mgrwt>
<rscale>  0 0.93144105E+02</rscale>
<asrwt>0</asrwt>
<pdfrwt beam="2">  1        1 0.33040231E-01 0.93144105E+02</pdfrwt>
<pdfrwt beam="1">  1       -1 0.15537494E-02 0.93144105E+02</pdfrwt>
<totfact> 0.11337332E+05</totfact>
</mgrwt>
</event>
<event>
 7    1  0.2787125E-009  0.9035503E+02  0.7818608E-02  0.1301994E+00
          1   -1    0    0  501    0  0.00000000000E+00  0.00000000000E+00  0.30989340808E+02  0.30989341218E+02  0.50400000000E-02 0. -1.
         -1   -1    0    0    0  501 -0.00000000000E+00 -0.00000000000E+00 -0.65861613544E+02  0.65861613736E+02  0.50400000000E-02 0.  1.
         23    2    1    2    0    0  0.17763568394E-14  0.35527136788E-14 -0.34872272736E+02  0.96850954954E+02  0.90355033450E+02 0.  0.
    9000005    2    3    3    0    0  0.11709225896E+02  0.22663631678E+02  0.20946703541E+02  0.35479102411E+02  0.13009848069E+02 0.  0.
         22    1    3    3    0    0 -0.11709225896E+02 -0.22663631678E+02 -0.55818976277E+02  0.61371852543E+02  0.00000000000E+00 0.  1.
         22    1    4    4    0    0  0.12511271052E+02  0.21040379768E+02  0.22381701912E+02  0.33168811625E+02  0.00000000000E+00 0.  1.
         22    1    4    4    0    0 -0.80204515604E+00  0.16232519098E+01 -0.14349983708E+01  0.23102907867E+01  0.00000000000E+00 0.  1.
<mgrwt>
<rscale>  0 0.90355033E+02</rscale>
<asrwt>0</asrwt>
<pdfrwt beam="1">  1        1 0.47675909E-02 0.90355033E+02</pdfrwt>
<pdfrwt beam="2">  1       -1 0.10132556E-01 0.90355033E+02</pdfrwt>
<totfact> 0.89424022E+04</totfact>
</mgrwt>
</event>
<event>
 7    1  0.2787125E-009  0.1001763E+03  0.7818608E-02  0.1279926E+00
         -1   -1    0    0    0  501 -0.00000000000E+00  0.00000000000E+00  0.20209631653E+01  0.20209694499E+01  0.50400000000E-02 0.  1.
          1   -1    0    0  501    0  0.00000000000E+00 -0.00000000000E+00 -0.12413983145E+04  0.12413983145E+04  0.50400000000E-02 0. -1.
         23    2    1    2    0    0  0.00000000000E+00  0.00000000000E+00 -0.12393773514E+04  0.12434192840E+04  0.10017632816E+03 0.  0.
    9000005    2    3    3    0    0  0.28581900652E+02  0.24498121178E+02 -0.10224868345E+04  0.10232861894E+04  0.14772132572E+02 0.  0.
         22    1    3    3    0    0 -0.28581900652E+02 -0.24498121178E+02 -0.21689051692E+03  0.22013309455E+03  0.00000000000E+00 0.  1.
         22    1    4    4    0    0  0.88204567744E+01  0.17040586279E+02 -0.52765987054E+03  0.52800863725E+03  0.00000000000E+00 0.  1.
         22    1    4    4    0    0  0.19761443878E+02  0.74575348993E+01 -0.49482696392E+03  0.49527755220E+03  0.00000000000E+00 0.  1.
<mgrwt>
<rscale>  0 0.10017633E+03</rscale>
<asrwt>0</asrwt>
<pdfrwt beam="2">  1        1 0.19098375E+00 0.10017633E+03</pdfrwt>
<pdfrwt beam="1">  1       -1 0.31091889E-03 0.10017633E+03</pdfrwt>
<totfact> 0.97495110E+04</totfact>
</mgrwt>
</event>
<event>
 7    1  0.2787125E-009  0.1035949E+03  0.7818608E-02  0.1272913E+00
          1   -1    0    0  501    0  0.00000000000E+00  0.00000000000E+00  0.96630449808E+03  0.96630449810E+03  0.50400000000E-02 0. -1.
         -1   -1    0    0    0  501 -0.00000000000E+00 -0.00000000000E+00 -0.27765286937E+01  0.27765332680E+01  0.50400000000E-02 0.  1.
         23    2    1    2    0    0 -0.17763568394E-14  0.00000000000E+00  0.96352796939E+03  0.96908103136E+03  0.10359487224E+03 0.  0.
    9000005    2    3    3    0    0  0.15392881280E+02  0.24870460743E+02  0.87958397020E+03  0.88018741173E+03  0.14367968704E+02 0.  0.
         22    1    3    3    0    0 -0.15392881280E+02 -0.24870460743E+02  0.83943999192E+02  0.88893619636E+02  0.00000000000E+00 0.  1.
         22    1    4    4    0    0  0.14903388713E+02  0.13554571007E+02  0.44484919584E+03  0.44530511386E+03  0.00000000000E+00 0. -1.
         22    1    4    4    0    0  0.48949256691E+00  0.11315889736E+02  0.43473477436E+03  0.43488229787E+03  0.00000000000E+00 0. -1.
<mgrwt>
<rscale>  0 0.10359487E+03</rscale>
<asrwt>0</asrwt>
<pdfrwt beam="1">  1        1 0.14866239E+00 0.10359487E+03</pdfrwt>
<pdfrwt beam="2">  1       -1 0.42715815E-03 0.10359487E+03</pdfrwt>
<totfact> 0.97684626E+04</totfact>
</mgrwt>
</event>
<event>
 7    1  0.2787126E-009  0.9164226E+02  0.7818608E-02  0.1298923E+00
         -1   -1    0    0    0  501 -0.00000000000E+00  0.00000000000E+00  0.65328887338E+01  0.65328906779E+01  0.50400000000E-02 0.  1.
          1   -1    0    0  501    0  0.00000000000E+00 -0.00000000000E+00 -0.32138551153E+03  0.32138551157E+03  0.50400000000E-02 0. -1.
         23    2    1    2    0    0  0.00000000000E+00  0.00000000000E+00 -0.31485262279E+03  0.32791840224E+03  0.91642263453E+02 0.  0.
    9000005    2    3    3    0    0  0.13308920728E+02  0.34243820870E+02 -0.25220899248E+03  0.25529615319E+03  0.14730353285E+02 0.  0.
         22    1    3    3    0    0 -0.13308920728E+02 -0.34243820870E+02 -0.62643630315E+02  0.72622249054E+02  0.00000000000E+00 0.  1.
         22    1    4    4    0    0  0.15909771130E+02  0.23897474790E+02 -0.17173744142E+03  0.17412052982E+03  0.00000000000E+00 0. -1.
         22    1    4    4    0    0 -0.26008504017E+01  0.10346346079E+02 -0.80471551059E+02  0.81175623372E+02  0.00000000000E+00 0. -1.
<mgrwt>
<rscale>  0 0.91642263E+02</rscale>
<asrwt>0</asrwt>
<pdfrwt beam="2">  1        1 0.49443912E-01 0.91642263E+02</pdfrwt>
<pdfrwt beam="1">  1       -1 0.10050602E-02 0.91642263E+02</pdfrwt>
<totfact> 0.12804682E+05</totfact>
</mgrwt>
</event>
<event>
 7    1  0.2787125E-009  0.9083342E+02  0.7818608E-02  0.1300846E+00
         -1   -1    0    0    0  501 -0.00000000000E+00  0.00000000000E+00  0.20258551949E+03  0.20258551955E+03  0.50400000000E-02 0.  1.
          1   -1    0    0  501    0  0.00000000000E+00 -0.00000000000E+00 -0.10181760222E+02  0.10181761469E+02  0.50400000000E-02 0. -1.
         23    2    1    2    0    0  0.00000000000E+00 -0.71054273576E-14  0.19240375926E+03  0.21276728102E+03  0.90833415066E+02 0.  0.
    9000005    2    3    3    0    0  0.25627051034E+02 -0.37267203693E+02  0.89498091626E+02  0.10036102386E+03  0.41032292185E+01 0.  0.
         22    1    3    3    0    0 -0.25627051034E+02  0.37267203693E+02  0.10290566764E+03  0.11240625716E+03  0.00000000000E+00 0. -1.
         22    1    4    4    0    0  0.21453605373E+02 -0.31765891507E+02  0.72400671734E+02  0.81921830511E+02  0.00000000000E+00 0.  1.
         22    1    4    4    0    0  0.41734456611E+01 -0.55013121862E+01  0.17097419891E+02  0.18439193350E+02  0.00000000000E+00 0.  1.
<mgrwt>
<rscale>  0 0.90833415E+02</rscale>
<asrwt>0</asrwt>
<pdfrwt beam="2">  1        1 0.15664249E-02 0.90833415E+02</pdfrwt>
<pdfrwt beam="1">  1       -1 0.31167001E-01 0.90833415E+02</pdfrwt>
<totfact> 0.69852130E+04</totfact>
</mgrwt>
</event>
<event>
 7    1  0.2787125E-009  0.9580847E+02  0.7818608E-02  0.1289366E+00
         -1   -1    0    0    0  501 -0.00000000000E+00  0.00000000000E+00  0.17111133131E+03  0.17111133138E+03  0.50400000000E-02 0.  1.
          1   -1    0    0  501    0  0.00000000000E+00 -0.00000000000E+00 -0.13411244049E+02  0.13411244996E+02  0.50400000000E-02 0. -1.
         23    2    1    2    0    0  0.00000000000E+00  0.00000000000E+00  0.15770008726E+03  0.18452257638E+03  0.95808473905E+02 0.  0.
    9000005    2    3    3    0    0 -0.34575640513E+02 -0.26511865561E+02  0.11567980497E+03  0.12399111302E+03  0.96759959856E+01 0.  0.
         22    1    3    3    0    0  0.34575640513E+02  0.26511865561E+02  0.42020282291E+02  0.60531463358E+02  0.00000000000E+00 0. -1.
         22    1    4    4    0    0 -0.22499961629E+02 -0.21999832553E+02  0.75549245239E+02  0.81840878305E+02  0.00000000000E+00 0.  1.
         22    1    4    4    0    0 -0.12075678884E+02 -0.45120330076E+01  0.40130559731E+02  0.42150234717E+02  0.00000000000E+00 0.  1.
<mgrwt>
<rscale>  0 0.95808474E+02</rscale>
<asrwt>0</asrwt>
<pdfrwt beam="2">  1        1 0.20632686E-02 0.95808474E+02</pdfrwt>
<pdfrwt beam="1">  1       -1 0.26324818E-01 0.95808474E+02</pdfrwt>
<totfact> 0.63646445E+04</totfact>
</mgrwt>
</event>
<event>
 7    1  0.2787125E-009  0.8016007E+02  0.7818608E-02  0.1328598E+00
         -1   -1    0    0    0  501 -0.00000000000E+00  0.00000000000E+00  0.21405511672E+02  0.21405512265E+02  0.50400000000E-02 0.  1.
          1   -1    0    0  501    0  0.00000000000E+00 -0.00000000000E+00 -0.75046519916E+02  0.75046520085E+02  0.50400000000E-02 0. -1.
         23    2    1    2    0    0  0.00000000000E+00  0.00000000000E+00 -0.53641008244E+02  0.96452032350E+02  0.80160069729E+02 0.  0.
    9000005    2    3    3    0    0  0.85815806536E+01 -0.34591022585E+02 -0.47976285339E+02  0.60365033921E+02  0.84871075982E+01 0.  0.
         22    1    3    3    0    0 -0.85815806536E+01  0.34591022585E+02 -0.56647229052E+01  0.36086998429E+02  0.00000000000E+00 0. -1.
         22    1    4    4    0    0  0.50072630146E+00 -0.13091906807E+01  0.20371798779E-01  0.14018281199E+01  0.00000000000E+00 0.  1.
         22    1    4    4    0    0  0.80808543521E+01 -0.33281831905E+02 -0.47996657137E+02  0.58963205801E+02  0.00000000000E+00 0.  1.
<mgrwt>
<rscale>  0 0.80160070E+02</rscale>
<asrwt>0</asrwt>
<pdfrwt beam="2">  1        1 0.11545618E-01 0.80160070E+02</pdfrwt>
<pdfrwt beam="1">  1       -1 0.32931557E-02 0.80160070E+02</pdfrwt>
<totfact> 0.14166130E+05</totfact>
</mgrwt>
</event>
<event>
 7    1  0.2787125E-009  0.9097641E+02  0.7818608E-02  0.1300504E+00
          1   -1    0    0  501    0  0.00000000000E+00  0.00000000000E+00  0.54395456642E+02  0.54395456876E+02  0.50400000000E-02 0. -1.
         -1   -1    0    0    0  501 -0.00000000000E+00 -0.00000000000E+00 -0.38039512090E+02  0.38039512424E+02  0.50400000000E-02 0.  1.
         23    2    1    2    0    0 -0.11102230246E-15  0.00000000000E+00  0.16355944552E+02  0.92434969300E+02  0.90976406981E+02 0.  0.
    9000005    2    3    3    0    0  0.93557636765E+00 -0.33640329537E+02  0.37473241988E+02  0.52704787756E+02  0.15524294279E+02 0.  0.
         22    1    3    3    0    0 -0.93557636765E+00  0.33640329537E+02 -0.21117297436E+02  0.39730181543E+02  0.00000000000E+00 0.  1.
         22    1    4    4    0    0  0.43987974065E+01 -0.23517367954E+02  0.33763226027E+02  0.41380810115E+02  0.00000000000E+00 0.  1.
         22    1    4    4    0    0 -0.34632210389E+01 -0.10122961583E+02  0.37100159615E+01  0.11323977641E+02  0.00000000000E+00 0.  1.
<mgrwt>
<rscale>  0 0.90976407E+02</rscale>
<asrwt>0</asrwt>
<pdfrwt beam="1">  1        1 0.83685318E-02 0.90976407E+02</pdfrwt>
<pdfrwt beam="2">  1       -1 0.58522327E-02 0.90976407E+02</pdfrwt>
<totfact> 0.95541239E+04</totfact>
</mgrwt>
</event>
<event>
 7    1  0.2787125E-009  0.9120183E+02  0.7818608E-02  0.1299967E+00
         -1   -1    0    0    0  501 -0.00000000000E+00  0.00000000000E+00  0.49486134874E+01  0.49486160539E+01  0.50400000000E-02 0.  1.
          1   -1    0    0  501    0  0.00000000000E+00 -0.00000000000E+00 -0.42020721005E+03  0.42020721008E+03  0.50400000000E-02 0. -1.
         23    2    1    2    0    0  0.71054273576E-14  0.00000000000E+00 -0.41525859656E+03  0.42515582613E+03  0.91201833735E+02 0.  0.
    9000005    2    3    3    0    0  0.42559459880E+02  0.11646860482E+02 -0.16999200644E+03  0.17595177879E+03  0.10713973124E+02 0.  0.
         22    1    3    3    0    0 -0.42559459880E+02 -0.11646860482E+02 -0.24526659012E+03  0.24920404734E+03  0.00000000000E+00 0.  1.
         22    1    4    4    0    0  0.34312888351E+02  0.56408745280E+01 -0.14072544736E+03  0.14495808120E+03  0.00000000000E+00 0. -1.
         22    1    4    4    0    0  0.82465715292E+01  0.60059859543E+01 -0.29266559084E+02  0.30993697584E+02  0.00000000000E+00 0. -1.
<mgrwt>
<rscale>  0 0.91201834E+02</rscale>
<asrwt>0</asrwt>
<pdfrwt beam="2">  1        1 0.64647235E-01 0.91201834E+02</pdfrwt>
<pdfrwt beam="1">  1       -1 0.76132568E-03 0.91201834E+02</pdfrwt>
<totfact> 0.13585945E+05</totfact>
</mgrwt>
</event>
<event>
 7    1  0.2787125E-009  0.8793803E+02  0.7818608E-02  0.1307923E+00
         -1   -1    0    0    0  501 -0.00000000000E+00  0.00000000000E+00  0.49282544792E+02  0.49282545049E+02  0.50400000000E-02 0.  1.
          1   -1    0    0  501    0  0.00000000000E+00 -0.00000000000E+00 -0.39228375223E+02  0.39228375547E+02  0.50400000000E-02 0. -1.
         23    2    1    2    0    0  0.00000000000E+00  0.00000000000E+00  0.10054169568E+02  0.88510920596E+02  0.87938027833E+02 0.  0.
    9000005    2    3    3    0    0 -0.80470048623E+01 -0.41353695166E+02 -0.64144144759E+01  0.43277120717E+02  0.75420205056E+01 0.  0.
         22    1    3    3    0    0  0.80470048623E+01  0.41353695166E+02  0.16468584044E+02  0.45233799880E+02  0.00000000000E+00 0. -1.
         22    1    4    4    0    0 -0.82895237564E+01 -0.41046043807E+02 -0.71145645497E+01  0.42474827193E+02  0.00000000000E+00 0.  1.
         22    1    4    4    0    0  0.24251889408E+00 -0.30765135917E+00  0.70015007384E+00  0.80229352402E+00  0.00000000000E+00 0.  1.
<mgrwt>
<rscale>  0 0.87938028E+02</rscale>
<asrwt>0</asrwt>
<pdfrwt beam="2">  1        1 0.60351347E-02 0.87938028E+02</pdfrwt>
<pdfrwt beam="1">  1       -1 0.75819300E-02 0.87938028E+02</pdfrwt>
<totfact> 0.10008874E+05</totfact>
</mgrwt>
</event>
<event>
 7    1  0.2787125E-009  0.9094127E+02  0.7818608E-02  0.1300588E+00
         -1   -1    0    0    0  501 -0.00000000000E+00  0.00000000000E+00  0.44758401876E+02  0.44758402160E+02  0.50400000000E-02 0.  1.
          1   -1    0    0  501    0  0.00000000000E+00 -0.00000000000E+00 -0.46194201609E+02  0.46194201884E+02  0.50400000000E-02 0. -1.
         23    2    1    2    0    0  0.00000000000E+00  0.35527136788E-14 -0.14357997331E+01  0.90952604043E+02  0.90941270397E+02 0.  0.
    9000005    2    3    3    0    0 -0.17178285724E+02  0.25774224389E+02 -0.32430783073E+02  0.47133736697E+02  0.14506181475E+02 0.  0.
         22    1    3    3    0    0  0.17178285724E+02 -0.25774224389E+02  0.30994983340E+02  0.43818867347E+02  0.00000000000E+00 0.  1.
         22    1    4    4    0    0  0.11292749265E+01 -0.53697515676E+00 -0.43278145372E+01  0.45048399358E+01  0.00000000000E+00 0.  1.
         22    1    4    4    0    0 -0.18307560651E+02  0.26311199546E+02 -0.28102968536E+02  0.42628896761E+02  0.00000000000E+00 0.  1.
<mgrwt>
<rscale>  0 0.90941270E+02</rscale>
<asrwt>0</asrwt>
<pdfrwt beam="2">  1        1 0.71068003E-02 0.90941270E+02</pdfrwt>
<pdfrwt beam="1">  1       -1 0.68859080E-02 0.90941270E+02</pdfrwt>
<totfact> 0.93330840E+04</totfact>
</mgrwt>
</event>
<event>
 7    1  0.2787125E-009  0.9126698E+02  0.7818608E-02  0.1299812E+00
         -1   -1    0    0    0  501 -0.00000000000E+00  0.00000000000E+00  0.20549491626E+02  0.20549492244E+02  0.50400000000E-02 0.  1.
          1   -1    0    0  501    0  0.00000000000E+00 -0.00000000000E+00 -0.10133658699E+03  0.10133658712E+03  0.50400000000E-02 0. -1.
         23    2    1    2    0    0 -0.88817841970E-15 -0.71054273576E-14 -0.80787095367E+02  0.12188607936E+03  0.91266979595E+02 0.  0.
    9000005    2    3    3    0    0 -0.75656977195E+01 -0.40962515964E+02 -0.62408902026E+02  0.76356687905E+02  0.14152923358E+02 0.  0.
         22    1    3    3    0    0  0.75656977195E+01  0.40962515964E+02 -0.18378193341E+02  0.45529391458E+02  0.00000000000E+00 0.  1.
         22    1    4    4    0    0 -0.46248682008E+01 -0.36470741852E+02 -0.44829692401E+02  0.57975906529E+02  0.00000000000E+00 0. -1.
         22    1    4    4    0    0 -0.29408295187E+01 -0.44917741119E+01 -0.17579209625E+02  0.18380781375E+02  0.00000000000E+00 0. -1.
<mgrwt>
<rscale>  0 0.91266980E+02</rscale>
<asrwt>0</asrwt>
<pdfrwt beam="2">  1        1 0.15590244E-01 0.91266980E+02</pdfrwt>
<pdfrwt beam="1">  1       -1 0.31614604E-02 0.91266980E+02</pdfrwt>
<totfact> 0.10440114E+05</totfact>
</mgrwt>
</event>
<event>
 7    1  0.2787125E-009  0.8952979E+02  0.7818608E-02  0.1303994E+00
         -1   -1    0    0    0  501 -0.00000000000E+00  0.00000000000E+00  0.90425975682E+02  0.90425975822E+02  0.50400000000E-02 0.  1.
          1   -1    0    0  501    0  0.00000000000E+00 -0.00000000000E+00 -0.22160619397E+02  0.22160619970E+02  0.50400000000E-02 0. -1.
         23    2    1    2    0    0  0.00000000000E+00  0.00000000000E+00  0.68265356284E+02  0.11258659579E+03  0.89529786571E+02 0.  0.
    9000005    2    3    3    0    0 -0.11242779055E+01  0.20198421325E+02 -0.16014111193E+02  0.25913250045E+02  0.24092624955E+01 0.  0.
         22    1    3    3    0    0  0.11242779055E+01 -0.20198421325E+02  0.84279467477E+02  0.86673345748E+02  0.00000000000E+00 0.  1.
         22    1    4    4    0    0  0.34747912405E+00  0.44218409110E+01 -0.25235245489E+01  0.51030966024E+01  0.00000000000E+00 0. -1.
         22    1    4    4    0    0 -0.14717570295E+01  0.15776580414E+02 -0.13490586644E+02  0.20810153443E+02  0.00000000000E+00 0. -1.
<mgrwt>
<rscale>  0 0.89529787E+02</rscale>
<asrwt>0</asrwt>
<pdfrwt beam="2">  1        1 0.34093261E-02 0.89529787E+02</pdfrwt>
<pdfrwt beam="1">  1       -1 0.13911688E-01 0.89529787E+02</pdfrwt>
<totfact> 0.86840852E+04</totfact>
</mgrwt>
</event>
<event>
 7    1  0.2787125E-009  0.9234003E+02  0.7818608E-02  0.1297282E+00
          1   -1    0    0  501    0  0.00000000000E+00  0.00000000000E+00  0.34477166769E+03  0.34477166773E+03  0.50400000000E-02 0. -1.
         -1   -1    0    0    0  501 -0.00000000000E+00 -0.00000000000E+00 -0.61828449134E+01  0.61828469676E+01  0.50400000000E-02 0.  1.
         23    2    1    2    0    0  0.00000000000E+00  0.00000000000E+00  0.33858882278E+03  0.35095451470E+03  0.92340026399E+02 0.  0.
    9000005    2    3    3    0    0  0.39313177741E+02  0.24083090164E+02  0.17212662425E+03  0.17822586995E+03  0.33711672757E+01 0.  0.
         22    1    3    3    0    0 -0.39313177741E+02 -0.24083090164E+02  0.16646219853E+03  0.17272864475E+03  0.00000000000E+00 0.  1.
         22    1    4    4    0    0  0.20812736754E+02  0.12675724167E+02  0.84471085442E+02  0.87915915909E+02  0.00000000000E+00 0.  1.
         22    1    4    4    0    0  0.18500440987E+02  0.11407365998E+02  0.87655538804E+02  0.90309954040E+02  0.00000000000E+00 0.  1.
<mgrwt>
<rscale>  0 0.92340026E+02</rscale>
<asrwt>0</asrwt>
<pdfrwt beam="1">  1        1 0.53041788E-01 0.92340026E+02</pdfrwt>
<pdfrwt beam="2">  1       -1 0.95120720E-03 0.92340026E+02</pdfrwt>
<totfact> 0.12711308E+05</totfact>
</mgrwt>
</event>
<event>
 7    1  0.2787125E-009  0.9318945E+02  0.7818608E-02  0.1295307E+00
          1   -1    0    0  501    0  0.00000000000E+00  0.00000000000E+00  0.45853297762E+03  0.45853297765E+03  0.50400000000E-02 0. -1.
         -1   -1    0    0    0  501 -0.00000000000E+00 -0.00000000000E+00 -0.47348132125E+01  0.47348158950E+01  0.50400000000E-02 0.  1.
         23    2    1    2    0    0  0.00000000000E+00  0.00000000000E+00  0.45379816441E+03  0.46326779354E+03  0.93189454952E+02 0.  0.
    9000005    2    3    3    0    0  0.22800166608E+02  0.36972882672E+02  0.30704360431E+03  0.31021962283E+03  0.85789153061E+01 0.  0.
         22    1    3    3    0    0 -0.22800166608E+02 -0.36972882672E+02  0.14675456009E+03  0.15304817071E+03  0.00000000000E+00 0. -1.
         22    1    4    4    0    0  0.25660008144E+01  0.78595120360E+01  0.41119592368E+02  0.41942546014E+02  0.00000000000E+00 0. -1.
         22    1    4    4    0    0  0.20234165794E+02  0.29113370636E+02  0.26592401195E+03  0.26827707682E+03  0.00000000000E+00 0. -1.
<mgrwt>
<rscale>  0 0.93189455E+02</rscale>
<asrwt>0</asrwt>
<pdfrwt beam="1">  1        1 0.70543545E-01 0.93189455E+02</pdfrwt>
<pdfrwt beam="2">  1       -1 0.72843291E-03 0.93189455E+02</pdfrwt>
<totfact> 0.12996223E+05</totfact>
</mgrwt>
</event>
<event>
 7    1  0.2787125E-009  0.8997388E+02  0.7818608E-02  0.1302915E+00
          1   -1    0    0  501    0  0.00000000000E+00  0.00000000000E+00  0.38365488670E+02  0.38365489001E+02  0.50400000000E-02 0. -1.
         -1   -1    0    0    0  501 -0.00000000000E+00 -0.00000000000E+00 -0.52751177313E+02  0.52751177554E+02  0.50400000000E-02 0.  1.
         23    2    1    2    0    0 -0.35527136788E-14  0.00000000000E+00 -0.14385688644E+02  0.91116666555E+02  0.89973878911E+02 0.  0.
    9000005    2    3    3    0    0  0.20826580321E+02 -0.10634042697E+02  0.31214690856E+02  0.39869969857E+02  0.82721375257E+01 0.  0.
         22    1    3    3    0    0 -0.20826580321E+02  0.10634042697E+02 -0.45600379499E+02  0.51246696698E+02  0.00000000000E+00 0.  1.
         22    1    4    4    0    0  0.99973273612E+01 -0.10025933256E+01  0.99850724507E+01  0.14165218657E+02  0.00000000000E+00 0. -1.
         22    1    4    4    0    0  0.10829252960E+02 -0.96314493714E+01  0.21229618405E+02  0.25704751201E+02  0.00000000000E+00 0. -1.
<mgrwt>
<rscale>  0 0.89973879E+02</rscale>
<asrwt>0</asrwt>
<pdfrwt beam="1">  1        1 0.59023829E-02 0.89973879E+02</pdfrwt>
<pdfrwt beam="2">  1       -1 0.81155658E-02 0.89973879E+02</pdfrwt>
<totfact> 0.93533869E+04</totfact>
</mgrwt>
</event>
<event>
 7    1  0.2787125E-009  0.9046650E+02  0.7818608E-02  0.1301726E+00
         -1   -1    0    0    0  501 -0.00000000000E+00  0.00000000000E+00  0.14682227626E+03  0.14682227634E+03  0.50400000000E-02 0.  1.
          1   -1    0    0  501    0  0.00000000000E+00 -0.00000000000E+00 -0.13935532955E+02  0.13935533866E+02  0.50400000000E-02 0. -1.
         23    2    1    2    0    0 -0.71054273576E-14  0.35527136788E-14  0.13288674330E+03  0.16075781021E+03  0.90466496549E+02 0.  0.
    9000005    2    3    3    0    0 -0.30339906127E+02  0.20957269837E+02  0.11235491788E+03  0.11855268116E+03  0.84494719441E+01 0.  0.
         22    1    3    3    0    0  0.30339906127E+02 -0.20957269837E+02  0.20531825426E+02  0.42205129050E+02  0.00000000000E+00 0. -1.
         22    1    4    4    0    0 -0.87565326407E+01  0.65387041177E+01  0.22334959206E+02  0.24865275349E+02  0.00000000000E+00 0. -1.
         22    1    4    4    0    0 -0.21583373487E+02  0.14418565719E+02  0.90019958671E+02  0.93687405811E+02  0.00000000000E+00 0. -1.
<mgrwt>
<rscale>  0 0.90466497E+02</rscale>
<asrwt>0</asrwt>
<pdfrwt beam="2">  1        1 0.21439281E-02 0.90466497E+02</pdfrwt>
<pdfrwt beam="1">  1       -1 0.22588044E-01 0.90466497E+02</pdfrwt>
<totfact> 0.76701520E+04</totfact>
</mgrwt>
</event>
<event>
 7    1  0.2787125E-009  0.9232651E+02  0.7818608E-02  0.1297314E+00
          1   -1    0    0  501    0  0.00000000000E+00  0.00000000000E+00  0.66249909306E+01  0.66249928477E+01  0.50400000000E-02 0. -1.
         -1   -1    0    0    0  501 -0.00000000000E+00 -0.00000000000E+00 -0.32166773930E+03  0.32166773934E+03  0.50400000000E-02 0.  1.
         23    2    1    2    0    0  0.71054273576E-14  0.00000000000E+00 -0.31504274837E+03  0.32829273218E+03  0.92326511397E+02 0.  0.
    9000005    2    3    3    0    0 -0.40049936404E+02  0.25795251385E+01 -0.23498990122E+03  0.23874325038E+03  0.12939651024E+02 0.  0.
         22    1    3    3    0    0  0.40049936404E+02 -0.25795251385E+01 -0.80052847147E+02  0.89549481809E+02  0.00000000000E+00 0.  1.
         22    1    4    4    0    0 -0.67823947150E+01  0.42370923848E+01 -0.29207858111E+02  0.30282879740E+02  0.00000000000E+00 0.  1.
         22    1    4    4    0    0 -0.33267541689E+02 -0.16575672462E+01 -0.20578204311E+03  0.20846037063E+03  0.00000000000E+00 0.  1.
<mgrwt>
<rscale>  0 0.92326511E+02</rscale>
<asrwt>0</asrwt>
<pdfrwt beam="1">  1        1 0.10192298E-02 0.92326511E+02</pdfrwt>
<pdfrwt beam="2">  1       -1 0.49487333E-01 0.92326511E+02</pdfrwt>
<totfact> 0.56996251E+04</totfact>
</mgrwt>
</event>
<event>
 7    1  0.2787125E-009  0.8978287E+02  0.7818608E-02  0.1303378E+00
          1   -1    0    0  501    0  0.00000000000E+00  0.00000000000E+00  0.29592267426E+03  0.29592267430E+03  0.50400000000E-02 0. -1.
         -1   -1    0    0    0  501 -0.00000000000E+00 -0.00000000000E+00 -0.68100239669E+01  0.68100258319E+01  0.50400000000E-02 0.  1.
         23    2    1    2    0    0  0.00000000000E+00  0.00000000000E+00  0.28911265029E+03  0.30273270013E+03  0.89782866803E+02 0.  0.
    9000005    2    3    3    0    0  0.35317860142E+02 -0.16293943332E+02  0.21857026269E+03  0.22217792199E+03  0.87878011896E+01 0.  0.
         22    1    3    3    0    0 -0.35317860142E+02  0.16293943332E+02  0.70542387595E+02  0.80554778144E+02  0.00000000000E+00 0.  1.
         22    1    4    4    0    0  0.94237620110E+01 -0.82410709497E+01  0.58205399613E+02  0.59536468529E+02  0.00000000000E+00 0. -1.
         22    1    4    4    0    0  0.25894098131E+02 -0.80528723819E+01  0.16036486308E+03  0.16264145346E+03  0.00000000000E+00 0. -1.
<mgrwt>
<rscale>  0 0.89782867E+02</rscale>
<asrwt>0</asrwt>
<pdfrwt beam="1">  1        1 0.45526557E-01 0.89782867E+02</pdfrwt>
<pdfrwt beam="2">  1       -1 0.10476963E-02 0.89782867E+02</pdfrwt>
<totfact> 0.13313642E+05</totfact>
</mgrwt>
</event>
<event>
 7    1  0.2787125E-009  0.8613328E+02  0.7818608E-02  0.1312495E+00
          1   -1    0    0  501    0  0.00000000000E+00  0.00000000000E+00  0.90751595720E+02  0.90751595860E+02  0.50400000000E-02 0. -1.
         -1   -1    0    0    0  501 -0.00000000000E+00 -0.00000000000E+00 -0.20437497135E+02  0.20437497757E+02  0.50400000000E-02 0.  1.
         23    2    1    2    0    0  0.71054273576E-14  0.00000000000E+00  0.70314098585E+02  0.11118909362E+03  0.86133280905E+02 0.  0.
    9000005    2    3    3    0    0 -0.38983308280E+02 -0.14206493667E+02  0.49803914478E+02  0.64905290414E+02  0.32778101843E+01 0.  0.
         22    1    3    3    0    0  0.38983308280E+02  0.14206493667E+02  0.20510184107E+02  0.46283803203E+02  0.00000000000E+00 0. -1.
         22    1    4    4    0    0 -0.24951848049E+02 -0.94798596721E+01  0.34375317885E+02  0.43521545701E+02  0.00000000000E+00 0.  1.
         22    1    4    4    0    0 -0.14031460231E+02 -0.47266339949E+01  0.15428596593E+02  0.21383744713E+02  0.00000000000E+00 0.  1.
<mgrwt>
<rscale>  0 0.86133281E+02</rscale>
<asrwt>0</asrwt>
<pdfrwt beam="1">  1        1 0.13961784E-01 0.86133281E+02</pdfrwt>
<pdfrwt beam="2">  1       -1 0.31442304E-02 0.86133281E+02</pdfrwt>
<totfact> 0.12001823E+05</totfact>
</mgrwt>
</event>
<event>
 7    1  0.2787125E-009  0.9121268E+02  0.7818608E-02  0.1299941E+00
          1   -1    0    0  501    0  0.00000000000E+00  0.00000000000E+00  0.11400484621E+02  0.11400485735E+02  0.50400000000E-02 0. -1.
         -1   -1    0    0    0  501 -0.00000000000E+00 -0.00000000000E+00 -0.18244297033E+03  0.18244297040E+03  0.50400000000E-02 0.  1.
         23    2    1    2    0    0 -0.35527136788E-14  0.71054273576E-14 -0.17104248571E+03  0.19384345614E+03  0.91212683157E+02 0.  0.
    9000005    2    3    3    0    0  0.21964014352E+02 -0.32629541418E+02 -0.13251516696E+03  0.13878476754E+03  0.12403117663E+02 0.  0.
         22    1    3    3    0    0 -0.21964014352E+02  0.32629541418E+02 -0.38527318752E+02  0.55058688595E+02  0.00000000000E+00 0. -1.
         22    1    4    4    0    0  0.98604604636E+01 -0.58858019007E+01 -0.46557515951E+02  0.47952827196E+02  0.00000000000E+00 0. -1.
         22    1    4    4    0    0  0.12103553889E+02 -0.26743739517E+02 -0.85957651007E+02  0.90831940345E+02  0.00000000000E+00 0. -1.
<mgrwt>
<rscale>  0 0.91212683E+02</rscale>
<asrwt>0</asrwt>
<pdfrwt beam="1">  1        1 0.17539209E-02 0.91212683E+02</pdfrwt>
<pdfrwt beam="2">  1       -1 0.28068147E-01 0.91212683E+02</pdfrwt>
<totfact> 0.71140076E+04</totfact>
</mgrwt>
</event>
<event>
 7    1  0.2787125E-009  0.9008365E+02  0.7818608E-02  0.1302649E+00
          1   -1    0    0  501    0  0.00000000000E+00  0.00000000000E+00  0.95689365615E+01  0.95689378888E+01  0.50400000000E-02 0. -1.
         -1   -1    0    0    0  501 -0.00000000000E+00 -0.00000000000E+00 -0.21201580296E+03  0.21201580302E+03  0.50400000000E-02 0.  1.
         23    2    1    2    0    0  0.00000000000E+00  0.00000000000E+00 -0.20244686640E+03  0.22158474091E+03  0.90083648289E+02 0.  0.
    9000005    2    3    3    0    0  0.42201895019E+02 -0.13325203449E+02 -0.94933683472E+02  0.10531933121E+03  0.11008918117E+02 0.  0.
         22    1    3    3    0    0 -0.42201895019E+02  0.13325203449E+02 -0.10751318293E+03  0.11626540970E+03  0.00000000000E+00 0. -1.
         22    1    4    4    0    0  0.31629845093E+02 -0.11643119421E+02 -0.81118389697E+02  0.87841917542E+02  0.00000000000E+00 0.  1.
         22    1    4    4    0    0  0.10572049926E+02 -0.16820840277E+01 -0.13815293775E+02  0.17477413665E+02  0.00000000000E+00 0.  1.
<mgrwt>
<rscale>  0 0.90083648E+02</rscale>
<asrwt>0</asrwt>
<pdfrwt beam="1">  1        1 0.14721444E-02 0.90083648E+02</pdfrwt>
<pdfrwt beam="2">  1       -1 0.32617812E-01 0.90083648E+02</pdfrwt>
<totfact> 0.70429127E+04</totfact>
</mgrwt>
</event>
<event>
 7    1  0.2787125E-009  0.8988870E+02  0.7818608E-02  0.1303121E+00
          1   -1    0    0  501    0  0.00000000000E+00  0.00000000000E+00  0.19271319592E+03  0.19271319599E+03  0.50400000000E-02 0.  1.
         -1   -1    0    0    0  501 -0.00000000000E+00 -0.00000000000E+00 -0.10481868746E+02  0.10481869957E+02  0.50400000000E-02 0. -1.
         23    2    1    2    0    0  0.00000000000E+00  0.00000000000E+00  0.18223132717E+03  0.20319506594E+03  0.89888699067E+02 0.  0.
    9000005    2    3    3    0    0 -0.47591428320E+01 -0.42728490377E+02  0.11402660790E+03  0.12257089425E+03  0.13159919334E+02 0.  0.
         22    1    3    3    0    0  0.47591428320E+01  0.42728490377E+02  0.68204719272E+02  0.80624171694E+02  0.00000000000E+00 0. -1.
         22    1    4    4    0    0 -0.61537083934E+01 -0.80927253151E+01  0.29964612436E+02  0.31642350236E+02  0.00000000000E+00 0.  1.
         22    1    4    4    0    0  0.13945655614E+01 -0.34635765062E+02  0.84061995466E+02  0.90928544013E+02  0.00000000000E+00 0.  1.
<mgrwt>
<rscale>  0 0.89888699E+02</rscale>
<asrwt>0</asrwt>
<pdfrwt beam="1">  1        1 0.29648183E-01 0.89888699E+02</pdfrwt>
<pdfrwt beam="2">  1       -1 0.16125953E-02 0.89888699E+02</pdfrwt>
<totfact> 0.12212775E+05</totfact>
</mgrwt>
</event>
<event>
 7    1  0.2787125E-009  0.9058050E+02  0.7818608E-02  0.1301452E+00
          1   -1    0    0  501    0  0.00000000000E+00  0.00000000000E+00  0.15460177206E+03  0.15460177214E+03  0.50400000000E-02 0.  1.
         -1   -1    0    0    0  501 -0.00000000000E+00 -0.00000000000E+00 -0.13267679453E+02  0.13267680411E+02  0.50400000000E-02 0. -1.
         23    2    1    2    0    0  0.00000000000E+00  0.35527136788E-14  0.14133409261E+03  0.16786945256E+03  0.90580502138E+02 0.  0.
    9000005    2    3    3    0    0  0.20799383897E+02 -0.25128898052E+02  0.17746864512E+02  0.40049740318E+02  0.14998486981E+02 0.  0.
         22    1    3    3    0    0 -0.20799383897E+02  0.25128898052E+02  0.12358722810E+03  0.12781971224E+03  0.00000000000E+00 0.  1.
         22    1    4    4    0    0  0.20097677914E+02 -0.18894514160E+02  0.84797765508E+01  0.28858723694E+02  0.00000000000E+00 0.  1.
         22    1    4    4    0    0  0.70170598273E+00 -0.62343838919E+01  0.92670879612E+01  0.11191016624E+02  0.00000000000E+00 0.  1.
<mgrwt>
<rscale>  0 0.90580502E+02</rscale>
<asrwt>0</asrwt>
<pdfrwt beam="1">  1        1 0.23784890E-01 0.90580502E+02</pdfrwt>
<pdfrwt beam="2">  1       -1 0.20411814E-02 0.90580502E+02</pdfrwt>
<totfact> 0.11477026E+05</totfact>
</mgrwt>
</event>
<event>
 7    1  0.2787125E-009  0.8421771E+02  0.7818608E-02  0.1317491E+00
         -1   -1    0    0    0  501 -0.00000000000E+00  0.00000000000E+00  0.67073946846E+01  0.67073965782E+01  0.50400000000E-02 0.  1.
          1   -1    0    0  501    0  0.00000000000E+00 -0.00000000000E+00 -0.26435826388E+03  0.26435826392E+03  0.50400000000E-02 0. -1.
         23    2    1    2    0    0  0.00000000000E+00 -0.35527136788E-14 -0.25765086919E+03  0.27106566050E+03  0.84217705433E+02 0.  0.
    9000005    2    3    3    0    0  0.26128615205E+02 -0.27732876589E+02 -0.18339006499E+03  0.18760019449E+03  0.10492857483E+02 0.  0.
         22    1    3    3    0    0 -0.26128615205E+02  0.27732876589E+02 -0.74260804201E+02  0.83465466015E+02  0.00000000000E+00 0.  1.
         22    1    4    4    0    0  0.39163881770E+00  0.85609890417E+00 -0.26583950485E+01  0.28201685288E+01  0.00000000000E+00 0.  1.
         22    1    4    4    0    0  0.25736976388E+02 -0.28588975494E+02 -0.18073166994E+03  0.18478002596E+03  0.00000000000E+00 0.  1.
<mgrwt>
<rscale>  0 0.84217705E+02</rscale>
<asrwt>0</asrwt>
<pdfrwt beam="2">  1        1 0.40670494E-01 0.84217705E+02</pdfrwt>
<pdfrwt beam="1">  1       -1 0.10319072E-02 0.84217705E+02</pdfrwt>
<totfact> 0.15438716E+05</totfact>
</mgrwt>
</event>
<event>
 7    1  0.2787125E-009  0.8890437E+02  0.7818608E-02  0.1305527E+00
         -1   -1    0    0    0  501 -0.00000000000E+00  0.00000000000E+00  0.23268929506E+03  0.23268929511E+03  0.50400000000E-02 0.  1.
          1   -1    0    0  501    0  0.00000000000E+00 -0.00000000000E+00 -0.84919968542E+01  0.84919983498E+01  0.50400000000E-02 0. -1.
         23    2    1    2    0    0 -0.35527136788E-14  0.00000000000E+00  0.22419729820E+03  0.24118129346E+03  0.88904374439E+02 0.  0.
    9000005    2    3    3    0    0  0.31882630878E+02 -0.20057180388E+02  0.57300394335E+02  0.70086672981E+02  0.14491856392E+02 0.  0.
         22    1    3    3    0    0 -0.31882630878E+02  0.20057180388E+02  0.16689690387E+03  0.17109462048E+03  0.00000000000E+00 0.  1.
         22    1    4    4    0    0  0.28563108453E+02 -0.11691954043E+02  0.39380353121E+02  0.50033640341E+02  0.00000000000E+00 0. -1.
         22    1    4    4    0    0  0.33195224257E+01 -0.83652263447E+01  0.17920041215E+02  0.20053032640E+02  0.00000000000E+00 0. -1.
<mgrwt>
<rscale>  0 0.88904374E+02</rscale>
<asrwt>0</asrwt>
<pdfrwt beam="2">  1        1 0.13064613E-02 0.88904374E+02</pdfrwt>
<pdfrwt beam="1">  1       -1 0.35798349E-01 0.88904374E+02</pdfrwt>
<totfact> 0.70822457E+04</totfact>
</mgrwt>
</event>
<event>
 7    1  0.2787125E-009  0.8728040E+02  0.7818608E-02  0.1309575E+00
          1   -1    0    0  501    0  0.00000000000E+00  0.00000000000E+00  0.21446212319E+03  0.21446212325E+03  0.50400000000E-02 0. -1.
         -1   -1    0    0    0  501 -0.00000000000E+00 -0.00000000000E+00 -0.88802017131E+01  0.88802031434E+01  0.50400000000E-02 0.  1.
         23    2    1    2    0    0  0.88817841970E-15  0.00000000000E+00  0.20558192148E+03  0.22334232639E+03  0.87280400551E+02 0.  0.
    9000005    2    3    3    0    0  0.34531520794E+01 -0.42485779407E+02  0.97392180847E+02  0.10705825315E+03  0.12620101718E+02 0.  0.
         22    1    3    3    0    0 -0.34531520794E+01  0.42485779407E+02  0.10818974063E+03  0.11628407324E+03  0.00000000000E+00 0. -1.
         22    1    4    4    0    0  0.82145581090E+01 -0.29251717928E+02  0.65682497661E+02  0.72369416646E+02  0.00000000000E+00 0. -1.
         22    1    4    4    0    0 -0.47614060295E+01 -0.13234061480E+02  0.31709683186E+02  0.34688836509E+02  0.00000000000E+00 0. -1.
<mgrwt>
<rscale>  0 0.87280401E+02</rscale>
<asrwt>0</asrwt>
<pdfrwt beam="1">  1        1 0.32994177E-01 0.87280401E+02</pdfrwt>
<pdfrwt beam="2">  1       -1 0.13661848E-02 0.87280401E+02</pdfrwt>
<totfact> 0.13487269E+05</totfact>
</mgrwt>
</event>
<event>
 7    1  0.2787125E-009  0.9024592E+02  0.7818608E-02  0.1302257E+00
          1   -1    0    0  501    0  0.00000000000E+00  0.00000000000E+00  0.28798229071E+01  0.28798273174E+01  0.50400000000E-02 0. -1.
         -1   -1    0    0    0  501 -0.00000000000E+00 -0.00000000000E+00 -0.70701575260E+03  0.70701575262E+03  0.50400000000E-02 0.  1.
         23    2    1    2    0    0  0.00000000000E+00  0.00000000000E+00 -0.70413592969E+03  0.70989557993E+03  0.90245924712E+02 0.  0.
    9000005    2    3    3    0    0 -0.16600883362E+02  0.20811577426E+02 -0.63613729551E+03  0.63687143780E+03  0.15028588354E+02 0.  0.
         22    1    3    3    0    0  0.16600883362E+02 -0.20811577426E+02 -0.67998634184E+02  0.73024142133E+02  0.00000000000E+00 0. -1.
         22    1    4    4    0    0 -0.10182484487E+02  0.23717323458E+01 -0.16603332128E+03  0.16636217082E+03  0.00000000000E+00 0. -1.
         22    1    4    4    0    0 -0.64183988748E+01  0.18439845080E+02 -0.47010397423E+03  0.47050926698E+03  0.00000000000E+00 0. -1.
<mgrwt>
<rscale>  0 0.90245925E+02</rscale>
<asrwt>0</asrwt>
<pdfrwt beam="1">  1        1 0.44305058E-03 0.90245925E+02</pdfrwt>
<pdfrwt beam="2">  1       -1 0.10877152E+00 0.90245925E+02</pdfrwt>
<totfact> 0.37531424E+04</totfact>
</mgrwt>
</event>
<event>
 7    1  0.2787125E-009  0.9094013E+02  0.7818608E-02  0.1300591E+00
          1   -1    0    0  501    0  0.00000000000E+00  0.00000000000E+00  0.33681233461E+02  0.33681233838E+02  0.50400000000E-02 0. -1.
         -1   -1    0    0    0  501 -0.00000000000E+00 -0.00000000000E+00 -0.61385125562E+02  0.61385125769E+02  0.50400000000E-02 0.  1.
         23    2    1    2    0    0  0.00000000000E+00  0.00000000000E+00 -0.27703892102E+02  0.95066359607E+02  0.90940129159E+02 0.  0.
    9000005    2    3    3    0    0 -0.21744139940E+02  0.32496052996E+02  0.95354650808E+01  0.41070333778E+02  0.81881707521E+01 0.  0.
         22    1    3    3    0    0  0.21744139940E+02 -0.32496052996E+02 -0.37239357182E+02  0.53996025830E+02  0.00000000000E+00 0.  1.
         22    1    4    4    0    0 -0.20370030520E+02  0.25003594764E+02  0.87229885287E+01  0.33409705527E+02  0.00000000000E+00 0.  1.
         22    1    4    4    0    0 -0.13741094200E+01  0.74924582315E+01  0.81247655207E+00  0.76606282507E+01  0.00000000000E+00 0.  1.
<mgrwt>
<rscale>  0 0.90940129E+02</rscale>
<asrwt>0</asrwt>
<pdfrwt beam="1">  1        1 0.51817283E-02 0.90940129E+02</pdfrwt>
<pdfrwt beam="2">  1       -1 0.94438655E-02 0.90940129E+02</pdfrwt>
<totfact> 0.88950106E+04</totfact>
</mgrwt>
</event>
<event>
 7    1  0.2787125E-009  0.9045654E+02  0.7818608E-02  0.1301750E+00
          1   -1    0    0  501    0  0.00000000000E+00  0.00000000000E+00  0.74746519550E+03  0.74746519552E+03  0.50400000000E-02 0. -1.
         -1   -1    0    0    0  501 -0.00000000000E+00 -0.00000000000E+00 -0.27367090000E+01  0.27367136409E+01  0.50400000000E-02 0.  1.
         23    2    1    2    0    0  0.71054273576E-14  0.00000000000E+00  0.74472848650E+03  0.75020190916E+03  0.90456541496E+02 0.  0.
    9000005    2    3    3    0    0  0.36653044668E+02 -0.16765060064E+02  0.53986041674E+03  0.54140670104E+03  0.68871950024E+01 0.  0.
         22    1    3    3    0    0 -0.36653044668E+02  0.16765060064E+02  0.20486806977E+03  0.20879520812E+03  0.00000000000E+00 0.  1.
         22    1    4    4    0    0  0.68237501331E+01 -0.54304728326E+01  0.92788468409E+02  0.93197389828E+02  0.00000000000E+00 0. -1.
         22    1    4    4    0    0  0.29829294535E+02 -0.11334587231E+02  0.44707194833E+03  0.44820931122E+03  0.00000000000E+00 0. -1.
<mgrwt>
<rscale>  0 0.90456541E+02</rscale>
<asrwt>0</asrwt>
<pdfrwt beam="1">  1        1 0.11499471E+00 0.90456541E+02</pdfrwt>
<pdfrwt beam="2">  1       -1 0.42103227E-03 0.90456541E+02</pdfrwt>
<totfact> 0.14493542E+05</totfact>
</mgrwt>
</event>
<event>
 7    1  0.2787125E-009  0.9087189E+02  0.7818608E-02  0.1300754E+00
          1   -1    0    0  501    0  0.00000000000E+00  0.00000000000E+00  0.15376914610E+03  0.15376914618E+03  0.50400000000E-02 0. -1.
         -1   -1    0    0    0  501 -0.00000000000E+00 -0.00000000000E+00 -0.13425482791E+02  0.13425483737E+02  0.50400000000E-02 0.  1.
         23    2    1    2    0    0  0.22204460493E-15  0.00000000000E+00  0.14034366331E+03  0.16719462992E+03  0.90871890280E+02 0.  0.
    9000005    2    3    3    0    0 -0.12584396405E+01  0.34304431011E+02  0.12339463826E+03  0.12891085911E+03  0.14608052169E+02 0.  0.
         22    1    3    3    0    0  0.12584396405E+01 -0.34304431011E+02  0.16949025052E+02  0.38283770811E+02  0.00000000000E+00 0.  1.
         22    1    4    4    0    0 -0.18056976542E+01 -0.61256381001E+00  0.30066704292E+01  0.35603153666E+01  0.00000000000E+00 0. -1.
         22    1    4    4    0    0  0.54725801370E+00  0.34916994821E+02  0.12038796783E+03  0.12535054374E+03  0.00000000000E+00 0. -1.
<mgrwt>
<rscale>  0 0.90871890E+02</rscale>
<asrwt>0</asrwt>
<pdfrwt beam="1">  1        1 0.23656792E-01 0.90871890E+02</pdfrwt>
<pdfrwt beam="2">  1       -1 0.20654590E-02 0.90871890E+02</pdfrwt>
<totfact> 0.11366876E+05</totfact>
</mgrwt>
</event>
<event>
 7    1  0.2787125E-009  0.9064191E+02  0.7818608E-02  0.1301305E+00
         -1   -1    0    0    0  501 -0.00000000000E+00  0.00000000000E+00  0.15350131615E+03  0.15350131624E+03  0.50400000000E-02 0.  1.
          1   -1    0    0  501    0  0.00000000000E+00 -0.00000000000E+00 -0.13380920134E+02  0.13380921083E+02  0.50400000000E-02 0. -1.
         23    2    1    2    0    0 -0.17763568394E-14  0.35527136788E-14  0.14012039602E+03  0.16688223732E+03  0.90641909469E+02 0.  0.
    9000005    2    3    3    0    0  0.15419712742E+02 -0.28479822484E+02  0.12715490946E+03  0.13199711626E+03  0.14352695617E+02 0.  0.
         22    1    3    3    0    0 -0.15419712742E+02  0.28479822484E+02  0.12965486563E+02  0.34885121063E+02  0.00000000000E+00 0. -1.
         22    1    4    4    0    0  0.15595364595E+02 -0.14141504293E+02  0.72840779984E+02  0.75822007156E+02  0.00000000000E+00 0.  1.
         22    1    4    4    0    0 -0.17565185283E+00 -0.14338318191E+02  0.54314129474E+02  0.56175109102E+02  0.00000000000E+00 0.  1.
<mgrwt>
<rscale>  0 0.90641909E+02</rscale>
<asrwt>0</asrwt>
<pdfrwt beam="2">  1        1 0.20586031E-02 0.90641909E+02</pdfrwt>
<pdfrwt beam="1">  1       -1 0.23615588E-01 0.90641909E+02</pdfrwt>
<totfact> 0.75527028E+04</totfact>
</mgrwt>
</event>
<event>
 7    1  0.2787125E-009  0.8566357E+02  0.7818608E-02  0.1313706E+00
          1   -1    0    0  501    0  0.00000000000E+00  0.00000000000E+00  0.52202261588E+02  0.52202261831E+02  0.50400000000E-02 0. -1.
         -1   -1    0    0    0  501 -0.00000000000E+00 -0.00000000000E+00 -0.35143340279E+02  0.35143340640E+02  0.50400000000E-02 0.  1.
         23    2    1    2    0    0  0.00000000000E+00  0.00000000000E+00  0.17058921309E+02  0.87345602472E+02  0.85663571458E+02 0.  0.
    9000005    2    3    3    0    0  0.14368719817E+02  0.32928079599E+02  0.30049441071E+02  0.49142564125E+02  0.14876295399E+02 0.  0.
         22    1    3    3    0    0 -0.14368719817E+02 -0.32928079599E+02 -0.12990519762E+02  0.38203038347E+02  0.00000000000E+00 0.  1.
         22    1    4    4    0    0  0.10611858115E+02  0.12309159478E+02  0.20364753388E+02  0.26054752355E+02  0.00000000000E+00 0. -1.
         22    1    4    4    0    0  0.37568617023E+01  0.20618920121E+02  0.96846876831E+01  0.23087811770E+02  0.00000000000E+00 0. -1.
<mgrwt>
<rscale>  0 0.85663571E+02</rscale>
<asrwt>0</asrwt>
<pdfrwt beam="1">  1        1 0.80311172E-02 0.85663571E+02</pdfrwt>
<pdfrwt beam="2">  1       -1 0.54066678E-02 0.85663571E+02</pdfrwt>
<totfact> 0.11219830E+05</totfact>
</mgrwt>
</event>
<event>
 7    1  0.2787125E-009  0.9312277E+02  0.7818608E-02  0.1295461E+00
         -1   -1    0    0    0  501 -0.00000000000E+00  0.00000000000E+00  0.11596778711E+02  0.11596779806E+02  0.50400000000E-02 0. -1.
          1   -1    0    0  501    0  0.00000000000E+00 -0.00000000000E+00 -0.18694523144E+03  0.18694523151E+03  0.50400000000E-02 0.  1.
         23    2    1    2    0    0  0.00000000000E+00  0.00000000000E+00 -0.17534845273E+03  0.19854201131E+03  0.93122770482E+02 0.  0.
    9000005    2    3    3    0    0  0.40644478964E+01 -0.22370805332E+02 -0.17367406882E+03  0.17574340983E+03  0.14355878697E+02 0.  0.
         22    1    3    3    0    0 -0.40644478964E+01  0.22370805332E+02 -0.16743839116E+01  0.22798601479E+02  0.00000000000E+00 0. -1.
         22    1    4    4    0    0 -0.29511391197E+01 -0.13472246642E+02 -0.12545371567E+03  0.12620952986E+03  0.00000000000E+00 0.  1.
         22    1    4    4    0    0  0.70155870162E+01 -0.88985586896E+01 -0.48220353148E+02  0.49533879978E+02  0.00000000000E+00 0.  1.
<mgrwt>
<rscale>  0 0.93122770E+02</rscale>
<asrwt>0</asrwt>
<pdfrwt beam="2">  1        1 0.28760803E-01 0.93122770E+02</pdfrwt>
<pdfrwt beam="1">  1       -1 0.17841200E-02 0.93122770E+02</pdfrwt>
<totfact> 0.11041679E+05</totfact>
</mgrwt>
</event>
<event>
 7    1  0.2787125E-009  0.9404959E+02  0.7818608E-02  0.1293331E+00
         -1   -1    0    0    0  501 -0.00000000000E+00  0.00000000000E+00  0.17062427206E+01  0.17062501643E+01  0.50400000000E-02 0.  1.
          1   -1    0    0  501    0  0.00000000000E+00 -0.00000000000E+00 -0.12960209903E+04  0.12960209903E+04  0.50400000000E-02 0. -1.
         23    2    1    2    0    0  0.00000000000E+00  0.00000000000E+00 -0.12943147476E+04  0.12977272405E+04  0.94049587276E+02 0.  0.
    9000005    2    3    3    0    0 -0.14412320899E+02 -0.42388649814E+01 -0.12611302108E+04  0.12613006506E+04  0.14291241866E+02 0.  0.
         22    1    3    3    0    0  0.14412320899E+02  0.42388649814E+01 -0.33184536792E+02  0.36426589906E+02  0.00000000000E+00 0.  1.
         22    1    4    4    0    0 -0.25376163340E+01 -0.11527679791E+01 -0.80677591381E+03  0.80678072825E+03  0.00000000000E+00 0.  1.
         22    1    4    4    0    0 -0.11874704565E+02 -0.30860970023E+01 -0.45435429697E+03  0.45451992231E+03  0.00000000000E+00 0.  1.
<mgrwt>
<rscale>  0 0.94049587E+02</rscale>
<asrwt>0</asrwt>
<pdfrwt beam="2">  1        1 0.19938706E+00 0.94049587E+02</pdfrwt>
<pdfrwt beam="1">  1       -1 0.26250049E-03 0.94049587E+02</pdfrwt>
<totfact> 0.11263943E+05</totfact>
</mgrwt>
</event>
<event>
 7    1  0.2787125E-009  0.8306453E+02  0.7818608E-02  0.1320573E+00
          1   -1    0    0  501    0  0.00000000000E+00  0.00000000000E+00  0.20627370505E+03  0.20627370511E+03  0.50400000000E-02 0.  1.
         -1   -1    0    0    0  501 -0.00000000000E+00 -0.00000000000E+00 -0.83623295047E+01  0.83623310235E+01  0.50400000000E-02 0. -1.
         23    2    1    2    0    0  0.00000000000E+00  0.00000000000E+00  0.19791137554E+03  0.21463603613E+03  0.83064525746E+02 0.  0.
    9000005    2    3    3    0    0 -0.39359131720E+02  0.54343049254E+00  0.13275166591E+03  0.13850966537E+03  0.35335579446E+01 0.  0.
         22    1    3    3    0    0  0.39359131720E+02 -0.54343049254E+00  0.65159709632E+02  0.76126370765E+02  0.00000000000E+00 0. -1.
         22    1    4    4    0    0 -0.27679600032E+02 -0.90343214986E+00  0.89650347518E+02  0.93830492153E+02  0.00000000000E+00 0.  1.
         22    1    4    4    0    0 -0.11679531688E+02  0.14468626424E+01  0.43101318391E+02  0.44679173213E+02  0.00000000000E+00 0.  1.
<mgrwt>
<rscale>  0 0.83064526E+02</rscale>
<asrwt>0</asrwt>
<pdfrwt beam="1">  1        1 0.31734416E-01 0.83064526E+02</pdfrwt>
<pdfrwt beam="2">  1       -1 0.12865124E-02 0.83064526E+02</pdfrwt>
<totfact> 0.15269979E+05</totfact>
</mgrwt>
</event>
<event>
 7    1  0.2787125E-009  0.9234623E+02  0.7818608E-02  0.1297267E+00
          1   -1    0    0  501    0  0.00000000000E+00  0.00000000000E+00  0.35975867847E+03  0.35975867851E+03  0.50400000000E-02 0. -1.
         -1   -1    0    0    0  501 -0.00000000000E+00 -0.00000000000E+00 -0.59260734606E+01  0.59260756038E+01  0.50400000000E-02 0.  1.
         23    2    1    2    0    0 -0.17763568394E-14  0.00000000000E+00  0.35383260501E+03  0.36568475411E+03  0.92346234467E+02 0.  0.
    9000005    2    3    3    0    0 -0.14902397437E+02  0.40006192073E+02  0.11050212483E+03  0.11863759376E+03  0.64484267095E+01 0.  0.
         22    1    3    3    0    0  0.14902397437E+02 -0.40006192073E+02  0.24333048019E+03  0.24704716036E+03  0.00000000000E+00 0. -1.
         22    1    4    4    0    0 -0.71231655776E+01  0.19720351930E+02  0.63130227335E+02  0.66521104707E+02  0.00000000000E+00 0. -1.
         22    1    4    4    0    0 -0.77792318597E+01  0.20285840143E+02  0.47371897492E+02  0.52116489048E+02  0.00000000000E+00 0. -1.
<mgrwt>
<rscale>  0 0.92346234E+02</rscale>
<asrwt>0</asrwt>
<pdfrwt beam="1">  1        1 0.55347467E-01 0.92346234E+02</pdfrwt>
<pdfrwt beam="2">  1       -1 0.91170414E-03 0.92346234E+02</pdfrwt>
<totfact> 0.12805831E+05</totfact>
</mgrwt>
</event>
<event>
 7    1  0.2787125E-009  0.8975399E+02  0.7818608E-02  0.1303449E+00
          1   -1    0    0  501    0  0.00000000000E+00  0.00000000000E+00  0.33647108363E+02  0.33647108741E+02  0.50400000000E-02 0. -1.
         -1   -1    0    0    0  501 -0.00000000000E+00 -0.00000000000E+00 -0.59854905664E+02  0.59854905877E+02  0.50400000000E-02 0.  1.
         23    2    1    2    0    0  0.00000000000E+00  0.00000000000E+00 -0.26207797301E+02  0.93502014617E+02  0.89753986530E+02 0.  0.
    9000005    2    3    3    0    0 -0.76976488892E+01  0.38076285263E+02  0.98607853001E+01  0.40492581978E+02  0.57755355272E+01 0.  0.
         22    1    3    3    0    0  0.76976488892E+01 -0.38076285263E+02 -0.36068582602E+02  0.53009432639E+02  0.00000000000E+00 0.  1.
         22    1    4    4    0    0 -0.28484702853E+01  0.26690003116E+02  0.77499427191E+01  0.27937996733E+02  0.00000000000E+00 0.  1.
         22    1    4    4    0    0 -0.48491786039E+01  0.11386282147E+02  0.21108425810E+01  0.12554585245E+02  0.00000000000E+00 0.  1.
<mgrwt>
<rscale>  0 0.89753987E+02</rscale>
<asrwt>0</asrwt>
<pdfrwt beam="1">  1        1 0.51764783E-02 0.89753987E+02</pdfrwt>
<pdfrwt beam="2">  1       -1 0.92084471E-02 0.89753987E+02</pdfrwt>
<totfact> 0.92319434E+04</totfact>
</mgrwt>
</event>
<event>
 7    1  0.2787125E-009  0.9034859E+02  0.7818608E-02  0.1302010E+00
         -1   -1    0    0    0  501 -0.00000000000E+00  0.00000000000E+00  0.53949022982E+02  0.53949023218E+02  0.50400000000E-02 0.  1.
          1   -1    0    0  501    0  0.00000000000E+00 -0.00000000000E+00 -0.37826764324E+02  0.37826764659E+02  0.50400000000E-02 0. -1.
         23    2    1    2    0    0  0.00000000000E+00  0.00000000000E+00  0.16122258659E+02  0.91775787877E+02  0.90348591667E+02 0.  0.
    9000005    2    3    3    0    0  0.12227143921E+02 -0.23124775031E+02  0.44677944072E+02  0.53050015604E+02  0.11572692012E+02 0.  0.
         22    1    3    3    0    0 -0.12227143921E+02  0.23124775031E+02 -0.28555685413E+02  0.38725772273E+02  0.00000000000E+00 0. -1.
         22    1    4    4    0    0  0.24113769796E+01 -0.85866868884E+01  0.25715572601E+02  0.27218313777E+02  0.00000000000E+00 0. -1.
         22    1    4    4    0    0  0.98157669419E+01 -0.14538088143E+02  0.18962371471E+02  0.25831701827E+02  0.00000000000E+00 0. -1.
<mgrwt>
<rscale>  0 0.90348592E+02</rscale>
<asrwt>0</asrwt>
<pdfrwt beam="2">  1        1 0.58195023E-02 0.90348592E+02</pdfrwt>
<pdfrwt beam="1">  1       -1 0.82998497E-02 0.90348592E+02</pdfrwt>
<totfact> 0.92245032E+04</totfact>
</mgrwt>
</event>
<event>
 7    1  0.2787125E-009  0.9040956E+02  0.7818608E-02  0.1301863E+00
          1   -1    0    0  501    0  0.00000000000E+00  0.00000000000E+00  0.63554210530E+01  0.63554230514E+01  0.50400000000E-02 0. -1.
         -1   -1    0    0    0  501 -0.00000000000E+00 -0.00000000000E+00 -0.32153207983E+03  0.32153207987E+03  0.50400000000E-02 0.  1.
         23    2    1    2    0    0  0.35527136788E-14 -0.35527136788E-14 -0.31517665877E+03  0.32788750292E+03  0.90409558863E+02 0.  0.
    9000005    2    3    3    0    0 -0.16113891864E+02  0.19284771593E+02 -0.29321921669E+03  0.29451552082E+03  0.11415911683E+02 0.  0.
         22    1    3    3    0    0  0.16113891864E+02 -0.19284771593E+02 -0.21957442081E+02  0.33371982098E+02  0.00000000000E+00 0. -1.
         22    1    4    4    0    0 -0.17322868225E+02  0.14432850746E+02 -0.24676559412E+03  0.24779355800E+03  0.00000000000E+00 0.  1.
         22    1    4    4    0    0  0.12089763617E+01  0.48519208468E+01 -0.46453622572E+02  0.46721962821E+02  0.00000000000E+00 0.  1.
<mgrwt>
<rscale>  0 0.90409559E+02</rscale>
<asrwt>0</asrwt>
<pdfrwt beam="1">  1        1 0.97775749E-03 0.90409559E+02</pdfrwt>
<pdfrwt beam="2">  1       -1 0.49466461E-01 0.90409559E+02</pdfrwt>
<totfact> 0.60224555E+04</totfact>
</mgrwt>
</event>
<event>
 7    1  0.2787125E-009  0.9072281E+02  0.7818608E-02  0.1301111E+00
         -1   -1    0    0    0  501 -0.00000000000E+00  0.00000000000E+00  0.52961467822E+01  0.52961491804E+01  0.50400000000E-02 0.  1.
          1   -1    0    0  501    0  0.00000000000E+00 -0.00000000000E+00 -0.38851959105E+03  0.38851959108E+03  0.50400000000E-02 0. -1.
         23    2    1    2    0    0  0.00000000000E+00  0.00000000000E+00 -0.38322344426E+03  0.39381574026E+03  0.90722814344E+02 0.  0.
    9000005    2    3    3    0    0  0.15456849458E+02  0.42608913144E+02 -0.18720401630E+03  0.19262416535E+03  0.20716380159E+01 0.  0.
         22    1    3    3    0    0 -0.15456849458E+02 -0.42608913144E+02 -0.19601942796E+03  0.20119157491E+03  0.00000000000E+00 0. -1.
         22    1    4    4    0    0  0.50739897180E+01  0.16731690071E+02 -0.73745161103E+02  0.75789468994E+02  0.00000000000E+00 0.  1.
         22    1    4    4    0    0  0.10382859740E+02  0.25877223073E+02 -0.11345885520E+03  0.11683469636E+03  0.00000000000E+00 0.  1.
<mgrwt>
<rscale>  0 0.90722814E+02</rscale>
<asrwt>0</asrwt>
<pdfrwt beam="2">  1        1 0.59772223E-01 0.90722814E+02</pdfrwt>
<pdfrwt beam="1">  1       -1 0.81479230E-03 0.90722814E+02</pdfrwt>
<totfact> 0.13603252E+05</totfact>
</mgrwt>
</event>
<event>
 7    1  0.5337965E-009  0.9397059E+02  0.7818608E-02  0.1293512E+00
         -1   -1    0    0    0  501 -0.00000000000E+00  0.00000000000E+00  0.30621621845E+02  0.30621622260E+02  0.50400000000E-02 0.  1.
          1   -1    0    0  501    0  0.00000000000E+00 -0.00000000000E+00 -0.72093429966E+02  0.72093430142E+02  0.50400000000E-02 0. -1.
         23    2    1    2    0    0 -0.11102230246E-15  0.00000000000E+00 -0.41471808121E+02  0.10271505240E+03  0.93970586469E+02 0.  0.
    9000005    2    3    3    0    0 -0.86446282236E+00  0.27263558440E+02  0.19579185024E+02  0.35847476712E+02  0.12555802865E+02 0.  0.
         22    1    3    3    0    0  0.86446282236E+00 -0.27263558440E+02 -0.61050993145E+02  0.66867575691E+02  0.00000000000E+00 0. -1.
         22    1    4    4    0    0 -0.39815002143E+00  0.12073830957E+02  0.16320665217E+02  0.20305172507E+02  0.00000000000E+00 0.  1.
         22    1    4    4    0    0 -0.46631280094E+00  0.15189727484E+02  0.32585198068E+01  0.15542304204E+02  0.00000000000E+00 0.  1.
<mgrwt>
<rscale>  0 0.93970586E+02</rscale>
<asrwt>0</asrwt>
<pdfrwt beam="2">  1        1 0.11091297E-01 0.93970586E+02</pdfrwt>
<pdfrwt beam="1">  1       -1 0.47110188E-02 0.93970586E+02</pdfrwt>
<totfact> 0.91186464E+04</totfact>
</mgrwt>
</event>
<event>
 7    1  0.2787125E-009  0.9712707E+02  0.7818608E-02  0.1286456E+00
          1   -1    0    0  501    0  0.00000000000E+00  0.00000000000E+00  0.18021037992E+03  0.18021037999E+03  0.50400000000E-02 0. -1.
         -1   -1    0    0    0  501 -0.00000000000E+00 -0.00000000000E+00 -0.13087019070E+02  0.13087020041E+02  0.50400000000E-02 0.  1.
         23    2    1    2    0    0  0.00000000000E+00  0.00000000000E+00  0.16712336085E+03  0.19329740003E+03  0.97127066862E+02 0.  0.
    9000005    2    3    3    0    0 -0.16112960269E+02  0.41902137022E+02  0.11665346066E+03  0.12575017654E+03  0.13771726167E+02 0.  0.
         22    1    3    3    0    0  0.16112960269E+02 -0.41902137022E+02  0.50469900196E+02  0.67547223492E+02  0.00000000000E+00 0.  1.
         22    1    4    4    0    0 -0.90476175546E+01  0.22431024923E+02  0.44093293233E+02  0.50291438343E+02  0.00000000000E+00 0.  1.
         22    1    4    4    0    0 -0.70653427142E+01  0.19471112099E+02  0.72560167424E+02  0.75458738199E+02  0.00000000000E+00 0.  1.
<mgrwt>
<rscale>  0 0.97127067E+02</rscale>
<asrwt>0</asrwt>
<pdfrwt beam="1">  1        1 0.27724674E-01 0.97127067E+02</pdfrwt>
<pdfrwt beam="2">  1       -1 0.20133877E-02 0.97127067E+02</pdfrwt>
<totfact> 0.97850762E+04</totfact>
</mgrwt>
</event>
<event>
 7    1  0.2787125E-009  0.9130031E+02  0.7818608E-02  0.1299733E+00
          1   -1    0    0  501    0  0.00000000000E+00  0.00000000000E+00  0.54978890817E+02  0.54978891048E+02  0.50400000000E-02 0. -1.
         -1   -1    0    0    0  501 -0.00000000000E+00 -0.00000000000E+00 -0.37904303503E+02  0.37904303838E+02  0.50400000000E-02 0.  1.
         23    2    1    2    0    0  0.00000000000E+00  0.00000000000E+00  0.17074587315E+02  0.92883194886E+02  0.91300308653E+02 0.  0.
    9000005    2    3    3    0    0  0.29511499131E+02  0.32345075141E+02  0.21557763991E+02  0.48869204611E+02  0.25158505840E+01 0.  0.
         22    1    3    3    0    0 -0.29511499131E+02 -0.32345075141E+02 -0.44831766761E+01  0.44013990275E+02  0.00000000000E+00 0.  1.
         22    1    4    4    0    0  0.15572780172E+02  0.18588877578E+02  0.11126491020E+02  0.26680641939E+02  0.00000000000E+00 0.  1.
         22    1    4    4    0    0  0.13938718960E+02  0.13756197563E+02  0.10431272971E+02  0.22188562671E+02  0.00000000000E+00 0.  1.
<mgrwt>
<rscale>  0 0.91300309E+02</rscale>
<asrwt>0</asrwt>
<pdfrwt beam="1">  1        1 0.84582909E-02 0.91300309E+02</pdfrwt>
<pdfrwt beam="2">  1       -1 0.58314314E-02 0.91300309E+02</pdfrwt>
<totfact> 0.94751696E+04</totfact>
</mgrwt>
</event>
<event>
 7    1  0.2787125E-009  0.9077953E+02  0.7818608E-02  0.1300975E+00
          1   -1    0    0  501    0  0.00000000000E+00  0.00000000000E+00  0.16326185760E+02  0.16326186538E+02  0.50400000000E-02 0. -1.
         -1   -1    0    0    0  501 -0.00000000000E+00 -0.00000000000E+00 -0.12619180265E+03  0.12619180275E+03  0.50400000000E-02 0.  1.
         23    2    1    2    0    0  0.00000000000E+00  0.00000000000E+00 -0.10986561689E+03  0.14251798929E+03  0.90779532366E+02 0.  0.
    9000005    2    3    3    0    0 -0.16801406630E+02 -0.25260854502E+02 -0.10723845486E+03  0.11206638810E+03  0.11763974905E+02 0.  0.
         22    1    3    3    0    0  0.16801406630E+02  0.25260854502E+02 -0.26271620316E+01  0.30451601193E+02  0.00000000000E+00 0. -1.
         22    1    4    4    0    0 -0.18353050245E+02 -0.21550337469E+02 -0.97615113298E+02  0.10163641986E+03  0.00000000000E+00 0.  1.
         22    1    4    4    0    0  0.15516436152E+01 -0.37105170329E+01 -0.96233415615E+01  0.10429968234E+02  0.00000000000E+00 0.  1.
<mgrwt>
<rscale>  0 0.90779532E+02</rscale>
<asrwt>0</asrwt>
<pdfrwt beam="1">  1        1 0.25117210E-02 0.90779532E+02</pdfrwt>
<pdfrwt beam="2">  1       -1 0.19414123E-01 0.90779532E+02</pdfrwt>
<totfact> 0.78597356E+04</totfact>
</mgrwt>
</event>
<event>
 7    1  0.2787125E-009  0.9140783E+02  0.7818608E-02  0.1299478E+00
         -1   -1    0    0    0  501 -0.00000000000E+00  0.00000000000E+00  0.28419858591E+02  0.28419859038E+02  0.50400000000E-02 0.  1.
          1   -1    0    0  501    0  0.00000000000E+00 -0.00000000000E+00 -0.73499587549E+02  0.73499587722E+02  0.50400000000E-02 0. -1.
         23    2    1    2    0    0 -0.17763568394E-14  0.00000000000E+00 -0.45079728958E+02  0.10191944676E+03  0.91407831530E+02 0.  0.
    9000005    2    3    3    0    0  0.89545153252E+01  0.29936519176E+02  0.14089599975E+02  0.35006159505E+02  0.71088572034E+01 0.  0.
         22    1    3    3    0    0 -0.89545153252E+01 -0.29936519176E+02 -0.59169328933E+02  0.66913287256E+02  0.00000000000E+00 0. -1.
         22    1    4    4    0    0  0.31720533270E+01  0.82081245554E+01  0.75366984887E+01  0.11586071601E+02  0.00000000000E+00 0. -1.
         22    1    4    4    0    0  0.57824619982E+01  0.21728394620E+02  0.65529014860E+01  0.23420087904E+02  0.00000000000E+00 0. -1.
<mgrwt>
<rscale>  0 0.91407832E+02</rscale>
<asrwt>0</asrwt>
<pdfrwt beam="2">  1        1 0.11307629E-01 0.91407832E+02</pdfrwt>
<pdfrwt beam="1">  1       -1 0.43722860E-02 0.91407832E+02</pdfrwt>
<totfact> 0.98724717E+04</totfact>
</mgrwt>
</event>
<event>
 7    1  0.2787125E-009  0.9285150E+02  0.7818608E-02  0.1296090E+00
         -1   -1    0    0    0  501 -0.00000000000E+00  0.00000000000E+00  0.42771502421E+01  0.42771532115E+01  0.50400000000E-02 0.  1.
          1   -1    0    0  501    0  0.00000000000E+00 -0.00000000000E+00 -0.50392180968E+03  0.50392180971E+03  0.50400000000E-02 0. -1.
         23    2    1    2    0    0  0.00000000000E+00  0.22204460493E-15 -0.49964465944E+03  0.50819896292E+03  0.92851495436E+02 0.  0.
    9000005    2    3    3    0    0 -0.10916690923E+02 -0.14351313048E+01 -0.49640757854E+03  0.49672235910E+03  0.13834169641E+02 0.  0.
         22    1    3    3    0    0  0.10916690923E+02  0.14351313048E+01 -0.32370808984E+01  0.11476603823E+02  0.00000000000E+00 0.  1.
         22    1    4    4    0    0 -0.55636215612E+01 -0.39983682275E+01 -0.86201111514E+02  0.86472957967E+02  0.00000000000E+00 0. -1.
         22    1    4    4    0    0 -0.53530693615E+01  0.25632369227E+01 -0.41020646703E+03  0.41024940113E+03  0.00000000000E+00 0. -1.
<mgrwt>
<rscale>  0 0.92851495E+02</rscale>
<asrwt>0</asrwt>
<pdfrwt beam="2">  1        1 0.77526386E-01 0.92851495E+02</pdfrwt>
<pdfrwt beam="1">  1       -1 0.65802374E-03 0.92851495E+02</pdfrwt>
<totfact> 0.13282150E+05</totfact>
</mgrwt>
</event>
<event>
 7    1  0.2787125E-009  0.9235971E+02  0.7818608E-02  0.1297236E+00
         -1   -1    0    0    0  501 -0.00000000000E+00  0.00000000000E+00  0.79830060766E+01  0.79830076676E+01  0.50400000000E-02 0.  1.
          1   -1    0    0  501    0  0.00000000000E+00 -0.00000000000E+00 -0.26713984206E+03  0.26713984211E+03  0.50400000000E-02 0. -1.
         23    2    1    2    0    0 -0.88817841970E-15  0.35527136788E-14 -0.25915683598E+03  0.27512284977E+03  0.92359714332E+02 0.  0.
    9000005    2    3    3    0    0  0.66746043743E+01 -0.17156697718E+02 -0.25567272756E+03  0.25638674475E+03  0.51688145448E+01 0.  0.
         22    1    3    3    0    0 -0.66746043743E+01  0.17156697718E+02 -0.34841084237E+01  0.18736105029E+02  0.00000000000E+00 0.  1.
         22    1    4    4    0    0  0.74057733106E+01 -0.16571149704E+02 -0.23940597714E+03  0.24009304524E+03  0.00000000000E+00 0. -1.
         22    1    4    4    0    0 -0.73116893634E+00 -0.58554801344E+00 -0.16266750414E+02  0.16293699504E+02  0.00000000000E+00 0. -1.
<mgrwt>
<rscale>  0 0.92359714E+02</rscale>
<asrwt>0</asrwt>
<pdfrwt beam="2">  1        1 0.41098431E-01 0.92359714E+02</pdfrwt>
<pdfrwt beam="1">  1       -1 0.12281551E-02 0.92359714E+02</pdfrwt>
<totfact> 0.12103956E+05</totfact>
</mgrwt>
</event>
<event>
 7    1  0.2787125E-009  0.9410792E+02  0.7818608E-02  0.1293198E+00
         -1   -1    0    0    0  501 -0.00000000000E+00  0.00000000000E+00  0.11965118131E+03  0.11965118141E+03  0.50400000000E-02 0.  1.
          1   -1    0    0  501    0  0.00000000000E+00 -0.00000000000E+00 -0.18504416352E+02  0.18504417038E+02  0.50400000000E-02 0. -1.
         23    2    1    2    0    0 -0.88817841970E-15  0.71054273576E-14  0.10114676495E+03  0.13815559845E+03  0.94107923802E+02 0.  0.
    9000005    2    3    3    0    0  0.79991361044E+01 -0.41060888524E+02  0.23158635955E+02  0.49656270715E+02  0.13395523775E+02 0.  0.
         22    1    3    3    0    0 -0.79991361044E+01  0.41060888524E+02  0.77988128999E+02  0.88499327735E+02  0.00000000000E+00 0.  1.
         22    1    4    4    0    0  0.29537158322E+01 -0.33110561290E+02  0.22652589984E+02  0.40226527804E+02  0.00000000000E+00 0.  1.
         22    1    4    4    0    0  0.50454202722E+01 -0.79503272337E+01  0.50604597165E+00  0.94297429112E+01  0.00000000000E+00 0.  1.
<mgrwt>
<rscale>  0 0.94107924E+02</rscale>
<asrwt>0</asrwt>
<pdfrwt beam="2">  1        1 0.28468334E-02 0.94107924E+02</pdfrwt>
<pdfrwt beam="1">  1       -1 0.18407874E-01 0.94107924E+02</pdfrwt>
<totfact> 0.72397179E+04</totfact>
</mgrwt>
</event>
<event>
 7    1  0.2787125E-009  0.9103034E+02  0.7818608E-02  0.1300376E+00
          1   -1    0    0  501    0  0.00000000000E+00  0.00000000000E+00  0.75911514938E+03  0.75911514940E+03  0.50400000000E-02 0. -1.
         -1   -1    0    0    0  501 -0.00000000000E+00 -0.00000000000E+00 -0.27290048618E+01  0.27290095158E+01  0.50400000000E-02 0.  1.
         23    2    1    2    0    0  0.35527136788E-14  0.00000000000E+00  0.75638614452E+03  0.76184415891E+03  0.91030340273E+02 0.  0.
    9000005    2    3    3    0    0 -0.29544542769E+02 -0.15317301454E+02  0.63582974253E+03  0.63677879284E+03  0.10013480410E+02 0.  0.
         22    1    3    3    0    0  0.29544542769E+02  0.15317301454E+02  0.12055640199E+03  0.12506536607E+03  0.00000000000E+00 0.  1.
         22    1    4    4    0    0 -0.42244379966E+01 -0.96608628420E+00  0.16074126087E+03  0.16079966463E+03  0.00000000000E+00 0.  1.
         22    1    4    4    0    0 -0.25320104772E+02 -0.14351215170E+02  0.47508848166E+03  0.47597912821E+03  0.00000000000E+00 0.  1.
<mgrwt>
<rscale>  0 0.91030340E+02</rscale>
<asrwt>0</asrwt>
<pdfrwt beam="1">  1        1 0.11678710E+00 0.91030340E+02</pdfrwt>
<pdfrwt beam="2">  1       -1 0.41984669E-03 0.91030340E+02</pdfrwt>
<totfact> 0.14242572E+05</totfact>
</mgrwt>
</event>
<event>
 7    1  0.2787125E-009  0.9168139E+02  0.7818608E-02  0.1298830E+00
         -1   -1    0    0    0  501 -0.00000000000E+00  0.00000000000E+00  0.16725046425E+01  0.16725122363E+01  0.50400000000E-02 0.  1.
          1   -1    0    0  501    0  0.00000000000E+00 -0.00000000000E+00 -0.12564177972E+04  0.12564177972E+04  0.50400000000E-02 0. -1.
         23    2    1    2    0    0  0.00000000000E+00  0.17763568394E-14 -0.12547452925E+04  0.12580903094E+04  0.91681391391E+02 0.  0.
    9000005    2    3    3    0    0  0.99831452141E+01 -0.12292031889E+02 -0.12166795012E+04  0.12168621430E+04  0.13917944907E+02 0.  0.
         22    1    3    3    0    0 -0.99831452141E+01  0.12292031889E+02 -0.38065791276E+02  0.41228166365E+02  0.00000000000E+00 0.  1.
         22    1    4    4    0    0  0.23625020036E+01  0.31047497040E+01 -0.21962074009E+03  0.21965539002E+03  0.00000000000E+00 0.  1.
         22    1    4    4    0    0  0.76206432105E+01 -0.15396781593E+02 -0.99705876115E+03  0.99720675303E+03  0.00000000000E+00 0.  1.
<mgrwt>
<rscale>  0 0.91681391E+02</rscale>
<asrwt>0</asrwt>
<pdfrwt beam="2">  1        1 0.19329429E+00 0.91681391E+02</pdfrwt>
<pdfrwt beam="1">  1       -1 0.25731000E-03 0.91681391E+02</pdfrwt>
<totfact> 0.12260337E+05</totfact>
</mgrwt>
</event>
<event>
 7    1  0.2787125E-009  0.8735721E+02  0.7818608E-02  0.1309381E+00
         -1   -1    0    0    0  501 -0.00000000000E+00  0.00000000000E+00  0.63777926476E+01  0.63777946390E+01  0.50400000000E-02 0.  1.
          1   -1    0    0  501    0  0.00000000000E+00 -0.00000000000E+00 -0.29913487853E+03  0.29913487857E+03  0.50400000000E-02 0. -1.
         23    2    1    2    0    0  0.00000000000E+00  0.00000000000E+00 -0.29275708588E+03  0.30551267321E+03  0.87357210111E+02 0.  0.
    9000005    2    3    3    0    0  0.16831821979E+02 -0.38649323046E+02 -0.13331025351E+03  0.14058731811E+03  0.14699997223E+02 0.  0.
         22    1    3    3    0    0 -0.16831821979E+02  0.38649323046E+02 -0.15944683237E+03  0.16492535510E+03  0.00000000000E+00 0.  1.
         22    1    4    4    0    0  0.70082323214E+01 -0.31164523834E+02 -0.10359271797E+03  0.10840569211E+03  0.00000000000E+00 0. -1.
         22    1    4    4    0    0  0.98235896580E+01 -0.74847992117E+01 -0.29717535546E+02  0.32181625999E+02  0.00000000000E+00 0. -1.
<mgrwt>
<rscale>  0 0.87357210E+02</rscale>
<asrwt>0</asrwt>
<pdfrwt beam="2">  1        1 0.46020740E-01 0.87357210E+02</pdfrwt>
<pdfrwt beam="1">  1       -1 0.98119926E-03 0.87357210E+02</pdfrwt>
<totfact> 0.14347409E+05</totfact>
</mgrwt>
</event>
<event>
 7    1  0.2787125E-009  0.9120940E+02  0.7818608E-02  0.1299949E+00
          1   -1    0    0  501    0  0.00000000000E+00  0.00000000000E+00  0.14930725251E+02  0.14930726101E+02  0.50400000000E-02 0. -1.
         -1   -1    0    0    0  501 -0.00000000000E+00 -0.00000000000E+00 -0.13929588656E+03  0.13929588665E+03  0.50400000000E-02 0.  1.
         23    2    1    2    0    0  0.17763568394E-14  0.00000000000E+00 -0.12436516131E+03  0.15422661275E+03  0.91209400468E+02 0.  0.
    9000005    2    3    3    0    0  0.12800022939E+02 -0.18415958255E+02 -0.12905518572E+03  0.13131407395E+03  0.92280522940E+01 0.  0.
         22    1    3    3    0    0 -0.12800022939E+02  0.18415958255E+02  0.46900244099E+01  0.22912538808E+02  0.00000000000E+00 0. -1.
         22    1    4    4    0    0  0.75890452972E+01 -0.15015689235E+02 -0.10971778991E+03  0.11100026105E+03  0.00000000000E+00 0.  1.
         22    1    4    4    0    0  0.52109776416E+01 -0.34002690200E+01 -0.19337395812E+02  0.20313812892E+02  0.00000000000E+00 0.  1.
<mgrwt>
<rscale>  0 0.91209400E+02</rscale>
<asrwt>0</asrwt>
<pdfrwt beam="1">  1        1 0.22970348E-02 0.91209400E+02</pdfrwt>
<pdfrwt beam="2">  1       -1 0.21430136E-01 0.91209400E+02</pdfrwt>
<totfact> 0.75995460E+04</totfact>
</mgrwt>
</event>
<event>
 7    1  0.3121119E-009  0.9098954E+02  0.7818608E-02  0.1300473E+00
         -1   -1    0    0    0  501 -0.00000000000E+00  0.00000000000E+00  0.14454187070E+02  0.14454187949E+02  0.50400000000E-02 0.  1.
          1   -1    0    0  501    0  0.00000000000E+00 -0.00000000000E+00 -0.14319545925E+03  0.14319545934E+03  0.50400000000E-02 0. -1.
         23    2    1    2    0    0  0.00000000000E+00  0.00000000000E+00 -0.12874127218E+03  0.15764964729E+03  0.90989538562E+02 0.  0.
    9000005    2    3    3    0    0 -0.26933672791E+02  0.24553459520E+01 -0.12701484982E+03  0.13054924161E+03  0.13374638563E+02 0.  0.
         22    1    3    3    0    0  0.26933672791E+02 -0.24553459520E+01 -0.17264223620E+01  0.27100405679E+02  0.00000000000E+00 0.  1.
         22    1    4    4    0    0 -0.13728389261E+01 -0.24441504594E+01 -0.45097589144E+01  0.53100361253E+01  0.00000000000E+00 0. -1.
         22    1    4    4    0    0 -0.25560833865E+02  0.48994964114E+01 -0.12250509091E+03  0.12523920549E+03  0.00000000000E+00 0. -1.
<mgrwt>
<rscale>  0 0.90989539E+02</rscale>
<asrwt>0</asrwt>
<pdfrwt beam="2">  1        1 0.22030070E-01 0.90989539E+02</pdfrwt>
<pdfrwt beam="1">  1       -1 0.22237213E-02 0.90989539E+02</pdfrwt>
<totfact> 0.11180394E+05</totfact>
</mgrwt>
</event>
<event>
 7    1  0.2787125E-009  0.9631370E+02  0.7818608E-02  0.1288244E+00
         -1   -1    0    0    0  501 -0.00000000000E+00  0.00000000000E+00  0.26686899270E+02  0.26686899746E+02  0.50400000000E-02 0.  1.
          1   -1    0    0  501    0  0.00000000000E+00 -0.00000000000E+00 -0.86899647140E+02  0.86899647286E+02  0.50400000000E-02 0. -1.
         23    2    1    2    0    0  0.00000000000E+00  0.00000000000E+00 -0.60212747870E+02  0.11358654703E+03  0.96313699236E+02 0.  0.
    9000005    2    3    3    0    0  0.19747286187E+02  0.66989481591E+01 -0.80691946324E+02  0.84359354427E+02  0.13056770643E+02 0.  0.
         22    1    3    3    0    0 -0.19747286187E+02 -0.66989481591E+01  0.20479198454E+02  0.29227192604E+02  0.00000000000E+00 0.  1.
         22    1    4    4    0    0  0.13642114624E+02  0.29993683737E+01 -0.29131604719E+02  0.32307180247E+02  0.00000000000E+00 0.  1.
         22    1    4    4    0    0  0.61051715637E+01  0.36995797854E+01 -0.51560341605E+02  0.52052174180E+02  0.00000000000E+00 0.  1.
<mgrwt>
<rscale>  0 0.96313699E+02</rscale>
<asrwt>0</asrwt>
<pdfrwt beam="2">  1        1 0.13369176E-01 0.96313699E+02</pdfrwt>
<pdfrwt beam="1">  1       -1 0.41056769E-02 0.96313699E+02</pdfrwt>
<totfact> 0.87798417E+04</totfact>
</mgrwt>
</event>
<event>
 7    1  0.2787125E-009  0.9119649E+02  0.7818608E-02  0.1299980E+00
          1   -1    0    0  501    0  0.00000000000E+00  0.00000000000E+00  0.20145514649E+03  0.20145514655E+03  0.50400000000E-02 0. -1.
         -1   -1    0    0    0  501 -0.00000000000E+00 -0.00000000000E+00 -0.10320907085E+02  0.10320908316E+02  0.50400000000E-02 0.  1.
         23    2    1    2    0    0  0.00000000000E+00  0.88817841970E-15  0.19113423941E+03  0.21177605487E+03  0.91196490848E+02 0.  0.
    9000005    2    3    3    0    0 -0.40618031283E+02 -0.66043191910E+01  0.55086610618E+02  0.69640912150E+02  0.11039949204E+02 0.  0.
         22    1    3    3    0    0  0.40618031283E+02  0.66043191910E+01  0.13604762879E+03  0.14213514272E+03  0.00000000000E+00 0.  1.
         22    1    4    4    0    0 -0.14678838037E+02 -0.20409404192E+01  0.11682446246E+02  0.18870963785E+02  0.00000000000E+00 0.  1.
         22    1    4    4    0    0 -0.25939193246E+02 -0.45633787718E+01  0.43404164373E+02  0.50769948365E+02  0.00000000000E+00 0.  1.
<mgrwt>
<rscale>  0 0.91196491E+02</rscale>
<asrwt>0</asrwt>
<pdfrwt beam="1">  1        1 0.30993098E-01 0.91196491E+02</pdfrwt>
<pdfrwt beam="2">  1       -1 0.15878320E-02 0.91196491E+02</pdfrwt>
<totfact> 0.11850411E+05</totfact>
</mgrwt>
</event>
<event>
 7    1  0.2787125E-009  0.9236722E+02  0.7818608E-02  0.1297218E+00
         -1   -1    0    0    0  501 -0.00000000000E+00  0.00000000000E+00  0.23016720621E+02  0.23016721173E+02  0.50400000000E-02 0.  1.
          1   -1    0    0  501    0  0.00000000000E+00 -0.00000000000E+00 -0.92668534386E+02  0.92668534523E+02  0.50400000000E-02 0. -1.
         23    2    1    2    0    0  0.00000000000E+00  0.00000000000E+00 -0.69651813765E+02  0.11568525570E+03  0.92367219427E+02 0.  0.
    9000005    2    3    3    0    0  0.32662816645E+02  0.31701668403E+02 -0.44064673339E+02  0.63468810720E+02  0.38391570769E+01 0.  0.
         22    1    3    3    0    0 -0.32662816645E+02 -0.31701668403E+02 -0.25587140425E+02  0.52216444975E+02  0.00000000000E+00 0. -1.
         22    1    4    4    0    0  0.87018900613E+01  0.65974533443E+01 -0.92406667849E+01  0.14305215968E+02  0.00000000000E+00 0. -1.
         22    1    4    4    0    0  0.23960926583E+02  0.25104215059E+02 -0.34824006554E+02  0.49163594752E+02  0.00000000000E+00 0. -1.
<mgrwt>
<rscale>  0 0.92367219E+02</rscale>
<asrwt>0</asrwt>
<pdfrwt beam="2">  1        1 0.14256697E-01 0.92367219E+02</pdfrwt>
<pdfrwt beam="1">  1       -1 0.35410340E-02 0.92367219E+02</pdfrwt>
<totfact> 0.99551763E+04</totfact>
</mgrwt>
</event>
<event>
 7    1  0.2787125E-009  0.9232377E+02  0.7818608E-02  0.1297320E+00
         -1   -1    0    0    0  501 -0.00000000000E+00  0.00000000000E+00  0.33636857935E+01  0.33636895693E+01  0.50400000000E-02 0.  1.
          1   -1    0    0  501    0  0.00000000000E+00 -0.00000000000E+00 -0.63350700538E+03  0.63350700540E+03  0.50400000000E-02 0. -1.
         23    2    1    2    0    0  0.00000000000E+00  0.35527136788E-14 -0.63014331959E+03  0.63687069497E+03  0.92323772081E+02 0.  0.
    9000005    2    3    3    0    0  0.25552685708E+02  0.17690238673E+02 -0.54870205854E+03  0.54970095658E+03  0.11458984256E+02 0.  0.
         22    1    3    3    0    0 -0.25552685708E+02 -0.17690238673E+02 -0.81441261042E+02  0.87169738391E+02  0.00000000000E+00 0.  1.
         22    1    4    4    0    0  0.93373621799E+01  0.31306284106E+01 -0.25569975556E+03  0.25588933577E+03  0.00000000000E+00 0.  1.
         22    1    4    4    0    0  0.16215323528E+02  0.14559610262E+02 -0.29300230298E+03  0.29381162080E+03  0.00000000000E+00 0.  1.
<mgrwt>
<rscale>  0 0.92323772E+02</rscale>
<asrwt>0</asrwt>
<pdfrwt beam="2">  1        1 0.97462522E-01 0.92323772E+02</pdfrwt>
<pdfrwt beam="1">  1       -1 0.51749092E-03 0.92323772E+02</pdfrwt>
<totfact> 0.13734176E+05</totfact>
</mgrwt>
</event>
<event>
 7    1  0.2787125E-009  0.1087382E+03  0.7818608E-02  0.1262925E+00
          1   -1    0    0  501    0  0.00000000000E+00  0.00000000000E+00  0.10413895270E+03  0.10413895283E+03  0.50400000000E-02 0. -1.
         -1   -1    0    0    0  501 -0.00000000000E+00 -0.00000000000E+00 -0.28385125491E+02  0.28385125939E+02  0.50400000000E-02 0.  1.
         23    2    1    2    0    0  0.00000000000E+00  0.00000000000E+00  0.75753827214E+02  0.13252407877E+03  0.10873816770E+03 0.  0.
    9000005    2    3    3    0    0 -0.17960350817E+02 -0.50727373147E+02  0.33968683727E+02  0.64393037352E+02  0.98362186563E+01 0.  0.
         22    1    3    3    0    0  0.17960350817E+02  0.50727373147E+02  0.41785143487E+02  0.68131041414E+02  0.00000000000E+00 0. -1.
         22    1    4    4    0    0 -0.11203833627E+02 -0.21244372644E+02  0.19112851500E+02  0.30694467733E+02  0.00000000000E+00 0. -1.
         22    1    4    4    0    0 -0.67565171898E+01 -0.29483000504E+02  0.14855832227E+02  0.33698569619E+02  0.00000000000E+00 0. -1.
<mgrwt>
<rscale>  0 0.10873817E+03</rscale>
<asrwt>0</asrwt>
<pdfrwt beam="1">  1        1 0.16021377E-01 0.10873817E+03</pdfrwt>
<pdfrwt beam="2">  1       -1 0.43669425E-02 0.10873817E+03</pdfrwt>
<totfact> 0.64723788E+04</totfact>
</mgrwt>
</event>
<event>
 7    1  0.3859834E-009  0.9141333E+02  0.7818608E-02  0.1299465E+00
          1   -1    0    0  501    0  0.00000000000E+00  0.00000000000E+00  0.12850652770E+04  0.12850652770E+04  0.50400000000E-02 0. -1.
         -1   -1    0    0    0  501 -0.00000000000E+00 -0.00000000000E+00 -0.16256717890E+01  0.16256796017E+01  0.50400000000E-02 0.  1.
         23    2    1    2    0    0  0.17763568394E-14  0.00000000000E+00  0.12834396052E+04  0.12866909566E+04  0.91413333829E+02 0.  0.
    9000005    2    3    3    0    0 -0.12066230480E+02 -0.47748037291E+01  0.12577088499E+04  0.12578731767E+04  0.15651994733E+02 0.  0.
         22    1    3    3    0    0  0.12066230480E+02  0.47748037291E+01  0.25730755301E+02  0.28817779876E+02  0.00000000000E+00 0.  1.
         22    1    4    4    0    0 -0.13068118482E+02 -0.46252476241E+01  0.58736916423E+03  0.58753272566E+03  0.00000000000E+00 0.  1.
         22    1    4    4    0    0  0.10018880017E+01 -0.14955610498E+00  0.67033968567E+03  0.67034045106E+03  0.00000000000E+00 0.  1.
<mgrwt>
<rscale>  0 0.91413334E+02</rscale>
<asrwt>0</asrwt>
<pdfrwt beam="1">  1        1 0.19770199E+00 0.91413334E+02</pdfrwt>
<pdfrwt beam="2">  1       -1 0.25010441E-03 0.91413334E+02</pdfrwt>
<totfact> 0.12203950E+05</totfact>
</mgrwt>
</event>
<event>
 7    1  0.2787125E-009  0.8816414E+02  0.7818608E-02  0.1307359E+00
         -1   -1    0    0    0  501 -0.00000000000E+00  0.00000000000E+00  0.49746180179E+01  0.49746205710E+01  0.50400000000E-02 0.  1.
          1   -1    0    0  501    0  0.00000000000E+00 -0.00000000000E+00 -0.39062869160E+03  0.39062869164E+03  0.50400000000E-02 0. -1.
         23    2    1    2    0    0  0.35527136788E-14  0.11102230246E-15 -0.38565407359E+03  0.39560331221E+03  0.88164143255E+02 0.  0.
    9000005    2    3    3    0    0 -0.24586252357E+02 -0.91173055961E+00 -0.35672875059E+03  0.35762977711E+03  0.61920044637E+01 0.  0.
         22    1    3    3    0    0  0.24586252357E+02  0.91173055961E+00 -0.28925322998E+02  0.37973535101E+02  0.00000000000E+00 0.  1.
         22    1    4    4    0    0 -0.19132810313E+02  0.33873979022E+00 -0.30490238072E+03  0.30550227650E+03  0.00000000000E+00 0. -1.
         22    1    4    4    0    0 -0.54534420438E+01 -0.12504703498E+01 -0.51826369863E+02  0.52127500606E+02  0.00000000000E+00 0. -1.
<mgrwt>
<rscale>  0 0.88164143E+02</rscale>
<asrwt>0</asrwt>
<pdfrwt beam="2">  1        1 0.60096698E-01 0.88164143E+02</pdfrwt>
<pdfrwt beam="1">  1       -1 0.76532636E-03 0.88164143E+02</pdfrwt>
<totfact> 0.14687783E+05</totfact>
</mgrwt>
</event>
<event>
 7    1  0.2787125E-009  0.9129686E+02  0.7818608E-02  0.1299741E+00
         -1   -1    0    0    0  501 -0.00000000000E+00  0.00000000000E+00  0.17711518800E+02  0.17711519517E+02  0.50400000000E-02 0.  1.
          1   -1    0    0  501    0  0.00000000000E+00 -0.00000000000E+00 -0.11765107338E+03  0.11765107348E+03  0.50400000000E-02 0. -1.
         23    2    1    2    0    0  0.00000000000E+00  0.00000000000E+00 -0.99939554575E+02  0.13536259300E+03  0.91296862023E+02 0.  0.
    9000005    2    3    3    0    0  0.10919897678E+02 -0.42705049813E+02 -0.67039963864E+02  0.80359424785E+02  0.45072111179E+01 0.  0.
         22    1    3    3    0    0 -0.10919897678E+02  0.42705049813E+02 -0.32899590711E+02  0.55003168215E+02  0.00000000000E+00 0. -1.
         22    1    4    4    0    0  0.55736943463E+01 -0.14405099766E+02 -0.25467248668E+02  0.29785125863E+02  0.00000000000E+00 0. -1.
         22    1    4    4    0    0  0.53462033321E+01 -0.28299950047E+02 -0.41572715196E+02  0.50574298922E+02  0.00000000000E+00 0. -1.
<mgrwt>
<rscale>  0 0.91296862E+02</rscale>
<asrwt>0</asrwt>
<pdfrwt beam="2">  1        1 0.18100165E-01 0.91296862E+02</pdfrwt>
<pdfrwt beam="1">  1       -1 0.27248492E-02 0.91296862E+02</pdfrwt>
<totfact> 0.10698729E+05</totfact>
</mgrwt>
</event>
<event>
 7    1  0.2787125E-009  0.8899971E+02  0.7818608E-02  0.1305292E+00
          1   -1    0    0  501    0  0.00000000000E+00  0.00000000000E+00  0.64150788822E+02  0.64150789020E+02  0.50400000000E-02 0. -1.
         -1   -1    0    0    0  501 -0.00000000000E+00 -0.00000000000E+00 -0.30868477786E+02  0.30868478198E+02  0.50400000000E-02 0.  1.
         23    2    1    2    0    0  0.35527136788E-14  0.88817841970E-15  0.33282311036E+02  0.95019267218E+02  0.88999713004E+02 0.  0.
    9000005    2    3    3    0    0  0.25912400483E+02  0.72080311551E+01 -0.20388263691E+02  0.34986452830E+02  0.92175036400E+01 0.  0.
         22    1    3    3    0    0 -0.25912400483E+02 -0.72080311551E+01  0.53670574727E+02  0.60032814388E+02  0.00000000000E+00 0. -1.
         22    1    4    4    0    0  0.11790209205E+02  0.74471751835E+01 -0.73466630400E+01  0.15762071854E+02  0.00000000000E+00 0.  1.
         22    1    4    4    0    0  0.14122191278E+02 -0.23914402837E+00 -0.13041600651E+02  0.19224380975E+02  0.00000000000E+00 0.  1.
<mgrwt>
<rscale>  0 0.88999713E+02</rscale>
<asrwt>0</asrwt>
<pdfrwt beam="1">  1        1 0.98693520E-02 0.88999713E+02</pdfrwt>
<pdfrwt beam="2">  1       -1 0.47489967E-02 0.88999713E+02</pdfrwt>
<totfact> 0.10406943E+05</totfact>
</mgrwt>
</event>
<event>
 7    1  0.2787125E-009  0.9073471E+02  0.7818608E-02  0.1301082E+00
         -1   -1    0    0    0  501 -0.00000000000E+00  0.00000000000E+00  0.36779499928E+01  0.36779534460E+01  0.50400000000E-02 0.  1.
          1   -1    0    0  501    0  0.00000000000E+00 -0.00000000000E+00 -0.55960411073E+03  0.55960411075E+03  0.50400000000E-02 0. -1.
         23    2    1    2    0    0  0.00000000000E+00  0.00000000000E+00 -0.55592616074E+03  0.56328206420E+03  0.90734710315E+02 0.  0.
    9000005    2    3    3    0    0  0.22644260320E+02 -0.31486873700E+02 -0.42240706522E+03  0.42424417509E+03  0.71558092999E+01 0.  0.
         22    1    3    3    0    0 -0.22644260320E+02  0.31486873700E+02 -0.13351909552E+03  0.13903788911E+03  0.00000000000E+00 0. -1.
         22    1    4    4    0    0  0.11661892279E+02 -0.12682041488E+02 -0.21824011304E+03  0.21891911942E+03  0.00000000000E+00 0.  1.
         22    1    4    4    0    0  0.10982368042E+02 -0.18804832212E+02 -0.20416695218E+03  0.20532505566E+03  0.00000000000E+00 0.  1.
<mgrwt>
<rscale>  0 0.90734710E+02</rscale>
<asrwt>0</asrwt>
<pdfrwt beam="2">  1        1 0.86092873E-01 0.90734710E+02</pdfrwt>
<pdfrwt beam="1">  1       -1 0.56583917E-03 0.90734710E+02</pdfrwt>
<totfact> 0.14269802E+05</totfact>
</mgrwt>
</event>
<event>
 7    1  0.2787125E-009  0.9088209E+02  0.7818608E-02  0.1300730E+00
          1   -1    0    0  501    0  0.00000000000E+00  0.00000000000E+00  0.21857130855E+02  0.21857131436E+02  0.50400000000E-02 0. -1.
         -1   -1    0    0    0  501 -0.00000000000E+00 -0.00000000000E+00 -0.94472066298E+02  0.94472066432E+02  0.50400000000E-02 0.  1.
         23    2    1    2    0    0  0.00000000000E+00 -0.35527136788E-14 -0.72614935442E+02  0.11632919787E+03  0.90882085295E+02 0.  0.
    9000005    2    3    3    0    0  0.20777147111E+02 -0.25161372409E+02  0.21233548340E+01  0.34778008196E+02  0.11841313895E+02 0.  0.
         22    1    3    3    0    0 -0.20777147111E+02  0.25161372409E+02 -0.74738290276E+02  0.81551189673E+02  0.00000000000E+00 0.  1.
         22    1    4    4    0    0  0.16034625565E+02 -0.13076114005E+02  0.54098644366E+01  0.21385990922E+02  0.00000000000E+00 0. -1.
         22    1    4    4    0    0  0.47425215463E+01 -0.12085258404E+02 -0.32865096026E+01  0.13392017275E+02  0.00000000000E+00 0. -1.
<mgrwt>
<rscale>  0 0.90882085E+02</rscale>
<asrwt>0</asrwt>
<pdfrwt beam="1">  1        1 0.33626356E-02 0.90882085E+02</pdfrwt>
<pdfrwt beam="2">  1       -1 0.14534164E-01 0.90882085E+02</pdfrwt>
<totfact> 0.82911742E+04</totfact>
</mgrwt>
</event>
<event>
 7    1  0.2787125E-009  0.9086211E+02  0.7818608E-02  0.1300777E+00
         -1   -1    0    0    0  501 -0.00000000000E+00  0.00000000000E+00  0.45411992652E+01  0.45412020620E+01  0.50400000000E-02 0.  1.
          1   -1    0    0  501    0  0.00000000000E+00 -0.00000000000E+00 -0.45450113999E+03  0.45450114001E+03  0.50400000000E-02 0. -1.
         23    2    1    2    0    0  0.71054273576E-14  0.00000000000E+00 -0.44995994072E+03  0.45904234208E+03  0.90862112924E+02 0.  0.
    9000005    2    3    3    0    0  0.35120390772E+02  0.19886047128E+02 -0.32771721908E+03  0.33030936373E+03  0.87637532664E+01 0.  0.
         22    1    3    3    0    0 -0.35120390772E+02 -0.19886047128E+02 -0.12224272165E+03  0.12873297835E+03  0.00000000000E+00 0.  1.
         22    1    4    4    0    0  0.29022928307E+01  0.12567604327E+01 -0.12138848237E+02  0.12544097695E+02  0.00000000000E+00 0. -1.
         22    1    4    4    0    0  0.32218097942E+02  0.18629286695E+02 -0.31557837084E+03  0.31776526604E+03  0.00000000000E+00 0. -1.
<mgrwt>
<rscale>  0 0.90862113E+02</rscale>
<asrwt>0</asrwt>
<pdfrwt beam="2">  1        1 0.69923217E-01 0.90862113E+02</pdfrwt>
<pdfrwt beam="1">  1       -1 0.69864662E-03 0.90862113E+02</pdfrwt>
<totfact> 0.13881828E+05</totfact>
</mgrwt>
</event>
<event>
 7    1  0.2787125E-009  0.9050513E+02  0.7818608E-02  0.1301633E+00
          1   -1    0    0  501    0  0.00000000000E+00  0.00000000000E+00  0.16748824247E+03  0.16748824254E+03  0.50400000000E-02 0. -1.
         -1   -1    0    0    0  501 -0.00000000000E+00 -0.00000000000E+00 -0.12226496373E+02  0.12226497412E+02  0.50400000000E-02 0.  1.
         23    2    1    2    0    0  0.00000000000E+00  0.35527136788E-14  0.15526174609E+03  0.17971473996E+03  0.90505126688E+02 0.  0.
    9000005    2    3    3    0    0 -0.35582035513E+02 -0.22999686450E+02  0.10741887572E+03  0.11580850337E+03  0.88163351410E+01 0.  0.
         22    1    3    3    0    0  0.35582035513E+02  0.22999686450E+02  0.47842870378E+02  0.63906236582E+02  0.00000000000E+00 0.  1.
         22    1    4    4    0    0 -0.13959746729E+02 -0.79707428289E+01  0.30021710327E+02  0.34054520418E+02  0.00000000000E+00 0. -1.
         22    1    4    4    0    0 -0.21622288784E+02 -0.15028943621E+02  0.77397165390E+02  0.81753982955E+02  0.00000000000E+00 0. -1.
<mgrwt>
<rscale>  0 0.90505127E+02</rscale>
<asrwt>0</asrwt>
<pdfrwt beam="1">  1        1 0.25767422E-01 0.90505127E+02</pdfrwt>
<pdfrwt beam="2">  1       -1 0.18809995E-02 0.90505127E+02</pdfrwt>
<totfact> 0.11675291E+05</totfact>
</mgrwt>
</event>
<event>
 7    1  0.2787125E-009  0.7471088E+02  0.7818608E-02  0.1344769E+00
          1   -1    0    0  501    0  0.00000000000E+00  0.00000000000E+00  0.10052560030E+02  0.10052561293E+02  0.50400000000E-02 0. -1.
         -1   -1    0    0    0  501 -0.00000000000E+00 -0.00000000000E+00 -0.13881326640E+03  0.13881326649E+03  0.50400000000E-02 0.  1.
         23    2    1    2    0    0  0.00000000000E+00  0.00000000000E+00 -0.12876070637E+03  0.14886582779E+03  0.74710877236E+02 0.  0.
    9000005    2    3    3    0    0  0.28878301316E+02 -0.14273342819E+02 -0.98010506308E+02  0.10433202707E+03  0.15537951090E+02 0.  0.
         22    1    3    3    0    0 -0.28878301316E+02  0.14273342819E+02 -0.30750200065E+02  0.44533800716E+02  0.00000000000E+00 0. -1.
         22    1    4    4    0    0  0.12780407677E+02 -0.98841001552E+01 -0.27688114868E+02  0.32057229469E+02  0.00000000000E+00 0. -1.
         22    1    4    4    0    0  0.16097893640E+02 -0.43892426643E+01 -0.70322391440E+02  0.72274797604E+02  0.00000000000E+00 0. -1.
<mgrwt>
<rscale>  0 0.74710877E+02</rscale>
<asrwt>0</asrwt>
<pdfrwt beam="1">  1        1 0.15465479E-02 0.74710877E+02</pdfrwt>
<pdfrwt beam="2">  1       -1 0.21355886E-01 0.74710877E+02</pdfrwt>
<totfact> 0.12719942E+05</totfact>
</mgrwt>
</event>
<event>
 7    1  0.2787125E-009  0.8882863E+02  0.7818608E-02  0.1305713E+00
         -1   -1    0    0    0  501 -0.00000000000E+00  0.00000000000E+00  0.14506962965E+02  0.14506963841E+02  0.50400000000E-02 0.  1.
          1   -1    0    0  501    0  0.00000000000E+00 -0.00000000000E+00 -0.13597823615E+03  0.13597823625E+03  0.50400000000E-02 0. -1.
         23    2    1    2    0    0  0.35527136788E-14  0.00000000000E+00 -0.12147127319E+03  0.15048520009E+03  0.88828628468E+02 0.  0.
    9000005    2    3    3    0    0  0.24473849572E+02 -0.35945878376E+02 -0.75273997011E+02  0.87040233296E+02  0.43303696233E+01 0.  0.
         22    1    3    3    0    0 -0.24473849572E+02  0.35945878376E+02 -0.46197276178E+02  0.63444966793E+02  0.00000000000E+00 0. -1.
         22    1    4    4    0    0  0.23851111783E+02 -0.35510980243E+02 -0.74725044154E+02  0.86103063098E+02  0.00000000000E+00 0. -1.
         22    1    4    4    0    0  0.62273778925E+00 -0.43489813264E+00 -0.54895285775E+00  0.93717019797E+00  0.00000000000E+00 0. -1.
<mgrwt>
<rscale>  0 0.88828628E+02</rscale>
<asrwt>0</asrwt>
<pdfrwt beam="2">  1        1 0.20919728E-01 0.88828628E+02</pdfrwt>
<pdfrwt beam="1">  1       -1 0.22318406E-02 0.88828628E+02</pdfrwt>
<totfact> 0.11818155E+05</totfact>
</mgrwt>
</event>
<event>
 7    1  0.2787125E-009  0.9112367E+02  0.7818608E-02  0.1300153E+00
         -1   -1    0    0    0  501 -0.00000000000E+00  0.00000000000E+00  0.24768845004E+01  0.24768896282E+01  0.50400000000E-02 0.  1.
          1   -1    0    0  501    0  0.00000000000E+00 -0.00000000000E+00 -0.83810072498E+03  0.83810072500E+03  0.50400000000E-02 0. -1.
         23    2    1    2    0    0  0.00000000000E+00  0.00000000000E+00 -0.83562384048E+03  0.84057761463E+03  0.91123671063E+02 0.  0.
    9000005    2    3    3    0    0  0.68354647359E+01  0.28127667291E+02 -0.74088008751E+03  0.74151062733E+03  0.98395692659E+01 0.  0.
         22    1    3    3    0    0 -0.68354647359E+01 -0.28127667291E+02 -0.94743752967E+02  0.99066987295E+02  0.00000000000E+00 0.  1.
         22    1    4    4    0    0  0.72463716036E+01  0.19474371008E+02 -0.60354397788E+03  0.60390156008E+03  0.00000000000E+00 0. -1.
         22    1    4    4    0    0 -0.41090686776E+00  0.86532962825E+01 -0.13733610963E+03  0.13760906725E+03  0.00000000000E+00 0. -1.
<mgrwt>
<rscale>  0 0.91123671E+02</rscale>
<asrwt>0</asrwt>
<pdfrwt beam="2">  1        1 0.12893835E+00 0.91123671E+02</pdfrwt>
<pdfrwt beam="1">  1       -1 0.38106022E-03 0.91123671E+02</pdfrwt>
<totfact> 0.14084111E+05</totfact>
</mgrwt>
</event>
<event>
 7    1  0.2787125E-009  0.8808387E+02  0.7818608E-02  0.1307559E+00
         -1   -1    0    0    0  501 -0.00000000000E+00  0.00000000000E+00  0.43959842710E+02  0.43959842999E+02  0.50400000000E-02 0.  1.
          1   -1    0    0  501    0  0.00000000000E+00 -0.00000000000E+00 -0.44124183218E+02  0.44124183505E+02  0.50400000000E-02 0. -1.
         23    2    1    2    0    0  0.00000000000E+00  0.00000000000E+00 -0.16434050717E+00  0.88084026505E+02  0.88083873198E+02 0.  0.
    9000005    2    3    3    0    0 -0.34597910602E+02 -0.79546664613E+01  0.23551150176E+02  0.45390740910E+02  0.15664308132E+02 0.  0.
         22    1    3    3    0    0  0.34597910602E+02  0.79546664613E+01 -0.23715490683E+02  0.42693285595E+02  0.00000000000E+00 0. -1.
         22    1    4    4    0    0 -0.40907814356E+01  0.25321882463E+01  0.85577722761E+01  0.98174302339E+01  0.00000000000E+00 0.  1.
         22    1    4    4    0    0 -0.30507129166E+02 -0.10486854708E+02  0.14993377900E+02  0.35573310676E+02  0.00000000000E+00 0.  1.
<mgrwt>
<rscale>  0 0.88083873E+02</rscale>
<asrwt>0</asrwt>
<pdfrwt beam="2">  1        1 0.67883360E-02 0.88083873E+02</pdfrwt>
<pdfrwt beam="1">  1       -1 0.67630527E-02 0.88083873E+02</pdfrwt>
<totfact> 0.10135782E+05</totfact>
</mgrwt>
</event>
<event>
 7    1  0.2787125E-009  0.9485552E+02  0.7818608E-02  0.1291502E+00
         -1   -1    0    0    0  501 -0.00000000000E+00  0.00000000000E+00  0.12731930184E+02  0.12731931182E+02  0.50400000000E-02 0.  1.
          1   -1    0    0  501    0  0.00000000000E+00 -0.00000000000E+00 -0.17667331079E+03  0.17667331086E+03  0.50400000000E-02 0. -1.
         23    2    1    2    0    0 -0.35527136788E-14  0.00000000000E+00 -0.16394138060E+03  0.18940524204E+03  0.94855518757E+02 0.  0.
    9000005    2    3    3    0    0 -0.23291295052E+02 -0.25859740077E+02 -0.18682328189E+02  0.40035221989E+02  0.65252609999E+01 0.  0.
         22    1    3    3    0    0  0.23291295052E+02  0.25859740077E+02 -0.14525905242E+03  0.14937002005E+03  0.00000000000E+00 0. -1.
         22    1    4    4    0    0  0.14199763481E+00  0.26535235626E+00 -0.26716912382E+00  0.40243576132E+00  0.00000000000E+00 0.  1.
         22    1    4    4    0    0 -0.23433292687E+02 -0.26125092433E+02 -0.18415159065E+02  0.39632786228E+02  0.00000000000E+00 0.  1.
<mgrwt>
<rscale>  0 0.94855519E+02</rscale>
<asrwt>0</asrwt>
<pdfrwt beam="2">  1        1 0.27180508E-01 0.94855519E+02</pdfrwt>
<pdfrwt beam="1">  1       -1 0.19587587E-02 0.94855519E+02</pdfrwt>
<totfact> 0.10391889E+05</totfact>
</mgrwt>
</event>
<event>
 7    1  0.2787125E-009  0.9161546E+02  0.7818608E-02  0.1298986E+00
          1   -1    0    0  501    0  0.00000000000E+00  0.00000000000E+00  0.22438915337E+03  0.22438915343E+03  0.50400000000E-02 0. -1.
         -1   -1    0    0    0  501 -0.00000000000E+00 -0.00000000000E+00 -0.93513782171E+01  0.93513795753E+01  0.50400000000E-02 0.  1.
         23    2    1    2    0    0 -0.35527136788E-14  0.00000000000E+00  0.21503777516E+03  0.23374053301E+03  0.91615457350E+02 0.  0.
    9000005    2    3    3    0    0  0.24451344550E+02  0.33155266376E+02  0.64147327398E+02  0.77327403238E+02  0.12942478145E+02 0.  0.
         22    1    3    3    0    0 -0.24451344550E+02 -0.33155266376E+02  0.15089044776E+03  0.15641312977E+03  0.00000000000E+00 0. -1.
         22    1    4    4    0    0  0.10358190067E+01  0.63401590633E+01  0.17540102702E+02  0.18679554083E+02  0.00000000000E+00 0. -1.
         22    1    4    4    0    0  0.23415525543E+02  0.26815107313E+02  0.46607224696E+02  0.58647849155E+02  0.00000000000E+00 0. -1.
<mgrwt>
<rscale>  0 0.91615457E+02</rscale>
<asrwt>0</asrwt>
<pdfrwt beam="1">  1        1 0.34521408E-01 0.91615457E+02</pdfrwt>
<pdfrwt beam="2">  1       -1 0.14386737E-02 0.91615457E+02</pdfrwt>
<totfact> 0.11954246E+05</totfact>
</mgrwt>
</event>
<event>
 7    1  0.2787125E-009  0.9165823E+02  0.7818608E-02  0.1298885E+00
          1   -1    0    0  501    0  0.00000000000E+00  0.00000000000E+00  0.59992214931E+03  0.59992214933E+03  0.50400000000E-02 0. -1.
         -1   -1    0    0    0  501 -0.00000000000E+00 -0.00000000000E+00 -0.35009655219E+01  0.35009691497E+01  0.50400000000E-02 0.  1.
         23    2    1    2    0    0  0.00000000000E+00  0.00000000000E+00  0.59642118379E+03  0.60342311848E+03  0.91658231742E+02 0.  0.
    9000005    2    3    3    0    0 -0.10322096894E+02 -0.37433338176E+02  0.45227340708E+03  0.45413687658E+03  0.13463559189E+02 0.  0.
         22    1    3    3    0    0  0.10322096894E+02  0.37433338176E+02  0.14414777671E+03  0.14928624190E+03  0.00000000000E+00 0.  1.
         22    1    4    4    0    0 -0.99941069258E+01 -0.37210462987E+02  0.39769348556E+03  0.39955551452E+03  0.00000000000E+00 0.  1.
         22    1    4    4    0    0 -0.32798996774E+00 -0.22287518944E+00  0.54579921521E+02  0.54581362057E+02  0.00000000000E+00 0.  1.
<mgrwt>
<rscale>  0 0.91658232E+02</rscale>
<asrwt>0</asrwt>
<pdfrwt beam="1">  1        1 0.92295686E-01 0.91658232E+02</pdfrwt>
<pdfrwt beam="2">  1       -1 0.53861053E-03 0.91658232E+02</pdfrwt>
<totfact> 0.13962548E+05</totfact>
</mgrwt>
</event>
<event>
 7    1  0.2787125E-009  0.8861235E+02  0.7818608E-02  0.1306247E+00
          1   -1    0    0  501    0  0.00000000000E+00  0.00000000000E+00  0.21097150292E+03  0.21097150298E+03  0.50400000000E-02 0. -1.
         -1   -1    0    0    0  501 -0.00000000000E+00 -0.00000000000E+00 -0.93047503029E+01  0.93047516679E+01  0.50400000000E-02 0.  1.
         23    2    1    2    0    0  0.00000000000E+00 -0.11102230246E-15  0.20166675262E+03  0.22027625465E+03  0.88612353826E+02 0.  0.
    9000005    2    3    3    0    0 -0.36673271152E+02 -0.67609442987E+00  0.45719727038E+02  0.60073693159E+02  0.13159378735E+02 0.  0.
         22    1    3    3    0    0  0.36673271152E+02  0.67609442987E+00  0.15594702558E+03  0.16020256149E+03  0.00000000000E+00 0. -1.
         22    1    4    4    0    0 -0.11117297121E+02  0.58612210698E+01  0.15707007199E+02  0.20116119975E+02  0.00000000000E+00 0.  1.
         22    1    4    4    0    0 -0.25555974032E+02 -0.65373154997E+01  0.30012719839E+02  0.39957573184E+02  0.00000000000E+00 0.  1.
<mgrwt>
<rscale>  0 0.88612354E+02</rscale>
<asrwt>0</asrwt>
<pdfrwt beam="1">  1        1 0.32457153E-01 0.88612354E+02</pdfrwt>
<pdfrwt beam="2">  1       -1 0.14315002E-02 0.88612354E+02</pdfrwt>
<totfact> 0.12912392E+05</totfact>
</mgrwt>
</event>
<event>
 7    1  0.2787125E-009  0.9237669E+02  0.7818608E-02  0.1297196E+00
         -1   -1    0    0    0  501 -0.00000000000E+00  0.00000000000E+00  0.26989860508E+01  0.26989907566E+01  0.50400000000E-02 0.  1.
          1   -1    0    0  501    0  0.00000000000E+00 -0.00000000000E+00 -0.79043063911E+03  0.79043063912E+03  0.50400000000E-02 0. -1.
         23    2    1    2    0    0  0.00000000000E+00 -0.71054273576E-14 -0.78773165306E+03  0.79312962988E+03  0.92376688436E+02 0.  0.
    9000005    2    3    3    0    0  0.42993615039E+01 -0.39380169792E+02 -0.59078380082E+03  0.59223727367E+03  0.12255885638E+02 0.  0.
         22    1    3    3    0    0 -0.42993615039E+01  0.39380169792E+02 -0.19694785223E+03  0.20089235621E+03  0.00000000000E+00 0.  1.
         22    1    4    4    0    0  0.75728622797E+01 -0.34730758371E+02 -0.52869243836E+03  0.52988608983E+03  0.00000000000E+00 0. -1.
         22    1    4    4    0    0 -0.32735007758E+01 -0.46494114213E+01 -0.62091362466E+02  0.62351183844E+02  0.00000000000E+00 0. -1.
<mgrwt>
<rscale>  0 0.92376688E+02</rscale>
<asrwt>0</asrwt>
<pdfrwt beam="2">  1        1 0.12160453E+00 0.92376688E+02</pdfrwt>
<pdfrwt beam="1">  1       -1 0.41522962E-03 0.92376688E+02</pdfrwt>
<totfact> 0.13663180E+05</totfact>
</mgrwt>
</event>
<event>
 7    1  0.2787125E-009  0.9300158E+02  0.7818608E-02  0.1295742E+00
          1   -1    0    0  501    0  0.00000000000E+00  0.00000000000E+00  0.28373713911E+03  0.28373713915E+03  0.50400000000E-02 0. -1.
         -1   -1    0    0    0  501 -0.00000000000E+00 -0.00000000000E+00 -0.76208672184E+01  0.76208688850E+01  0.50400000000E-02 0.  1.
         23    2    1    2    0    0  0.00000000000E+00  0.00000000000E+00  0.27611627189E+03  0.29135800804E+03  0.93001576575E+02 0.  0.
    9000005    2    3    3    0    0 -0.71653188907E+01  0.45070411129E+02  0.14369632426E+03  0.15129471419E+03  0.12600523042E+02 0.  0.
         22    1    3    3    0    0  0.71653188907E+01 -0.45070411129E+02  0.13241994762E+03  0.14006329384E+03  0.00000000000E+00 0.  1.
         22    1    4    4    0    0 -0.10381014688E+01  0.35049906928E+02  0.11669366235E+03  0.12184820254E+03  0.00000000000E+00 0. -1.
         22    1    4    4    0    0 -0.61272174219E+01  0.10020504201E+02  0.27002661916E+02  0.29446511649E+02  0.00000000000E+00 0. -1.
<mgrwt>
<rscale>  0 0.93001577E+02</rscale>
<asrwt>0</asrwt>
<pdfrwt beam="1">  1        1 0.43651868E-01 0.93001577E+02</pdfrwt>
<pdfrwt beam="2">  1       -1 0.11724412E-02 0.93001577E+02</pdfrwt>
<totfact> 0.12022352E+05</totfact>
</mgrwt>
</event>
<event>
 7    1  0.2787125E-009  0.9131755E+02  0.7818608E-02  0.1299692E+00
          1   -1    0    0  501    0  0.00000000000E+00  0.00000000000E+00  0.23708615112E+02  0.23708615647E+02  0.50400000000E-02 0. -1.
         -1   -1    0    0    0  501 -0.00000000000E+00 -0.00000000000E+00 -0.87931063489E+02  0.87931063634E+02  0.50400000000E-02 0.  1.
         23    2    1    2    0    0  0.44408920985E-15 -0.17763568394E-14 -0.64222448377E+02  0.11163967928E+03  0.91317550966E+02 0.  0.
    9000005    2    3    3    0    0  0.31368602668E+01 -0.11646599329E+02 -0.85766766645E+02  0.86948773710E+02  0.76594921933E+01 0.  0.
         22    1    3    3    0    0 -0.31368602668E+01  0.11646599329E+02  0.21544318268E+02  0.24690905571E+02  0.00000000000E+00 0. -1.
         22    1    4    4    0    0  0.32567893647E+01 -0.68876341004E+01 -0.29046101664E+02  0.30028689654E+02  0.00000000000E+00 0. -1.
         22    1    4    4    0    0 -0.11992909783E+00 -0.47589652285E+01 -0.56720664981E+02  0.56920084056E+02  0.00000000000E+00 0. -1.
<mgrwt>
<rscale>  0 0.91317551E+02</rscale>
<asrwt>0</asrwt>
<pdfrwt beam="1">  1        1 0.36474793E-02 0.91317551E+02</pdfrwt>
<pdfrwt beam="2">  1       -1 0.13527856E-01 0.91317551E+02</pdfrwt>
<totfact> 0.82953914E+04</totfact>
</mgrwt>
</event>
<event>
 7    1  0.2787125E-009  0.9031666E+02  0.7818608E-02  0.1302087E+00
         -1   -1    0    0    0  501 -0.00000000000E+00  0.00000000000E+00  0.71683572403E+03  0.71683572404E+03  0.50400000000E-02 0.  1.
          1   -1    0    0  501    0  0.00000000000E+00 -0.00000000000E+00 -0.28448265762E+01  0.28448310407E+01  0.50400000000E-02 0. -1.
         23    2    1    2    0    0  0.00000000000E+00  0.00000000000E+00  0.71399089745E+03  0.71968055508E+03  0.90316663609E+02 0.  0.
    9000005    2    3    3    0    0 -0.23347969873E+02 -0.14778534283E+02  0.64105777179E+03  0.64168841707E+03  0.67398118515E+01 0.  0.
         22    1    3    3    0    0  0.23347969873E+02  0.14778534283E+02  0.72933125664E+02  0.77992138013E+02  0.00000000000E+00 0. -1.
         22    1    4    4    0    0 -0.82498714654E+01 -0.87950231002E+01  0.30541420143E+03  0.30565216709E+03  0.00000000000E+00 0.  1.
         22    1    4    4    0    0 -0.15098098408E+02 -0.59835111823E+01  0.33564357035E+03  0.33603624998E+03  0.00000000000E+00 0.  1.
<mgrwt>
<rscale>  0 0.90316664E+02</rscale>
<asrwt>0</asrwt>
<pdfrwt beam="2">  1        1 0.43766608E-03 0.90316664E+02</pdfrwt>
<pdfrwt beam="1">  1       -1 0.11028239E+00 0.90316664E+02</pdfrwt>
<totfact> 0.37011553E+04</totfact>
</mgrwt>
</event>
<event>
 7    1  0.2787125E-009  0.9183038E+02  0.7818608E-02  0.1298479E+00
         -1   -1    0    0    0  501 -0.00000000000E+00  0.00000000000E+00  0.27233336548E+02  0.27233337015E+02  0.50400000000E-02 0. -1.
          1   -1    0    0  501    0  0.00000000000E+00 -0.00000000000E+00 -0.77412646971E+02  0.77412647135E+02  0.50400000000E-02 0.  1.
         23    2    1    2    0    0  0.00000000000E+00  0.88817841970E-15 -0.50179310422E+02  0.10464598415E+03  0.91830380616E+02 0.  0.
    9000005    2    3    3    0    0  0.35670918035E+02 -0.51511078504E+01 -0.57484916022E+02  0.67872077929E+02  0.17762564047E+01 0.  0.
         22    1    3    3    0    0 -0.35670918035E+02  0.51511078504E+01  0.73056055995E+01  0.36773906220E+02  0.00000000000E+00 0. -1.
         22    1    4    4    0    0  0.29522952914E+02 -0.42690374904E+01 -0.46270041806E+02  0.55052213386E+02  0.00000000000E+00 0. -1.
         22    1    4    4    0    0  0.61479651203E+01 -0.88207035993E+00 -0.11214874215E+02  0.12819864543E+02  0.00000000000E+00 0. -1.
<mgrwt>
<rscale>  0 0.91830381E+02</rscale>
<asrwt>0</asrwt>
<pdfrwt beam="2">  1        1 0.11909638E-01 0.91830381E+02</pdfrwt>
<pdfrwt beam="1">  1       -1 0.41897442E-02 0.91830381E+02</pdfrwt>
<totfact> 0.98273816E+04</totfact>
</mgrwt>
</event>
<event>
 7    1  0.2787125E-009  0.9009430E+02  0.7818608E-02  0.1302624E+00
         -1   -1    0    0    0  501 -0.00000000000E+00  0.00000000000E+00  0.22097158234E+01  0.22097215711E+01  0.50400000000E-02 0.  1.
          1   -1    0    0  501    0  0.00000000000E+00 -0.00000000000E+00 -0.91832758499E+03  0.91832758500E+03  0.50400000000E-02 0. -1.
         23    2    1    2    0    0  0.00000000000E+00  0.22204460493E-15 -0.91611786916E+03  0.92053730657E+03  0.90094298320E+02 0.  0.
    9000005    2    3    3    0    0  0.35933732002E+02 -0.11876638997E+01 -0.72592301535E+03  0.72697407128E+03  0.15311187126E+02 0.  0.
         22    1    3    3    0    0 -0.35933732002E+02  0.11876638997E+01 -0.19019485381E+03  0.19356323529E+03  0.00000000000E+00 0.  1.
         22    1    4    4    0    0  0.35418673148E+01  0.16710122530E+01 -0.20483210132E+03  0.20486953614E+03  0.00000000000E+00 0. -1.
         22    1    4    4    0    0  0.32391864687E+02 -0.28586761527E+01 -0.52109091403E+03  0.52210453514E+03  0.00000000000E+00 0. -1.
<mgrwt>
<rscale>  0 0.90094298E+02</rscale>
<asrwt>0</asrwt>
<pdfrwt beam="2">  1        1 0.14128086E+00 0.90094298E+02</pdfrwt>
<pdfrwt beam="1">  1       -1 0.33995746E-03 0.90094298E+02</pdfrwt>
<totfact> 0.14311412E+05</totfact>
</mgrwt>
</event>
<event>
 7    1  0.2787125E-009  0.9335808E+02  0.7818608E-02  0.1294917E+00
          1   -1    0    0  501    0  0.00000000000E+00  0.00000000000E+00  0.47375906466E+03  0.47375906468E+03  0.50400000000E-02 0. -1.
         -1   -1    0    0    0  501 -0.00000000000E+00 -0.00000000000E+00 -0.45992413062E+01  0.45992440677E+01  0.50400000000E-02 0.  1.
         23    2    1    2    0    0 -0.71054273576E-14  0.00000000000E+00  0.46915982335E+03  0.47835830875E+03  0.93358083233E+02 0.  0.
    9000005    2    3    3    0    0 -0.41161178447E+02 -0.97455389108E+01  0.33323595661E+03  0.33600482025E+03  0.79886363728E+01 0.  0.
         22    1    3    3    0    0  0.41161178447E+02  0.97455389108E+01  0.13592386674E+03  0.14235348851E+03  0.00000000000E+00 0. -1.
         22    1    4    4    0    0 -0.15694273116E+02 -0.37378698554E+01  0.15877873067E+03  0.15959626309E+03  0.00000000000E+00 0. -1.
         22    1    4    4    0    0 -0.25466905331E+02 -0.60076690554E+01  0.17445722594E+03  0.17640855715E+03  0.00000000000E+00 0. -1.
<mgrwt>
<rscale>  0 0.93358083E+02</rscale>
<asrwt>0</asrwt>
<pdfrwt beam="1">  1        1 0.72885987E-01 0.93358083E+02</pdfrwt>
<pdfrwt beam="2">  1       -1 0.70757602E-03 0.93358083E+02</pdfrwt>
<totfact> 0.12991383E+05</totfact>
</mgrwt>
</event>
<event>
 7    1  0.2787125E-009  0.9102293E+02  0.7818608E-02  0.1300393E+00
         -1   -1    0    0    0  501 -0.00000000000E+00  0.00000000000E+00  0.11897305865E+02  0.11897306932E+02  0.50400000000E-02 0. -1.
          1   -1    0    0  501    0  0.00000000000E+00 -0.00000000000E+00 -0.17409767418E+03  0.17409767425E+03  0.50400000000E-02 0.  1.
         23    2    1    2    0    0  0.00000000000E+00 -0.71054273576E-14 -0.16220036832E+03  0.18599498119E+03  0.91022928675E+02 0.  0.
    9000005    2    3    3    0    0  0.90757691633E+01 -0.43886986478E+02 -0.78864153839E+02  0.91372775487E+02  0.10999644148E+02 0.  0.
         22    1    3    3    0    0 -0.90757691633E+01  0.43886986478E+02 -0.83336214476E+02  0.94622205698E+02  0.00000000000E+00 0.  1.
         22    1    4    4    0    0  0.93484039518E+01 -0.37708232708E+02 -0.59633334969E+02  0.71171891291E+02  0.00000000000E+00 0.  1.
         22    1    4    4    0    0 -0.27263478849E+00 -0.61787537701E+01 -0.19230818870E+02  0.20200884196E+02  0.00000000000E+00 0.  1.
<mgrwt>
<rscale>  0 0.91022929E+02</rscale>
<asrwt>0</asrwt>
<pdfrwt beam="2">  1        1 0.26784256E-01 0.91022929E+02</pdfrwt>
<pdfrwt beam="1">  1       -1 0.18303550E-02 0.91022929E+02</pdfrwt>
<totfact> 0.11581783E+05</totfact>
</mgrwt>
</event>
<event>
 7    1  0.2787125E-009  0.9604558E+02  0.7818608E-02  0.1288838E+00
          1   -1    0    0  501    0  0.00000000000E+00  0.00000000000E+00  0.39939228957E+02  0.39939229275E+02  0.50400000000E-02 0. -1.
         -1   -1    0    0    0  501 -0.00000000000E+00 -0.00000000000E+00 -0.57742436987E+02  0.57742437207E+02  0.50400000000E-02 0.  1.
         23    2    1    2    0    0  0.88817841970E-15  0.00000000000E+00 -0.17803208030E+02  0.97681666482E+02  0.96045581629E+02 0.  0.
    9000005    2    3    3    0    0  0.55680973348E+01  0.25760273274E+02 -0.48732850128E+02  0.57046236776E+02  0.13593640483E+02 0.  0.
         22    1    3    3    0    0 -0.55680973348E+01 -0.25760273274E+02  0.30929642098E+02  0.40635429706E+02  0.00000000000E+00 0. -1.
         22    1    4    4    0    0  0.54440619039E+01  0.61352148714E+01 -0.24653699350E+02  0.25982370238E+02  0.00000000000E+00 0. -1.
         22    1    4    4    0    0  0.12403543092E+00  0.19625058403E+02 -0.24079150777E+02  0.31063866538E+02  0.00000000000E+00 0. -1.
<mgrwt>
<rscale>  0 0.96045582E+02</rscale>
<asrwt>0</asrwt>
<pdfrwt beam="1">  1        1 0.61444967E-02 0.96045582E+02</pdfrwt>
<pdfrwt beam="2">  1       -1 0.88834520E-02 0.96045582E+02</pdfrwt>
<totfact> 0.78192663E+04</totfact>
</mgrwt>
</event>
<event>
 7    1  0.2787125E-009  0.9286898E+02  0.7818608E-02  0.1296049E+00
         -1   -1    0    0    0  501 -0.00000000000E+00  0.00000000000E+00  0.20982574209E+02  0.20982574815E+02  0.50400000000E-02 0.  1.
          1   -1    0    0  501    0  0.00000000000E+00 -0.00000000000E+00 -0.10275963958E+03  0.10275963970E+03  0.50400000000E-02 0. -1.
         23    2    1    2    0    0  0.00000000000E+00  0.35527136788E-14 -0.81777065369E+02  0.12374221452E+03  0.92868978852E+02 0.  0.
    9000005    2    3    3    0    0  0.18102339195E+02  0.31875976435E+02 -0.78010200704E+02  0.86891680906E+02  0.10990916190E+02 0.  0.
         22    1    3    3    0    0 -0.18102339195E+02 -0.31875976435E+02 -0.37668646648E+01  0.36850533611E+02  0.00000000000E+00 0. -1.
         22    1    4    4    0    0  0.15216658022E+02  0.27170069769E+02 -0.54762219372E+02  0.62997301872E+02  0.00000000000E+00 0. -1.
         22    1    4    4    0    0  0.28856811736E+01  0.47059066656E+01 -0.23247981332E+02  0.23894379033E+02  0.00000000000E+00 0. -1.
<mgrwt>
<rscale>  0 0.92868979E+02</rscale>
<asrwt>0</asrwt>
<pdfrwt beam="2">  1        1 0.15809175E-01 0.92868979E+02</pdfrwt>
<pdfrwt beam="1">  1       -1 0.32280885E-02 0.92868979E+02</pdfrwt>
<totfact> 0.99790338E+04</totfact>
</mgrwt>
</event>
<event>
 7    1  0.2787125E-009  0.1060829E+03  0.7818608E-02  0.1268001E+00
          1   -1    0    0  501    0  0.00000000000E+00  0.00000000000E+00  0.44286260181E+03  0.44286260184E+03  0.50400000000E-02 0. -1.
         -1   -1    0    0    0  501 -0.00000000000E+00 -0.00000000000E+00 -0.63527432732E+01  0.63527452724E+01  0.50400000000E-02 0.  1.
         23    2    1    2    0    0  0.00000000000E+00  0.00000000000E+00  0.43650985854E+03  0.44921534711E+03  0.10608285196E+03 0.  0.
    9000005    2    3    3    0    0 -0.24519572967E+02 -0.41844226883E+02  0.30419194909E+03  0.30828920354E+03  0.12543617701E+02 0.  0.
         22    1    3    3    0    0  0.24519572967E+02  0.41844226883E+02  0.13231790944E+03  0.14092614357E+03  0.00000000000E+00 0.  1.
         22    1    4    4    0    0 -0.99344756200E+01 -0.27647695115E+02  0.19751598091E+03  0.19968888694E+03  0.00000000000E+00 0. -1.
         22    1    4    4    0    0 -0.14585097347E+02 -0.14196531768E+02  0.10667596818E+03  0.10860031660E+03  0.00000000000E+00 0. -1.
<mgrwt>
<rscale>  0 0.10608285E+03</rscale>
<asrwt>0</asrwt>
<pdfrwt beam="1">  1        1 0.68132737E-01 0.10608285E+03</pdfrwt>
<pdfrwt beam="2">  1       -1 0.97734486E-03 0.10608285E+03</pdfrwt>
<totfact> 0.91424183E+04</totfact>
</mgrwt>
</event>
<event>
 7    1  0.2787125E-009  0.8810813E+02  0.7818608E-02  0.1307499E+00
         -1   -1    0    0    0  501 -0.00000000000E+00  0.00000000000E+00  0.13746671066E+02  0.13746671990E+02  0.50400000000E-02 0.  1.
          1   -1    0    0  501    0  0.00000000000E+00 -0.00000000000E+00 -0.14118041151E+03  0.14118041160E+03  0.50400000000E-02 0. -1.
         23    2    1    2    0    0  0.00000000000E+00  0.00000000000E+00 -0.12743374045E+03  0.15492708359E+03  0.88108132578E+02 0.  0.
    9000005    2    3    3    0    0 -0.95795271886E+01  0.43431684312E+01 -0.13889868379E+03  0.13936831182E+03  0.44778933030E+01 0.  0.
         22    1    3    3    0    0  0.95795271886E+01 -0.43431684312E+01  0.11464943343E+02  0.15558771771E+02  0.00000000000E+00 0.  1.
         22    1    4    4    0    0 -0.43837385288E+01  0.39957419418E+01 -0.89372237270E+02  0.89568855703E+02  0.00000000000E+00 0. -1.
         22    1    4    4    0    0 -0.51957886599E+01  0.34742648931E+00 -0.49526446521E+02  0.49799456121E+02  0.00000000000E+00 0. -1.
<mgrwt>
<rscale>  0 0.88108133E+02</rscale>
<asrwt>0</asrwt>
<pdfrwt beam="2">  1        1 0.21720062E-01 0.88108133E+02</pdfrwt>
<pdfrwt beam="1">  1       -1 0.21148727E-02 0.88108133E+02</pdfrwt>
<totfact> 0.12161358E+05</totfact>
</mgrwt>
</event>
<event>
 7    1  0.2787125E-009  0.9207074E+02  0.7818608E-02  0.1297913E+00
          1   -1    0    0  501    0  0.00000000000E+00  0.00000000000E+00  0.20665474160E+02  0.20665474774E+02  0.50400000000E-02 0. -1.
         -1   -1    0    0    0  501 -0.00000000000E+00 -0.00000000000E+00 -0.10255052577E+03  0.10255052590E+03  0.50400000000E-02 0.  1.
         23    2    1    2    0    0  0.00000000000E+00  0.71054273576E-14 -0.81885051615E+02  0.12321600067E+03  0.92070739889E+02 0.  0.
    9000005    2    3    3    0    0 -0.16020077135E+02 -0.39454551234E+02 -0.20320884758E+02  0.48359797688E+02  0.10603168893E+02 0.  0.
         22    1    3    3    0    0  0.16020077135E+02  0.39454551234E+02 -0.61564166857E+02  0.74856202985E+02  0.00000000000E+00 0.  1.
         22    1    4    4    0    0 -0.55706942585E+01 -0.87268304164E+01 -0.97614216150E+01  0.14229390556E+02  0.00000000000E+00 0.  1.
         22    1    4    4    0    0 -0.10449382877E+02 -0.30727720817E+02 -0.10559463143E+02  0.34130407132E+02  0.00000000000E+00 0.  1.
<mgrwt>
<rscale>  0 0.92070740E+02</rscale>
<asrwt>0</asrwt>
<pdfrwt beam="1">  1        1 0.31793038E-02 0.92070740E+02</pdfrwt>
<pdfrwt beam="2">  1       -1 0.15777004E-01 0.92070740E+02</pdfrwt>
<totfact> 0.78975147E+04</totfact>
</mgrwt>
</event>
<event>
 7    1  0.2787125E-009  0.9137394E+02  0.7818608E-02  0.1299558E+00
         -1   -1    0    0    0  501 -0.00000000000E+00  0.00000000000E+00  0.58180901971E+01  0.58180923801E+01  0.50400000000E-02 0.  1.
          1   -1    0    0  501    0  0.00000000000E+00 -0.00000000000E+00 -0.35876016561E+03  0.35876016565E+03  0.50400000000E-02 0. -1.
         23    2    1    2    0    0  0.22204460493E-15  0.17763568394E-14 -0.35294207542E+03  0.36457825803E+03  0.91373943924E+02 0.  0.
    9000005    2    3    3    0    0 -0.10227792042E+01 -0.13944731676E+02 -0.34988414619E+03  0.35026558707E+03  0.84595574178E+01 0.  0.
         22    1    3    3    0    0  0.10227792042E+01  0.13944731676E+02 -0.30579292258E+01  0.14312670958E+02  0.00000000000E+00 0.  1.
         22    1    4    4    0    0  0.30609296496E+01 -0.20701214794E+01 -0.95994509202E+02  0.96065605137E+02  0.00000000000E+00 0.  1.
         22    1    4    4    0    0 -0.40837088538E+01 -0.11874610196E+02 -0.25388963699E+03  0.25419998194E+03  0.00000000000E+00 0.  1.
<mgrwt>
<rscale>  0 0.91373944E+02</rscale>
<asrwt>0</asrwt>
<pdfrwt beam="2">  1        1 0.55193855E-01 0.91373944E+02</pdfrwt>
<pdfrwt beam="1">  1       -1 0.89509125E-03 0.91373944E+02</pdfrwt>
<totfact> 0.13165309E+05</totfact>
</mgrwt>
</event>
<event>
 7    1  0.2787125E-009  0.9152192E+02  0.7818608E-02  0.1299207E+00
         -1   -1    0    0    0  501 -0.00000000000E+00  0.00000000000E+00  0.32731848322E+03  0.32731848326E+03  0.50400000000E-02 0.  1.
          1   -1    0    0  501    0  0.00000000000E+00 -0.00000000000E+00 -0.63976375882E+01  0.63976395734E+01  0.50400000000E-02 0. -1.
         23    2    1    2    0    0  0.00000000000E+00  0.00000000000E+00  0.32092084563E+03  0.33371612283E+03  0.91521918014E+02 0.  0.
    9000005    2    3    3    0    0 -0.12951228163E+02 -0.34920750283E+01  0.31975581618E+03  0.32025186672E+03  0.11728054454E+02 0.  0.
         22    1    3    3    0    0  0.12951228163E+02  0.34920750283E+01  0.11650294537E+01  0.13464256109E+02  0.00000000000E+00 0. -1.
         22    1    4    4    0    0 -0.17922755706E+01 -0.60662386611E+01  0.10366282714E+03  0.10385563650E+03  0.00000000000E+00 0.  1.
         22    1    4    4    0    0 -0.11158952592E+02  0.25741636328E+01  0.21609298904E+03  0.21639623022E+03  0.00000000000E+00 0.  1.
<mgrwt>
<rscale>  0 0.91521918E+02</rscale>
<asrwt>0</asrwt>
<pdfrwt beam="2">  1        1 0.98425214E-03 0.91521918E+02</pdfrwt>
<pdfrwt beam="1">  1       -1 0.50356687E-01 0.91521918E+02</pdfrwt>
<totfact> 0.57893017E+04</totfact>
</mgrwt>
</event>
<event>
 7    1  0.2787125E-009  0.8966494E+02  0.7818608E-02  0.1303665E+00
         -1   -1    0    0    0  501 -0.00000000000E+00  0.00000000000E+00  0.91575275415E+02  0.91575275554E+02  0.50400000000E-02 0.  1.
          1   -1    0    0  501    0  0.00000000000E+00 -0.00000000000E+00 -0.21948611823E+02  0.21948612402E+02  0.50400000000E-02 0. -1.
         23    2    1    2    0    0  0.00000000000E+00  0.35527136788E-14  0.69626663592E+02  0.11352388796E+03  0.89664936590E+02 0.  0.
    9000005    2    3    3    0    0 -0.33010206410E+02  0.28762847650E+02  0.40585527878E+02  0.60984734025E+02  0.12448999108E+02 0.  0.
         22    1    3    3    0    0  0.33010206410E+02 -0.28762847650E+02  0.29041135714E+02  0.52539153931E+02  0.00000000000E+00 0.  1.
         22    1    4    4    0    0 -0.30356435443E+02  0.26553385273E+02  0.31219690419E+02  0.51002593190E+02  0.00000000000E+00 0.  1.
         22    1    4    4    0    0 -0.26537709674E+01  0.22094623769E+01  0.93658374589E+01  0.99821408349E+01  0.00000000000E+00 0.  1.
<mgrwt>
<rscale>  0 0.89664937E+02</rscale>
<asrwt>0</asrwt>
<pdfrwt beam="2">  1        1 0.33767097E-02 0.89664937E+02</pdfrwt>
<pdfrwt beam="1">  1       -1 0.14088504E-01 0.89664937E+02</pdfrwt>
<totfact> 0.86312267E+04</totfact>
</mgrwt>
</event>
<event>
 7    1  0.2787125E-009  0.8997672E+02  0.7818608E-02  0.1302908E+00
          1   -1    0    0  501    0  0.00000000000E+00  0.00000000000E+00  0.81599124374E+03  0.81599124375E+03  0.50400000000E-02 0. -1.
         -1   -1    0    0    0  501 -0.00000000000E+00 -0.00000000000E+00 -0.24803580900E+01  0.24803632105E+01  0.50400000000E-02 0.  1.
         23    2    1    2    0    0 -0.11102230246E-15  0.00000000000E+00  0.81351088565E+03  0.81847160696E+03  0.89976721092E+02 0.  0.
    9000005    2    3    3    0    0 -0.75543891459E+00  0.36836039651E+02  0.63566706955E+03  0.63685143345E+03  0.12233579373E+02 0.  0.
         22    1    3    3    0    0  0.75543891459E+00 -0.36836039651E+02  0.17784381610E+03  0.18162017352E+03  0.00000000000E+00 0.  1.
         22    1    4    4    0    0  0.24388958126E+01  0.26150685545E+01  0.11237521160E+03  0.11243209051E+03  0.00000000000E+00 0.  1.
         22    1    4    4    0    0 -0.31943347272E+01  0.34220971096E+02  0.52329185796E+03  0.52441934293E+03  0.00000000000E+00 0.  1.
<mgrwt>
<rscale>  0 0.89976721E+02</rscale>
<asrwt>0</asrwt>
<pdfrwt beam="1">  1        1 0.12553738E+00 0.89976721E+02</pdfrwt>
<pdfrwt beam="2">  1       -1 0.38159314E-03 0.89976721E+02</pdfrwt>
<totfact> 0.14606098E+05</totfact>
</mgrwt>
</event>
<event>
 7    1  0.2787125E-009  0.9088899E+02  0.7818608E-02  0.1300713E+00
         -1   -1    0    0    0  501 -0.00000000000E+00  0.00000000000E+00  0.22917029121E+03  0.22917029126E+03  0.50400000000E-02 0.  1.
          1   -1    0    0  501    0  0.00000000000E+00 -0.00000000000E+00 -0.90116483767E+01  0.90116497861E+01  0.50400000000E-02 0. -1.
         23    2    1    2    0    0  0.00000000000E+00  0.00000000000E+00  0.22015864283E+03  0.23818194105E+03  0.90888992891E+02 0.  0.
    9000005    2    3    3    0    0  0.19429559655E+01 -0.44605173672E+02  0.97482889504E+02  0.10763410671E+03  0.94228756259E+01 0.  0.
         22    1    3    3    0    0 -0.19429559655E+01  0.44605173672E+02  0.12267575332E+03  0.13054783434E+03  0.00000000000E+00 0.  1.
         22    1    4    4    0    0  0.72619288158E+00 -0.17102881881E+02  0.48680671582E+02  0.51602749059E+02  0.00000000000E+00 0. -1.
         22    1    4    4    0    0  0.12167630839E+01 -0.27502291791E+02  0.48802217922E+02  0.56031357652E+02  0.00000000000E+00 0. -1.
<mgrwt>
<rscale>  0 0.90888993E+02</rscale>
<asrwt>0</asrwt>
<pdfrwt beam="2">  1        1 0.13864076E-02 0.90888993E+02</pdfrwt>
<pdfrwt beam="1">  1       -1 0.35256966E-01 0.90888993E+02</pdfrwt>
<totfact> 0.67189423E+04</totfact>
</mgrwt>
</event>
<event>
 7    1  0.2787125E-009  0.9118919E+02  0.7818608E-02  0.1299997E+00
          1   -1    0    0  501    0  0.00000000000E+00  0.00000000000E+00  0.84739042953E+03  0.84739042955E+03  0.50400000000E-02 0. -1.
         -1   -1    0    0    0  501 -0.00000000000E+00 -0.00000000000E+00 -0.24532550839E+01  0.24532602610E+01  0.50400000000E-02 0.  1.
         23    2    1    2    0    0  0.44408920985E-15  0.00000000000E+00  0.84493717445E+03  0.84984368981E+03  0.91189189831E+02 0.  0.
    9000005    2    3    3    0    0 -0.36513968110E+01 -0.23922463270E+02  0.78238922777E+03  0.78277758375E+03  0.47143345237E+01 0.  0.
         22    1    3    3    0    0  0.36513968110E+01  0.23922463270E+02  0.62547946680E+02  0.67066106056E+02  0.00000000000E+00 0.  1.
         22    1    4    4    0    0 -0.21727532693E+01 -0.19532875773E+02  0.67947787320E+03  0.67976204238E+03  0.00000000000E+00 0. -1.
         22    1    4    4    0    0 -0.14786435417E+01 -0.43895874975E+01  0.10291135457E+03  0.10301554138E+03  0.00000000000E+00 0. -1.
<mgrwt>
<rscale>  0 0.91189190E+02</rscale>
<asrwt>0</asrwt>
<pdfrwt beam="1">  1        1 0.13036765E+00 0.91189190E+02</pdfrwt>
<pdfrwt beam="2">  1       -1 0.37742456E-03 0.91189190E+02</pdfrwt>
<totfact> 0.14038360E+05</totfact>
</mgrwt>
</event>
<event>
 7    1  0.2787125E-009  0.8976262E+02  0.7818608E-02  0.1303428E+00
         -1   -1    0    0    0  501 -0.00000000000E+00  0.00000000000E+00  0.25926300547E+02  0.25926301037E+02  0.50400000000E-02 0.  1.
          1   -1    0    0  501    0  0.00000000000E+00 -0.00000000000E+00 -0.77694535484E+02  0.77694535647E+02  0.50400000000E-02 0. -1.
         23    2    1    2    0    0  0.71054273576E-14  0.00000000000E+00 -0.51768234937E+02  0.10362083668E+03  0.89762618314E+02 0.  0.
    9000005    2    3    3    0    0  0.41845455428E+02 -0.90846074267E+01 -0.17276166340E+02  0.48636520482E+02  0.15279822289E+02 0.  0.
         22    1    3    3    0    0 -0.41845455428E+02  0.90846074267E+01 -0.34492068597E+02  0.54984316202E+02  0.00000000000E+00 0. -1.
         22    1    4    4    0    0  0.48948947375E+01  0.79370465671E+00  0.25271963410E+01  0.55656700333E+01  0.00000000000E+00 0.  1.
         22    1    4    4    0    0  0.36950560690E+02 -0.98783120834E+01 -0.19803362681E+02  0.43070850449E+02  0.00000000000E+00 0.  1.
<mgrwt>
<rscale>  0 0.89762618E+02</rscale>
<asrwt>0</asrwt>
<pdfrwt beam="2">  1        1 0.11953005E-01 0.89762618E+02</pdfrwt>
<pdfrwt beam="1">  1       -1 0.39886617E-02 0.89762618E+02</pdfrwt>
<totfact> 0.10467403E+05</totfact>
</mgrwt>
</event>
<event>
 7    1  0.3655443E-009  0.9400879E+02  0.7818608E-02  0.1293424E+00
         -1   -1    0    0    0  501 -0.00000000000E+00  0.00000000000E+00  0.74229792974E+02  0.74229793145E+02  0.50400000000E-02 0.  1.
          1   -1    0    0  501    0  0.00000000000E+00 -0.00000000000E+00 -0.29764503422E+02  0.29764503848E+02  0.50400000000E-02 0. -1.
         23    2    1    2    0    0 -0.88817841970E-15  0.00000000000E+00  0.44465289553E+02  0.10399429699E+03  0.94008785931E+02 0.  0.
    9000005    2    3    3    0    0 -0.60932683926E+01  0.11060304859E+02  0.71406794749E+02  0.74240255830E+02  0.15913107366E+02 0.  0.
         22    1    3    3    0    0  0.60932683926E+01 -0.11060304859E+02 -0.26941505197E+02  0.29754041163E+02  0.00000000000E+00 0. -1.
         22    1    4    4    0    0 -0.75179188059E+00  0.10777429043E+02  0.21641023886E+02  0.24187849897E+02  0.00000000000E+00 0.  1.
         22    1    4    4    0    0 -0.53414765120E+01  0.28287581629E+00  0.49765770863E+02  0.50052405933E+02  0.00000000000E+00 0.  1.
<mgrwt>
<rscale>  0 0.94008786E+02</rscale>
<asrwt>0</asrwt>
<pdfrwt beam="2">  1        1 0.45791544E-02 0.94008786E+02</pdfrwt>
<pdfrwt beam="1">  1       -1 0.11419968E-01 0.94008786E+02</pdfrwt>
<totfact> 0.79265526E+04</totfact>
</mgrwt>
</event>
<event>
 7    1  0.2787125E-009  0.9191887E+02  0.7818608E-02  0.1298270E+00
          1   -1    0    0  501    0  0.00000000000E+00  0.00000000000E+00  0.85818640581E+03  0.85818640582E+03  0.50400000000E-02 0.  1.
         -1   -1    0    0    0  501 -0.00000000000E+00 -0.00000000000E+00 -0.24613153990E+01  0.24613205591E+01  0.50400000000E-02 0. -1.
         23    2    1    2    0    0  0.17763568394E-14  0.17763568394E-14  0.85572509041E+03  0.86064772638E+03  0.91918869504E+02 0.  0.
    9000005    2    3    3    0    0  0.14459631439E+02  0.15076088470E+02  0.80947166365E+03  0.80989589024E+03  0.15830647126E+02 0.  0.
         22    1    3    3    0    0 -0.14459631439E+02 -0.15076088470E+02  0.46253426755E+02  0.50751836139E+02  0.00000000000E+00 0. -1.
         22    1    4    4    0    0  0.12650613663E+02  0.15512836005E+02  0.79958982702E+03  0.79984034506E+03  0.00000000000E+00 0.  1.
         22    1    4    4    0    0  0.18090177755E+01 -0.43674753485E+00  0.98818366302E+01  0.10055545182E+02  0.00000000000E+00 0.  1.
<mgrwt>
<rscale>  0 0.91918870E+02</rscale>
<asrwt>0</asrwt>
<pdfrwt beam="1">  1        1 0.13202893E+00 0.91918870E+02</pdfrwt>
<pdfrwt beam="2">  1       -1 0.37866358E-03 0.91918870E+02</pdfrwt>
<totfact> 0.13722723E+05</totfact>
</mgrwt>
</event>
<event>
 7    1  0.2787125E-009  0.9142210E+02  0.7818608E-02  0.1299444E+00
          1   -1    0    0  501    0  0.00000000000E+00  0.00000000000E+00  0.57364427826E+02  0.57364428047E+02  0.50400000000E-02 0. -1.
         -1   -1    0    0    0  501 -0.00000000000E+00 -0.00000000000E+00 -0.36425010142E+02  0.36425010491E+02  0.50400000000E-02 0.  1.
         23    2    1    2    0    0  0.00000000000E+00  0.00000000000E+00  0.20939417684E+02  0.93789438538E+02  0.91422095624E+02 0.  0.
    9000005    2    3    3    0    0 -0.13403081540E+02  0.12666166299E+02 -0.32425856304E+02  0.37327709630E+02  0.13591856773E+01 0.  0.
         22    1    3    3    0    0  0.13403081540E+02 -0.12666166299E+02  0.53365273987E+02  0.56461728908E+02  0.00000000000E+00 0. -1.
         22    1    4    4    0    0 -0.47619965263E+01  0.45570107689E+01 -0.10301660532E+02  0.12229765647E+02  0.00000000000E+00 0.  1.
         22    1    4    4    0    0 -0.86410850140E+01  0.81091555299E+01 -0.22124195771E+02  0.25097943982E+02  0.00000000000E+00 0.  1.
<mgrwt>
<rscale>  0 0.91422096E+02</rscale>
<asrwt>0</asrwt>
<pdfrwt beam="1">  1        1 0.88252967E-02 0.91422096E+02</pdfrwt>
<pdfrwt beam="2">  1       -1 0.56038477E-02 0.91422096E+02</pdfrwt>
<totfact> 0.95006946E+04</totfact>
</mgrwt>
</event>
<event>
 7    1  0.2787125E-009  0.9129605E+02  0.7818608E-02  0.1299743E+00
          1   -1    0    0  501    0  0.00000000000E+00  0.00000000000E+00  0.36187002483E+01  0.36187037581E+01  0.50400000000E-02 0. -1.
         -1   -1    0    0    0  501 -0.00000000000E+00 -0.00000000000E+00 -0.57582580463E+03  0.57582580466E+03  0.50400000000E-02 0.  1.
         23    2    1    2    0    0  0.71054273576E-14  0.22204460493E-15 -0.57220710439E+03  0.57944450841E+03  0.91296046037E+02 0.  0.
    9000005    2    3    3    0    0  0.44251626023E+02  0.17611622857E+01 -0.33586806643E+03  0.33899191649E+03  0.12118304507E+02 0.  0.
         22    1    3    3    0    0 -0.44251626023E+02 -0.17611622857E+01 -0.23633903796E+03  0.24045259192E+03  0.00000000000E+00 0. -1.
         22    1    4    4    0    0  0.21351225604E+01  0.30912899888E+01 -0.24855890383E+02  0.25138220081E+02  0.00000000000E+00 0. -1.
         22    1    4    4    0    0  0.42116503462E+02 -0.13301277031E+01 -0.31101217605E+03  0.31385369641E+03  0.00000000000E+00 0. -1.
<mgrwt>
<rscale>  0 0.91296046E+02</rscale>
<asrwt>0</asrwt>
<pdfrwt beam="1">  1        1 0.55672384E-03 0.91296046E+02</pdfrwt>
<pdfrwt beam="2">  1       -1 0.88588513E-01 0.91296046E+02</pdfrwt>
<totfact> 0.42715024E+04</totfact>
</mgrwt>
</event>
<event>
 7    1  0.2787125E-009  0.9318772E+02  0.7818608E-02  0.1295311E+00
         -1   -1    0    0    0  501 -0.00000000000E+00  0.00000000000E+00  0.69686255606E+01  0.69686273831E+01  0.50400000000E-02 0.  1.
          1   -1    0    0  501    0  0.00000000000E+00 -0.00000000000E+00 -0.31153740833E+03  0.31153740837E+03  0.50400000000E-02 0. -1.
         23    2    1    2    0    0 -0.88817841970E-15  0.00000000000E+00 -0.30456878277E+03  0.31850603575E+03  0.93187721154E+02 0.  0.
    9000005    2    3    3    0    0 -0.51624717399E+01  0.44332098732E+02 -0.19756930341E+03  0.20257124945E+03  0.30814542931E+01 0.  0.
         22    1    3    3    0    0  0.51624717399E+01 -0.44332098732E+02 -0.10699947935E+03  0.11593478630E+03  0.00000000000E+00 0. -1.
         22    1    4    4    0    0 -0.34042613677E+00  0.78282320496E+00 -0.25007880444E+01  0.26424691044E+01  0.00000000000E+00 0. -1.
         22    1    4    4    0    0 -0.48220456031E+01  0.43549275527E+02 -0.19506851537E+03  0.19992878035E+03  0.00000000000E+00 0. -1.
<mgrwt>
<rscale>  0 0.93187721E+02</rscale>
<asrwt>0</asrwt>
<pdfrwt beam="2">  1        1 0.47928821E-01 0.93187721E+02</pdfrwt>
<pdfrwt beam="1">  1       -1 0.10720966E-02 0.93187721E+02</pdfrwt>
<totfact> 0.12174597E+05</totfact>
</mgrwt>
</event>
<event>
 7    1  0.2787125E-009  0.8959775E+02  0.7818608E-02  0.1303829E+00
         -1   -1    0    0    0  501 -0.00000000000E+00  0.00000000000E+00  0.16705381220E+02  0.16705381980E+02  0.50400000000E-02 0.  1.
          1   -1    0    0  501    0  0.00000000000E+00 -0.00000000000E+00 -0.12013727893E+03  0.12013727903E+03  0.50400000000E-02 0. -1.
         23    2    1    2    0    0  0.35527136788E-14  0.00000000000E+00 -0.10343189771E+03  0.13684266101E+03  0.89597747793E+02 0.  0.
    9000005    2    3    3    0    0  0.30935642519E+02  0.10656792605E+02 -0.60152038683E+01  0.34077912946E+02  0.73851382173E+01 0.  0.
         22    1    3    3    0    0 -0.30935642519E+02 -0.10656792605E+02 -0.97416693837E+02  0.10276474806E+03  0.00000000000E+00 0. -1.
         22    1    4    4    0    0  0.26029278806E+02  0.79478111195E+01 -0.22132598023E+01  0.27305486184E+02  0.00000000000E+00 0. -1.
         22    1    4    4    0    0  0.49063637124E+01  0.27089814860E+01 -0.38019440661E+01  0.67724267623E+01  0.00000000000E+00 0. -1.
<mgrwt>
<rscale>  0 0.89597748E+02</rscale>
<asrwt>0</asrwt>
<pdfrwt beam="2">  1        1 0.18482658E-01 0.89597748E+02</pdfrwt>
<pdfrwt beam="1">  1       -1 0.25700588E-02 0.89597748E+02</pdfrwt>
<totfact> 0.11297916E+05</totfact>
</mgrwt>
</event>
<event>
 7    1  0.2787125E-009  0.8601512E+02  0.7818608E-02  0.1312799E+00
          1   -1    0    0  501    0  0.00000000000E+00  0.00000000000E+00  0.37095582310E+02  0.37095582652E+02  0.50400000000E-02 0. -1.
         -1   -1    0    0    0  501 -0.00000000000E+00 -0.00000000000E+00 -0.49861734678E+02  0.49861734933E+02  0.50400000000E-02 0.  1.
         23    2    1    2    0    0  0.00000000000E+00  0.00000000000E+00 -0.12766152368E+02  0.86957317585E+02  0.86015117481E+02 0.  0.
    9000005    2    3    3    0    0 -0.28437496102E+02  0.20472079339E+02 -0.29389144733E+02  0.48174317544E+02  0.15140866078E+02 0.  0.
         22    1    3    3    0    0  0.28437496102E+02 -0.20472079339E+02  0.16622992366E+02  0.38783000041E+02  0.00000000000E+00 0.  1.
         22    1    4    4    0    0 -0.20671361253E+02  0.12370286271E+02 -0.10666852785E+02  0.26345984643E+02  0.00000000000E+00 0. -1.
         22    1    4    4    0    0 -0.77661348494E+01  0.81017930684E+01 -0.18722291949E+02  0.21828332901E+02  0.00000000000E+00 0. -1.
<mgrwt>
<rscale>  0 0.86015117E+02</rscale>
<asrwt>0</asrwt>
<pdfrwt beam="1">  1        1 0.57070126E-02 0.86015117E+02</pdfrwt>
<pdfrwt beam="2">  1       -1 0.76710362E-02 0.86015117E+02</pdfrwt>
<totfact> 0.10562895E+05</totfact>
</mgrwt>
</event>
<event>
 7    1  0.2787125E-009  0.8984592E+02  0.7818608E-02  0.1303225E+00
         -1   -1    0    0    0  501 -0.00000000000E+00  0.00000000000E+00  0.34737766783E+02  0.34737767149E+02  0.50400000000E-02 0.  1.
          1   -1    0    0  501    0  0.00000000000E+00 -0.00000000000E+00 -0.58094468235E+02  0.58094468454E+02  0.50400000000E-02 0. -1.
         23    2    1    2    0    0  0.00000000000E+00  0.00000000000E+00 -0.23356701452E+02  0.92832235603E+02  0.89845915123E+02 0.  0.
    9000005    2    3    3    0    0 -0.20710229190E+02 -0.15174491633E+02 -0.48669302466E+02  0.56778018658E+02  0.13995128111E+02 0.  0.
         22    1    3    3    0    0  0.20710229190E+02  0.15174491633E+02  0.25312601013E+02  0.36054216944E+02  0.00000000000E+00 0.  1.
         22    1    4    4    0    0 -0.49637818158E+01 -0.76439071895E+01 -0.29392243435E+02  0.30772917008E+02  0.00000000000E+00 0.  1.
         22    1    4    4    0    0 -0.15746447374E+02 -0.75305844435E+01 -0.19277059031E+02  0.26005101650E+02  0.00000000000E+00 0.  1.
<mgrwt>
<rscale>  0 0.89845915E+02</rscale>
<asrwt>0</asrwt>
<pdfrwt beam="2">  1        1 0.89376106E-02 0.89845915E+02</pdfrwt>
<pdfrwt beam="1">  1       -1 0.53442719E-02 0.89845915E+02</pdfrwt>
<totfact> 0.99892355E+04</totfact>
</mgrwt>
</event>
<event>
 7    1  0.2787125E-009  0.8980224E+02  0.7818608E-02  0.1303331E+00
         -1   -1    0    0    0  501 -0.00000000000E+00  0.00000000000E+00  0.10106066124E+02  0.10106067381E+02  0.50400000000E-02 0.  1.
          1   -1    0    0  501    0  0.00000000000E+00 -0.00000000000E+00 -0.19949506845E+03  0.19949506851E+03  0.50400000000E-02 0. -1.
         23    2    1    2    0    0  0.17763568394E-14  0.00000000000E+00 -0.18938900232E+03  0.20960113589E+03  0.89802238092E+02 0.  0.
    9000005    2    3    3    0    0  0.15575808705E+02  0.27942556011E+02 -0.27540282591E+02  0.44621136098E+02  0.14463276540E+02 0.  0.
         22    1    3    3    0    0 -0.15575808705E+02 -0.27942556011E+02 -0.16184871973E+03  0.16497999979E+03  0.00000000000E+00 0. -1.
         22    1    4    4    0    0  0.15047681459E+02  0.12306472155E+02 -0.14438811497E+02  0.24214897308E+02  0.00000000000E+00 0.  1.
         22    1    4    4    0    0  0.52812724619E+00  0.15636083856E+02 -0.13101471094E+02  0.20406238790E+02  0.00000000000E+00 0.  1.
<mgrwt>
<rscale>  0 0.89802238E+02</rscale>
<asrwt>0</asrwt>
<pdfrwt beam="2">  1        1 0.30691546E-01 0.89802238E+02</pdfrwt>
<pdfrwt beam="1">  1       -1 0.15547796E-02 0.89802238E+02</pdfrwt>
<totfact> 0.12326200E+05</totfact>
</mgrwt>
</event>
<event>
 7    1  0.2787125E-009  0.9077281E+02  0.7818608E-02  0.1300991E+00
          1   -1    0    0  501    0  0.00000000000E+00  0.00000000000E+00  0.40266395796E+03  0.40266395799E+03  0.50400000000E-02 0. -1.
         -1   -1    0    0    0  501 -0.00000000000E+00 -0.00000000000E+00 -0.51157423091E+01  0.51157447918E+01  0.50400000000E-02 0.  1.
         23    2    1    2    0    0  0.00000000000E+00  0.00000000000E+00  0.39754821565E+03  0.40777970278E+03  0.90772805591E+02 0.  0.
    9000005    2    3    3    0    0 -0.34944699912E+02 -0.25749022189E+02  0.24410392433E+03  0.24831404900E+03  0.13747613064E+02 0.  0.
         22    1    3    3    0    0  0.34944699912E+02  0.25749022189E+02  0.15344429132E+03  0.15946565378E+03  0.00000000000E+00 0.  1.
         22    1    4    4    0    0 -0.13566924758E+02 -0.13904217453E+02  0.14217408047E+03  0.14349514929E+03  0.00000000000E+00 0. -1.
         22    1    4    4    0    0 -0.21377775154E+02 -0.11844804736E+02  0.10192984385E+03  0.10481889972E+03  0.00000000000E+00 0. -1.
<mgrwt>
<rscale>  0 0.90772806E+02</rscale>
<asrwt>0</asrwt>
<pdfrwt beam="1">  1        1 0.61948317E-01 0.90772806E+02</pdfrwt>
<pdfrwt beam="2">  1       -1 0.78703728E-03 0.90772806E+02</pdfrwt>
<totfact> 0.13663898E+05</totfact>
</mgrwt>
</event>
<event>
 7    1  0.2787125E-009  0.9331132E+02  0.7818608E-02  0.1295025E+00
         -1   -1    0    0    0  501 -0.00000000000E+00  0.00000000000E+00  0.22757941233E+03  0.22757941239E+03  0.50400000000E-02 0.  1.
          1   -1    0    0  501    0  0.00000000000E+00 -0.00000000000E+00 -0.95647952237E+01  0.95647965515E+01  0.50400000000E-02 0. -1.
         23    2    1    2    0    0  0.00000000000E+00  0.17763568394E-14  0.21801461711E+03  0.23714420894E+03  0.93311320645E+02 0.  0.
    9000005    2    3    3    0    0  0.11165604650E+02 -0.13025163444E+02  0.21892025558E+03  0.21996440129E+03  0.12803668205E+02 0.  0.
         22    1    3    3    0    0 -0.11165604650E+02  0.13025163444E+02 -0.90563847352E+00  0.17179807653E+02  0.00000000000E+00 0. -1.
         22    1    4    4    0    0  0.63237015292E+01 -0.35285286677E+01  0.15438148532E+03  0.15455123010E+03  0.00000000000E+00 0.  1.
         22    1    4    4    0    0  0.48419031205E+01 -0.94966347761E+01  0.64538770263E+02  0.65413171189E+02  0.00000000000E+00 0.  1.
<mgrwt>
<rscale>  0 0.93311321E+02</rscale>
<asrwt>0</asrwt>
<pdfrwt beam="2">  1        1 0.14715072E-02 0.93311321E+02</pdfrwt>
<pdfrwt beam="1">  1       -1 0.35012214E-01 0.93311321E+02</pdfrwt>
<totfact> 0.62865727E+04</totfact>
</mgrwt>
</event>
<event>
 6    1  0.2787125E-009  0.4856124E+02  0.7818608E-02  0.1453260E+00
         -1   -1    0    0    0  501 -0.00000000000E+00  0.00000000000E+00  0.34137859622E+01  0.34137896827E+01  0.50400000000E-02 0.  1.
          1   -1    0    0  501    0  0.00000000000E+00 -0.00000000000E+00 -0.17269629011E+03  0.17269629018E+03  0.50400000000E-02 0. -1.
    9000005    2    1    2    0    0  0.18119846340E+02  0.10715214781E+02 -0.12085280684E+03  0.12330307047E+03  0.12453979645E+02 0.  0.
         22    1    1    2    0    0 -0.18119846340E+02 -0.10715214781E+02 -0.48429697306E+02  0.52807009387E+02  0.00000000000E+00 0.  1.
         22    1    3    3    0    0  0.37824678989E+01  0.82939284189E+01 -0.32187594809E+02  0.33453513591E+02  0.00000000000E+00 0.  1.
         22    1    3    3    0    0  0.14337378441E+02  0.24212863622E+01 -0.88665212028E+02  0.89849556884E+02  0.00000000000E+00 0.  1.
<mgrwt>
<rscale>  0 0.48561240E+02</rscale>
<asrwt>0</asrwt>
<pdfrwt beam="2">  1        1 0.26568654E-01 0.48561240E+02</pdfrwt>
<pdfrwt beam="1">  1       -1 0.52519827E-03 0.48561240E+02</pdfrwt>
<totfact> 0.58977271E+05</totfact>
</mgrwt>
</event>
<event>
 7    1  0.2787125E-009  0.9233910E+02  0.7818608E-02  0.1297284E+00
         -1   -1    0    0    0  501 -0.00000000000E+00  0.00000000000E+00  0.96525789752E+02  0.96525789884E+02  0.50400000000E-02 0.  1.
          1   -1    0    0  501    0  0.00000000000E+00 -0.00000000000E+00 -0.22083499770E+02  0.22083500345E+02  0.50400000000E-02 0. -1.
         23    2    1    2    0    0  0.00000000000E+00  0.00000000000E+00  0.74442289982E+02  0.11860929023E+03  0.92339098928E+02 0.  0.
    9000005    2    3    3    0    0  0.30331193238E+02 -0.40231961451E+01  0.81056123887E+02  0.87305773025E+02  0.10771972589E+02 0.  0.
         22    1    3    3    0    0 -0.30331193238E+02  0.40231961451E+01 -0.66138339047E+01  0.31303517204E+02  0.00000000000E+00 0. -1.
         22    1    4    4    0    0  0.25403547398E+02 -0.63273977337E+01  0.73278308457E+02  0.77814437432E+02  0.00000000000E+00 0. -1.
         22    1    4    4    0    0  0.49276458394E+01  0.23042015886E+01  0.77778154295E+01  0.94913355928E+01  0.00000000000E+00 0. -1.
<mgrwt>
<rscale>  0 0.92339099E+02</rscale>
<asrwt>0</asrwt>
<pdfrwt beam="2">  1        1 0.33974616E-02 0.92339099E+02</pdfrwt>
<pdfrwt beam="1">  1       -1 0.14850121E-01 0.92339099E+02</pdfrwt>
<totfact> 0.79273632E+04</totfact>
</mgrwt>
</event>
<event>
 7    1  0.2787125E-009  0.9026787E+02  0.7818608E-02  0.1302204E+00
          1   -1    0    0  501    0  0.00000000000E+00  0.00000000000E+00  0.20839379101E+02  0.20839379710E+02  0.50400000000E-02 0. -1.
         -1   -1    0    0    0  501 -0.00000000000E+00 -0.00000000000E+00 -0.97751083592E+02  0.97751083722E+02  0.50400000000E-02 0.  1.
         23    2    1    2    0    0  0.00000000000E+00 -0.17763568394E-14 -0.76911704491E+02  0.11859046343E+03  0.90267866538E+02 0.  0.
    9000005    2    3    3    0    0  0.33307152061E+02  0.11426510046E+02 -0.30876109269E+01  0.36798481546E+02  0.10230512823E+02 0.  0.
         22    1    3    3    0    0 -0.33307152061E+02 -0.11426510046E+02 -0.73824093564E+02  0.81791981886E+02  0.00000000000E+00 0.  1.
         22    1    4    4    0    0  0.27348263800E+02  0.11766215200E+02  0.60840450979E+00  0.29778205269E+02  0.00000000000E+00 0. -1.
         22    1    4    4    0    0  0.59588882609E+01 -0.33970515380E+00 -0.36960154366E+01  0.70202762770E+01  0.00000000000E+00 0. -1.
<mgrwt>
<rscale>  0 0.90267867E+02</rscale>
<asrwt>0</asrwt>
<pdfrwt beam="1">  1        1 0.32060584E-02 0.90267867E+02</pdfrwt>
<pdfrwt beam="2">  1       -1 0.15038628E-01 0.90267867E+02</pdfrwt>
<totfact> 0.83846349E+04</totfact>
</mgrwt>
</event>
<event>
 7    1  0.2787125E-009  0.9031457E+02  0.7818608E-02  0.1302092E+00
         -1   -1    0    0    0  501 -0.00000000000E+00  0.00000000000E+00  0.95757188748E+02  0.95757188881E+02  0.50400000000E-02 0.  1.
          1   -1    0    0  501    0  0.00000000000E+00 -0.00000000000E+00 -0.21295325967E+02  0.21295326564E+02  0.50400000000E-02 0. -1.
         23    2    1    2    0    0  0.00000000000E+00  0.17763568394E-14  0.74461862781E+02  0.11705251544E+03  0.90314574477E+02 0.  0.
    9000005    2    3    3    0    0 -0.35043416453E+02  0.86182096604E+01  0.71704032995E+02  0.80859695721E+02  0.97214952524E+01 0.  0.
         22    1    3    3    0    0  0.35043416453E+02 -0.86182096604E+01  0.27578297865E+01  0.36192819724E+02  0.00000000000E+00 0. -1.
         22    1    4    4    0    0 -0.17982999795E+02 -0.40297955522E+00  0.37366262387E+02  0.41470329622E+02  0.00000000000E+00 0. -1.
         22    1    4    4    0    0 -0.17060416658E+02  0.90211892156E+01  0.34337770608E+02  0.39389366099E+02  0.00000000000E+00 0. -1.
<mgrwt>
<rscale>  0 0.90314574E+02</rscale>
<asrwt>0</asrwt>
<pdfrwt beam="2">  1        1 0.32762041E-02 0.90314574E+02</pdfrwt>
<pdfrwt beam="1">  1       -1 0.14731875E-01 0.90314574E+02</pdfrwt>
<totfact> 0.84050506E+04</totfact>
</mgrwt>
</event>
<event>
 7    1  0.2787125E-009  0.9028023E+02  0.7818608E-02  0.1302174E+00
         -1   -1    0    0    0  501 -0.00000000000E+00  0.00000000000E+00  0.22421908263E+03  0.22421908269E+03  0.50400000000E-02 0.  1.
          1   -1    0    0  501    0  0.00000000000E+00 -0.00000000000E+00 -0.90876734487E+01  0.90876748463E+01  0.50400000000E-02 0. -1.
         23    2    1    2    0    0  0.00000000000E+00  0.17763568394E-14  0.21513140919E+03  0.23330675754E+03  0.90280229809E+02 0.  0.
    9000005    2    3    3    0    0 -0.27157111260E+01 -0.15786440014E+02  0.21615910620E+03  0.21725549789E+03  0.14785310093E+02 0.  0.
         22    1    3    3    0    0  0.27157111260E+01  0.15786440014E+02 -0.10276970116E+01  0.16051259651E+02  0.00000000000E+00 0. -1.
         22    1    4    4    0    0 -0.50550155195E+01 -0.84819638887E+01  0.18101830235E+03  0.18128740353E+03  0.00000000000E+00 0.  1.
         22    1    4    4    0    0  0.23393043935E+01 -0.73044761254E+01  0.35140803845E+02  0.35968094353E+02  0.00000000000E+00 0.  1.
<mgrwt>
<rscale>  0 0.90280230E+02</rscale>
<asrwt>0</asrwt>
<pdfrwt beam="2">  1        1 0.13981038E-02 0.90280230E+02</pdfrwt>
<pdfrwt beam="1">  1       -1 0.34495241E-01 0.90280230E+02</pdfrwt>
<totfact> 0.68846715E+04</totfact>
</mgrwt>
</event>
<event>
 7    1  0.2787125E-009  0.9117344E+02  0.7818608E-02  0.1300035E+00
          1   -1    0    0  501    0  0.00000000000E+00  0.00000000000E+00  0.63173116030E+03  0.63173116032E+03  0.50400000000E-02 0. -1.
         -1   -1    0    0    0  501 -0.00000000000E+00 -0.00000000000E+00 -0.32896079535E+01  0.32896118144E+01  0.50400000000E-02 0.  1.
         23    2    1    2    0    0 -0.88817841970E-15  0.00000000000E+00  0.62844155235E+03  0.63502077213E+03  0.91173440906E+02 0.  0.
    9000005    2    3    3    0    0 -0.52559693839E+01  0.19577201098E+02  0.59735748352E+03  0.59791132116E+03  0.15845909077E+02 0.  0.
         22    1    3    3    0    0  0.52559693839E+01 -0.19577201098E+02  0.31084068828E+02  0.37109450978E+02  0.00000000000E+00 0.  1.
         22    1    4    4    0    0 -0.14807476697E+01  0.15429722368E+02  0.55068056331E+03  0.55089867648E+03  0.00000000000E+00 0.  1.
         22    1    4    4    0    0 -0.37752217142E+01  0.41474787302E+01  0.46676920209E+02  0.47012644671E+02  0.00000000000E+00 0.  1.
<mgrwt>
<rscale>  0 0.91173441E+02</rscale>
<asrwt>0</asrwt>
<pdfrwt beam="1">  1        1 0.97189305E-01 0.91173441E+02</pdfrwt>
<pdfrwt beam="2">  1       -1 0.50609438E-03 0.91173441E+02</pdfrwt>
<totfact> 0.14196326E+05</totfact>
</mgrwt>
</event>
<event>
 7    1  0.2787125E-009  0.9276809E+02  0.7818608E-02  0.1296283E+00
          1   -1    0    0  501    0  0.00000000000E+00  0.00000000000E+00  0.15690483354E+02  0.15690484164E+02  0.50400000000E-02 0. -1.
         -1   -1    0    0    0  501 -0.00000000000E+00 -0.00000000000E+00 -0.13712004486E+03  0.13712004495E+03  0.50400000000E-02 0.  1.
         23    2    1    2    0    0 -0.35527136788E-14  0.71054273576E-14 -0.12142956150E+03  0.15281052911E+03  0.92768094736E+02 0.  0.
    9000005    2    3    3    0    0 -0.27480698925E+02  0.34089604425E+02 -0.35781624088E+02  0.56618746061E+02  0.28403943160E+01 0.  0.
         22    1    3    3    0    0  0.27480698925E+02 -0.34089604425E+02 -0.85647937414E+02  0.96191783051E+02  0.00000000000E+00 0.  1.
         22    1    4    4    0    0 -0.61676423585E+01  0.87775072168E+01 -0.75002641781E+01  0.13089629786E+02  0.00000000000E+00 0. -1.
         22    1    4    4    0    0 -0.21313056567E+02  0.25312097209E+02 -0.28281359910E+02  0.43529116275E+02  0.00000000000E+00 0. -1.
<mgrwt>
<rscale>  0 0.92768095E+02</rscale>
<asrwt>0</asrwt>
<pdfrwt beam="1">  1        1 0.24139207E-02 0.92768095E+02</pdfrwt>
<pdfrwt beam="2">  1       -1 0.21095391E-01 0.92768095E+02</pdfrwt>
<totfact> 0.72981308E+04</totfact>
</mgrwt>
</event>
<event>
 7    1  0.2787125E-009  0.9207000E+02  0.7818608E-02  0.1297915E+00
          1   -1    0    0  501    0  0.00000000000E+00  0.00000000000E+00  0.51199480212E+02  0.51199480460E+02  0.50400000000E-02 0. -1.
         -1   -1    0    0    0  501 -0.00000000000E+00 -0.00000000000E+00 -0.41391463297E+02  0.41391463604E+02  0.50400000000E-02 0.  1.
         23    2    1    2    0    0  0.00000000000E+00  0.00000000000E+00  0.98080169152E+01  0.92590944065E+02  0.92070004491E+02 0.  0.
    9000005    2    3    3    0    0 -0.14872470294E+02  0.40905762948E+02  0.19345869435E+02  0.48032640172E+02  0.61967767974E+01 0.  0.
         22    1    3    3    0    0  0.14872470294E+02 -0.40905762948E+02 -0.95378525201E+01  0.44558303892E+02  0.00000000000E+00 0. -1.
         22    1    4    4    0    0 -0.67414870097E+01  0.12711945588E+02  0.40799531077E+01  0.14956176820E+02  0.00000000000E+00 0.  1.
         22    1    4    4    0    0 -0.81309832845E+01  0.28193817361E+02  0.15265916328E+02  0.33076463352E+02  0.00000000000E+00 0.  1.
<mgrwt>
<rscale>  0 0.92070004E+02</rscale>
<asrwt>0</asrwt>
<pdfrwt beam="1">  1        1 0.78768432E-02 0.92070004E+02</pdfrwt>
<pdfrwt beam="2">  1       -1 0.63679174E-02 0.92070004E+02</pdfrwt>
<totfact> 0.91566904E+04</totfact>
</mgrwt>
</event>
<event>
 7    1  0.2787125E-009  0.9191606E+02  0.7818608E-02  0.1298277E+00
          1   -1    0    0  501    0  0.00000000000E+00  0.00000000000E+00  0.71580572666E+02  0.71580572843E+02  0.50400000000E-02 0. -1.
         -1   -1    0    0    0  501 -0.00000000000E+00 -0.00000000000E+00 -0.29507177735E+02  0.29507178166E+02  0.50400000000E-02 0.  1.
         23    2    1    2    0    0  0.00000000000E+00  0.00000000000E+00  0.42073394930E+02  0.10108775101E+03  0.91916064119E+02 0.  0.
    9000005    2    3    3    0    0  0.68375524935E+01 -0.24624533571E+02 -0.20714410032E+02  0.33298163094E+02  0.51537466698E+01 0.  0.
         22    1    3    3    0    0 -0.68375524935E+01  0.24624533571E+02  0.62787804962E+02  0.67789587915E+02  0.00000000000E+00 0. -1.
         22    1    4    4    0    0  0.17105544586E+01 -0.56579313956E+01 -0.77993094859E+01  0.97860826018E+01  0.00000000000E+00 0. -1.
         22    1    4    4    0    0  0.51269980349E+01 -0.18966602176E+02 -0.12915100546E+02  0.23512080492E+02  0.00000000000E+00 0. -1.
<mgrwt>
<rscale>  0 0.91916064E+02</rscale>
<asrwt>0</asrwt>
<pdfrwt beam="1">  1        1 0.11012396E-01 0.91916064E+02</pdfrwt>
<pdfrwt beam="2">  1       -1 0.45395659E-02 0.91916064E+02</pdfrwt>
<totfact> 0.96826047E+04</totfact>
</mgrwt>
</event>
<event>
 6    1  0.2787125E-009  0.3737169E+03  0.7818608E-02  0.1053281E+00
          1   -1    0    0  501    0  0.00000000000E+00  0.00000000000E+00  0.45028208516E+03  0.45028208519E+03  0.50400000000E-02 0. -1.
         -1   -1    0    0    0  501 -0.00000000000E+00 -0.00000000000E+00 -0.77542662178E+02  0.77542662342E+02  0.50400000000E-02 0.  1.
    9000005    2    1    2    0    0 -0.26267229060E+02 -0.16962921680E+03  0.29058418606E+03  0.33752624131E+03  0.45558609967E+01 0.  0.
         22    1    1    2    0    0  0.26267229060E+02  0.16962921680E+03  0.82155236923E+02  0.19029850622E+03  0.00000000000E+00 0.  1.
         22    1    3    3    0    0 -0.33808012242E+01 -0.18541113195E+02  0.34593828784E+02  0.39394614928E+02  0.00000000000E+00 0. -1.
         22    1    3    3    0    0 -0.22886427836E+02 -0.15108810361E+03  0.25599035727E+03  0.29813162638E+03  0.00000000000E+00 0. -1.
<mgrwt>
<rscale>  0 0.37371685E+03</rscale>
<asrwt>0</asrwt>
<pdfrwt beam="1">  1        1 0.69274167E-01 0.37371685E+03</pdfrwt>
<pdfrwt beam="2">  1       -1 0.11929640E-01 0.37371685E+03</pdfrwt>
<totfact> 0.24091045E+03</totfact>
</mgrwt>
</event>
<event>
 7    1  0.2787125E-009  0.9051035E+02  0.7818608E-02  0.1301621E+00
         -1   -1    0    0    0  501 -0.00000000000E+00  0.00000000000E+00  0.25271306688E+02  0.25271307190E+02  0.50400000000E-02 0.  1.
          1   -1    0    0  501    0  0.00000000000E+00 -0.00000000000E+00 -0.81041741123E+02  0.81041741279E+02  0.50400000000E-02 0. -1.
         23    2    1    2    0    0  0.00000000000E+00  0.88817841970E-15 -0.55770434435E+02  0.10631304847E+03  0.90510347021E+02 0.  0.
    9000005    2    3    3    0    0  0.24212570193E+02  0.70686193756E+01 -0.71885612370E+02  0.76381244396E+02  0.55081117019E+01 0.  0.
         22    1    3    3    0    0 -0.24212570193E+02 -0.70686193756E+01  0.16115177935E+02  0.29931804073E+02  0.00000000000E+00 0.  1.
         22    1    4    4    0    0  0.18360711728E+02  0.36258237902E+01 -0.47086817634E+02  0.50669820685E+02  0.00000000000E+00 0. -1.
         22    1    4    4    0    0  0.58518584655E+01  0.34427955853E+01 -0.24798794735E+02  0.25711423711E+02  0.00000000000E+00 0. -1.
<mgrwt>
<rscale>  0 0.90510347E+02</rscale>
<asrwt>0</asrwt>
<pdfrwt beam="2">  1        1 0.12467960E-01 0.90510347E+02</pdfrwt>
<pdfrwt beam="1">  1       -1 0.38878934E-02 0.90510347E+02</pdfrwt>
<totfact> 0.10300080E+05</totfact>
</mgrwt>
</event>
<event>
 7    1  0.2787125E-009  0.9150148E+02  0.7818608E-02  0.1299256E+00
          1   -1    0    0  501    0  0.00000000000E+00  0.00000000000E+00  0.65274145805E+03  0.65274145807E+03  0.50400000000E-02 0. -1.
         -1   -1    0    0    0  501 -0.00000000000E+00 -0.00000000000E+00 -0.32066737996E+01  0.32066777604E+01  0.50400000000E-02 0.  1.
         23    2    1    2    0    0 -0.71054273576E-14  0.00000000000E+00  0.64953478425E+03  0.65594813583E+03  0.91501480575E+02 0.  0.
    9000005    2    3    3    0    0 -0.42515146774E+02 -0.96464036726E+01  0.40482157000E+03  0.40738195141E+03  0.13377592725E+02 0.  0.
         22    1    3    3    0    0  0.42515146774E+02  0.96464036726E+01  0.24471321425E+03  0.24856618442E+03  0.00000000000E+00 0. -1.
         22    1    4    4    0    0 -0.43462245615E+02 -0.99473706799E+01  0.39393798596E+03  0.39645309150E+03  0.00000000000E+00 0.  1.
         22    1    4    4    0    0  0.94709884096E+00  0.30096700737E+00  0.10883584041E+02  0.10928859910E+02  0.00000000000E+00 0.  1.
<mgrwt>
<rscale>  0 0.91501481E+02</rscale>
<asrwt>0</asrwt>
<pdfrwt beam="1">  1        1 0.10042177E+00 0.91501481E+02</pdfrwt>
<pdfrwt beam="2">  1       -1 0.49333469E-03 0.91501481E+02</pdfrwt>
<totfact> 0.14076686E+05</totfact>
</mgrwt>
</event>
<event>
 7    1  0.2787125E-009  0.9050881E+02  0.7818608E-02  0.1301624E+00
          1   -1    0    0  501    0  0.00000000000E+00  0.00000000000E+00  0.30751231636E+03  0.30751231640E+03  0.50400000000E-02 0. -1.
         -1   -1    0    0    0  501 -0.00000000000E+00 -0.00000000000E+00 -0.66597681860E+01  0.66597700931E+01  0.50400000000E-02 0.  1.
         23    2    1    2    0    0  0.35527136788E-14  0.00000000000E+00  0.30085254817E+03  0.31417208649E+03  0.90508807248E+02 0.  0.
    9000005    2    3    3    0    0 -0.22089700673E+02 -0.38229690570E+02  0.12491535822E+03  0.13277925608E+03  0.87761044306E+01 0.  0.
         22    1    3    3    0    0  0.22089700673E+02  0.38229690570E+02  0.17593718995E+03  0.18139283041E+03  0.00000000000E+00 0. -1.
         22    1    4    4    0    0 -0.21622721157E+02 -0.31375864855E+02  0.10369407099E+03  0.11047374042E+03  0.00000000000E+00 0. -1.
         22    1    4    4    0    0 -0.46697951630E+00 -0.68538257157E+01  0.21221287239E+02  0.22305515661E+02  0.00000000000E+00 0. -1.
<mgrwt>
<rscale>  0 0.90508807E+02</rscale>
<asrwt>0</asrwt>
<pdfrwt beam="1">  1        1 0.47309597E-01 0.90508807E+02</pdfrwt>
<pdfrwt beam="2">  1       -1 0.10245797E-02 0.90508807E+02</pdfrwt>
<totfact> 0.13126954E+05</totfact>
</mgrwt>
</event>
<event>
 7    1  0.2787125E-009  0.9138564E+02  0.7818608E-02  0.1299530E+00
         -1   -1    0    0    0  501 -0.00000000000E+00  0.00000000000E+00  0.36567463837E+01  0.36567498569E+01  0.50400000000E-02 0.  1.
          1   -1    0    0  501    0  0.00000000000E+00 -0.00000000000E+00 -0.57095367997E+03  0.57095367999E+03  0.50400000000E-02 0. -1.
         23    2    1    2    0    0 -0.71054273576E-14  0.00000000000E+00 -0.56729693359E+03  0.57461042985E+03  0.91385640202E+02 0.  0.
    9000005    2    3    3    0    0 -0.33460176256E+02  0.25217901255E+02 -0.39429341513E+03  0.39660553290E+03  0.85513493180E+01 0.  0.
         22    1    3    3    0    0  0.33460176256E+02 -0.25217901255E+02 -0.17300351846E+03  0.17800489695E+03  0.00000000000E+00 0. -1.
         22    1    4    4    0    0 -0.14061543028E+02  0.66114995984E+01 -0.12104541912E+03  0.12203865129E+03  0.00000000000E+00 0.  1.
         22    1    4    4    0    0 -0.19398633228E+02  0.18606401657E+02 -0.27324799601E+03  0.27456688161E+03  0.00000000000E+00 0.  1.
<mgrwt>
<rscale>  0 0.91385640E+02</rscale>
<asrwt>0</asrwt>
<pdfrwt beam="2">  1        1 0.87838957E-01 0.91385640E+02</pdfrwt>
<pdfrwt beam="1">  1       -1 0.56257709E-03 0.91385640E+02</pdfrwt>
<totfact> 0.14025151E+05</totfact>
</mgrwt>
</event>
<event>
 7    1  0.2787125E-009  0.9217466E+02  0.7818608E-02  0.1297669E+00
          1   -1    0    0  501    0  0.00000000000E+00  0.00000000000E+00  0.15825311358E+02  0.15825312160E+02  0.50400000000E-02 0. -1.
         -1   -1    0    0    0  501 -0.00000000000E+00 -0.00000000000E+00 -0.13421802888E+03  0.13421802897E+03  0.50400000000E-02 0.  1.
         23    2    1    2    0    0  0.00000000000E+00  0.00000000000E+00 -0.11839271752E+03  0.15004334113E+03  0.92174663853E+02 0.  0.
    9000005    2    3    3    0    0  0.23381929356E+02 -0.14039741432E+02 -0.11885543827E+03  0.12276618823E+03  0.14180719546E+02 0.  0.
         22    1    3    3    0    0 -0.23381929356E+02  0.14039741432E+02  0.46272074888E+00  0.27277152901E+02  0.00000000000E+00 0. -1.
         22    1    4    4    0    0  0.41746639608E+01 -0.80070341228E+01 -0.20965646788E+02  0.22827587693E+02  0.00000000000E+00 0. -1.
         22    1    4    4    0    0  0.19207265395E+02 -0.60327073096E+01 -0.97889791480E+02  0.99938600537E+02  0.00000000000E+00 0. -1.
<mgrwt>
<rscale>  0 0.92174664E+02</rscale>
<asrwt>0</asrwt>
<pdfrwt beam="1">  1        1 0.24346634E-02 0.92174664E+02</pdfrwt>
<pdfrwt beam="2">  1       -1 0.20648927E-01 0.92174664E+02</pdfrwt>
<totfact> 0.74557933E+04</totfact>
</mgrwt>
</event>
<event>
 7    1  0.2787125E-009  0.9063799E+02  0.7818608E-02  0.1301314E+00
         -1   -1    0    0    0  501 -0.00000000000E+00  0.00000000000E+00  0.10475370622E+02  0.10475371835E+02  0.50400000000E-02 0.  1.
          1   -1    0    0  501    0  0.00000000000E+00 -0.00000000000E+00 -0.19606095492E+03  0.19606095498E+03  0.50400000000E-02 0. -1.
         23    2    1    2    0    0  0.00000000000E+00  0.17763568394E-14 -0.18558558429E+03  0.20653632682E+03  0.90637989811E+02 0.  0.
    9000005    2    3    3    0    0 -0.35331313174E+02  0.15764089154E+02 -0.14602404193E+03  0.15120167373E+03  0.64897705053E+01 0.  0.
         22    1    3    3    0    0  0.35331313174E+02 -0.15764089154E+02 -0.39561542365E+02  0.55334653082E+02  0.00000000000E+00 0.  1.
         22    1    4    4    0    0 -0.12283742645E+02  0.81117450321E+01 -0.63136453742E+02  0.64829796636E+02  0.00000000000E+00 0.  1.
         22    1    4    4    0    0 -0.23047570529E+02  0.76523441217E+01 -0.82887588187E+02  0.86371877098E+02  0.00000000000E+00 0.  1.
<mgrwt>
<rscale>  0 0.90637990E+02</rscale>
<asrwt>0</asrwt>
<pdfrwt beam="2">  1        1 0.30163221E-01 0.90637990E+02</pdfrwt>
<pdfrwt beam="1">  1       -1 0.16115957E-02 0.90637990E+02</pdfrwt>
<totfact> 0.11983994E+05</totfact>
</mgrwt>
</event>
<event>
 7    1  0.2787125E-009  0.8983865E+02  0.7818608E-02  0.1303243E+00
         -1   -1    0    0    0  501 -0.00000000000E+00  0.00000000000E+00  0.19139611949E+03  0.19139611956E+03  0.50400000000E-02 0.  1.
          1   -1    0    0  501    0  0.00000000000E+00 -0.00000000000E+00 -0.10542249271E+02  0.10542250475E+02  0.50400000000E-02 0. -1.
         23    2    1    2    0    0 -0.71054273576E-14  0.00000000000E+00  0.18085387022E+03  0.20193837003E+03  0.89838649354E+02 0.  0.
    9000005    2    3    3    0    0 -0.39632107257E+02 -0.16349403767E+02  0.70103481265E+02  0.83179557379E+02  0.12897044279E+02 0.  0.
         22    1    3    3    0    0  0.39632107257E+02  0.16349403767E+02  0.11075038896E+03  0.11875881266E+03  0.00000000000E+00 0.  1.
         22    1    4    4    0    0 -0.33007120052E+01 -0.62317656417E+01  0.10639594185E+02  0.12764425846E+02  0.00000000000E+00 0.  1.
         22    1    4    4    0    0 -0.36331395251E+02 -0.10117638126E+02  0.59463887080E+02  0.70415131533E+02  0.00000000000E+00 0.  1.
<mgrwt>
<rscale>  0 0.89838649E+02</rscale>
<asrwt>0</asrwt>
<pdfrwt beam="2">  1        1 0.16218847E-02 0.89838649E+02</pdfrwt>
<pdfrwt beam="1">  1       -1 0.29445556E-01 0.89838649E+02</pdfrwt>
<totfact> 0.73045494E+04</totfact>
</mgrwt>
</event>
<event>
 7    1  0.2787125E-009  0.9217255E+02  0.7818608E-02  0.1297674E+00
         -1   -1    0    0    0  501 -0.00000000000E+00  0.00000000000E+00  0.19451169437E+02  0.19451170090E+02  0.50400000000E-02 0.  1.
          1   -1    0    0  501    0  0.00000000000E+00 -0.00000000000E+00 -0.10919368288E+03  0.10919368300E+03  0.50400000000E-02 0. -1.
         23    2    1    2    0    0 -0.88817841970E-15  0.71054273576E-14 -0.89742513441E+02  0.12864485309E+03  0.92172552892E+02 0.  0.
    9000005    2    3    3    0    0  0.75439461163E+01 -0.44430263092E+02 -0.54371288111E+02  0.71355386490E+02  0.10217377786E+02 0.  0.
         22    1    3    3    0    0 -0.75439461163E+01  0.44430263092E+02 -0.35371225330E+02  0.57289466595E+02  0.00000000000E+00 0.  1.
         22    1    4    4    0    0  0.15361969585E+01 -0.34965327531E+02 -0.41273373709E+02  0.54114927772E+02  0.00000000000E+00 0.  1.
         22    1    4    4    0    0  0.60077491578E+01 -0.94649355606E+01 -0.13097914402E+02  0.17240458718E+02  0.00000000000E+00 0.  1.
<mgrwt>
<rscale>  0 0.92172553E+02</rscale>
<asrwt>0</asrwt>
<pdfrwt beam="2">  1        1 0.16799028E-01 0.92172553E+02</pdfrwt>
<pdfrwt beam="1">  1       -1 0.29924877E-02 0.92172553E+02</pdfrwt>
<totfact> 0.10291701E+05</totfact>
</mgrwt>
</event>
<event>
 7    1  0.2787125E-009  0.8742133E+02  0.7818608E-02  0.1309219E+00
         -1   -1    0    0    0  501 -0.00000000000E+00  0.00000000000E+00  0.57022507462E+01  0.57022529735E+01  0.50400000000E-02 0.  1.
          1   -1    0    0  501    0  0.00000000000E+00 -0.00000000000E+00 -0.33506447252E+03  0.33506447256E+03  0.50400000000E-02 0. -1.
         23    2    1    2    0    0  0.00000000000E+00  0.00000000000E+00 -0.32936222177E+03  0.34076672553E+03  0.87421325188E+02 0.  0.
    9000005    2    3    3    0    0  0.15596079863E+02  0.10973322634E+02 -0.31776576617E+03  0.31844791509E+03  0.83869518444E+01 0.  0.
         22    1    3    3    0    0 -0.15596079863E+02 -0.10973322634E+02 -0.11596455602E+02  0.22318810436E+02  0.00000000000E+00 0.  1.
         22    1    4    4    0    0  0.63662747034E+01 -0.16313387028E+00 -0.96893284257E+02  0.97102340860E+02  0.00000000000E+00 0. -1.
         22    1    4    4    0    0  0.92298051600E+01  0.11136456504E+02 -0.22087248191E+03  0.22134557423E+03  0.00000000000E+00 0. -1.
<mgrwt>
<rscale>  0 0.87421325E+02</rscale>
<asrwt>0</asrwt>
<pdfrwt beam="2">  1        1 0.51548365E-01 0.87421325E+02</pdfrwt>
<pdfrwt beam="1">  1       -1 0.87726978E-03 0.87421325E+02</pdfrwt>
<totfact> 0.14624264E+05</totfact>
</mgrwt>
</event>
<event>
 6    1  0.2787125E-009  0.1718959E+03  0.7818608E-02  0.1175885E+00
         -1   -1    0    0    0  501 -0.00000000000E+00  0.00000000000E+00  0.50986631951E+01  0.50986656861E+01  0.50400000000E-02 0.  1.
          1   -1    0    0  501    0  0.00000000000E+00 -0.00000000000E+00 -0.14488201994E+04  0.14488201994E+04  0.50400000000E-02 0. -1.
    9000005    2    1    2    0    0  0.66865332889E+02  0.44577337990E+02 -0.97344484428E+03  0.97682529065E+03  0.11604818010E+02 0.  0.
         22    1    1    2    0    0 -0.66865332889E+02 -0.44577337990E+02 -0.47027669190E+03  0.47709357441E+03  0.00000000000E+00 0.  1.
         22    1    3    3    0    0  0.56110647511E+02  0.33698698015E+02 -0.82593640717E+03  0.82852577250E+03  0.00000000000E+00 0. -1.
         22    1    3    3    0    0  0.10754685379E+02  0.10878639975E+02 -0.14750843711E+03  0.14829951816E+03  0.00000000000E+00 0. -1.
<mgrwt>
<rscale>  0 0.17189588E+03</rscale>
<asrwt>0</asrwt>
<pdfrwt beam="2">  1        1 0.22289509E+00 0.17189588E+03</pdfrwt>
<pdfrwt beam="1">  1       -1 0.78441107E-03 0.17189588E+03</pdfrwt>
<totfact> 0.20192100E+04</totfact>
</mgrwt>
</event>
<event>
 7    1  0.2787125E-009  0.9080133E+02  0.7818608E-02  0.1300923E+00
         -1   -1    0    0    0  501 -0.00000000000E+00  0.00000000000E+00  0.24058643668E+03  0.24058643673E+03  0.50400000000E-02 0.  1.
          1   -1    0    0  501    0  0.00000000000E+00 -0.00000000000E+00 -0.85674820444E+01  0.85674835268E+01  0.50400000000E-02 0. -1.
         23    2    1    2    0    0  0.00000000000E+00  0.00000000000E+00  0.23201895463E+03  0.24915392026E+03  0.90801325268E+02 0.  0.
    9000005    2    3    3    0    0  0.42791914735E+02  0.10511865196E+02  0.11742669252E+03  0.12638163588E+03  0.15544854236E+02 0.  0.
         22    1    3    3    0    0 -0.42791914735E+02 -0.10511865196E+02  0.11459226211E+03  0.12277228438E+03  0.00000000000E+00 0. -1.
         22    1    4    4    0    0  0.37085660013E+02  0.30123873825E+01  0.96781792526E+02  0.10368768500E+03  0.00000000000E+00 0.  1.
         22    1    4    4    0    0  0.57062547222E+01  0.74994778133E+01  0.20644899996E+02  0.22693950874E+02  0.00000000000E+00 0.  1.
<mgrwt>
<rscale>  0 0.90801325E+02</rscale>
<asrwt>0</asrwt>
<pdfrwt beam="2">  1        1 0.13180742E-02 0.90801325E+02</pdfrwt>
<pdfrwt beam="1">  1       -1 0.37013300E-01 0.90801325E+02</pdfrwt>
<totfact> 0.66310366E+04</totfact>
</mgrwt>
</event>
<event>
 7    1  0.2787125E-009  0.9055371E+02  0.7818608E-02  0.1301516E+00
          1   -1    0    0  501    0  0.00000000000E+00  0.00000000000E+00  0.10755119658E+03  0.10755119670E+03  0.50400000000E-02 0. -1.
         -1   -1    0    0    0  501 -0.00000000000E+00 -0.00000000000E+00 -0.19060627869E+02  0.19060628536E+02  0.50400000000E-02 0.  1.
         23    2    1    2    0    0  0.17763568394E-14  0.00000000000E+00  0.88490568712E+02  0.12661182524E+03  0.90553705272E+02 0.  0.
    9000005    2    3    3    0    0  0.14986472538E+02  0.25087196028E+02 -0.14201296091E+01  0.32071381846E+02  0.13137541693E+02 0.  0.
         22    1    3    3    0    0 -0.14986472538E+02 -0.25087196028E+02  0.89910698321E+02  0.94540443389E+02  0.00000000000E+00 0. -1.
         22    1    4    4    0    0  0.11305681586E+02  0.24022162597E+02 -0.47784341035E+01  0.26976214791E+02  0.00000000000E+00 0. -1.
         22    1    4    4    0    0  0.36807909522E+01  0.10650334308E+01  0.33583044944E+01  0.50951670552E+01  0.00000000000E+00 0. -1.
<mgrwt>
<rscale>  0 0.90553705E+02</rscale>
<asrwt>0</asrwt>
<pdfrwt beam="1">  1        1 0.16546338E-01 0.90553705E+02</pdfrwt>
<pdfrwt beam="2">  1       -1 0.29324044E-02 0.90553705E+02</pdfrwt>
<totfact> 0.10772431E+05</totfact>
</mgrwt>
</event>
<event>
 6    1  0.2787125E-009  0.2680219E+03  0.7818608E-02  0.1102417E+00
          1   -1    0    0  501    0  0.00000000000E+00  0.00000000000E+00  0.33737038198E+03  0.33737038202E+03  0.50400000000E-02 0. -1.
         -1   -1    0    0    0  501 -0.00000000000E+00 -0.00000000000E+00 -0.53232113201E+02  0.53232113440E+02  0.50400000000E-02 0.  1.
    9000005    2    1    2    0    0 -0.74129680738E+02  0.13046982647E+01  0.30468263946E+03  0.31366756860E+03  0.76760016967E+01 0.  0.
         22    1    1    2    0    0  0.74129680738E+02 -0.13046982647E+01 -0.20544370678E+02  0.76934926856E+02  0.00000000000E+00 0.  1.
         22    1    3    3    0    0 -0.13480698749E+01  0.21057621014E+00  0.25695170125E+01  0.29093044539E+01  0.00000000000E+00 0.  1.
         22    1    3    3    0    0 -0.72781610863E+02  0.10941220545E+01  0.30211312244E+03  0.31075826415E+03  0.00000000000E+00 0.  1.
<mgrwt>
<rscale>  0 0.26802193E+03</rscale>
<asrwt>0</asrwt>
<pdfrwt beam="1">  1        1 0.51903135E-01 0.26802193E+03</pdfrwt>
<pdfrwt beam="2">  1       -1 0.81895560E-02 0.26802193E+03</pdfrwt>
<totfact> 0.62164665E+03</totfact>
</mgrwt>
</event>
<event>
 7    1  0.2787125E-009  0.8113221E+02  0.7818608E-02  0.1325869E+00
          1   -1    0    0  501    0  0.00000000000E+00  0.00000000000E+00  0.96095209013E+02  0.96095209145E+02  0.50400000000E-02 0. -1.
         -1   -1    0    0    0  501 -0.00000000000E+00 -0.00000000000E+00 -0.17124773032E+02  0.17124773773E+02  0.50400000000E-02 0.  1.
         23    2    1    2    0    0 -0.35527136788E-14 -0.17763568394E-14  0.78970435981E+02  0.11321998292E+03  0.81132205523E+02 0.  0.
    9000005    2    3    3    0    0 -0.31755937883E+02 -0.11769012829E+02  0.12361270013E+02  0.38495621129E+02  0.13496762427E+02 0.  0.
         22    1    3    3    0    0  0.31755937883E+02  0.11769012829E+02  0.66609165969E+02  0.74724361790E+02  0.00000000000E+00 0. -1.
         22    1    4    4    0    0 -0.31084794872E+01 -0.19157764386E-01  0.61849294953E+01  0.69221647340E+01  0.00000000000E+00 0.  1.
         22    1    4    4    0    0 -0.28647458396E+02 -0.11749855065E+02  0.61763405174E+01  0.31573456395E+02  0.00000000000E+00 0.  1.
<mgrwt>
<rscale>  0 0.81132206E+02</rscale>
<asrwt>0</asrwt>
<pdfrwt beam="1">  1        1 0.14783878E-01 0.81132206E+02</pdfrwt>
<pdfrwt beam="2">  1       -1 0.26345805E-02 0.81132206E+02</pdfrwt>
<totfact> 0.14232036E+05</totfact>
</mgrwt>
</event>
<event>
 7    1  0.2787125E-009  0.8660045E+02  0.7818608E-02  0.1311299E+00
         -1   -1    0    0    0  501 -0.00000000000E+00  0.00000000000E+00  0.64517351295E+01  0.64517370981E+01  0.50400000000E-02 0.  1.
          1   -1    0    0  501    0  0.00000000000E+00 -0.00000000000E+00 -0.29060544749E+03  0.29060544753E+03  0.50400000000E-02 0. -1.
         23    2    1    2    0    0 -0.71054273576E-14  0.00000000000E+00 -0.28415371236E+03  0.29705718463E+03  0.86600454347E+02 0.  0.
    9000005    2    3    3    0    0 -0.38679096302E+02 -0.13660711622E+02 -0.18946498598E+03  0.19386492506E+03  0.19851251330E+01 0.  0.
         22    1    3    3    0    0  0.38679096302E+02  0.13660711622E+02 -0.94688726381E+02  0.10319225958E+03  0.00000000000E+00 0.  1.
         22    1    4    4    0    0 -0.33125324573E+02 -0.12416288927E+02 -0.16372349782E+03  0.16750174655E+03  0.00000000000E+00 0.  1.
         22    1    4    4    0    0 -0.55537717294E+01 -0.12444226955E+01 -0.25741488156E+02  0.26363178503E+02  0.00000000000E+00 0.  1.
<mgrwt>
<rscale>  0 0.86600454E+02</rscale>
<asrwt>0</asrwt>
<pdfrwt beam="2">  1        1 0.44708520E-01 0.86600454E+02</pdfrwt>
<pdfrwt beam="1">  1       -1 0.99257502E-03 0.86600454E+02</pdfrwt>
<totfact> 0.14601735E+05</totfact>
</mgrwt>
</event>
<event>
 7    1  0.2787125E-009  0.9162184E+02  0.7818608E-02  0.1298971E+00
         -1   -1    0    0    0  501 -0.00000000000E+00  0.00000000000E+00  0.24856713653E+02  0.24856714164E+02  0.50400000000E-02 0.  1.
          1   -1    0    0  501    0  0.00000000000E+00 -0.00000000000E+00 -0.84429516746E+02  0.84429516897E+02  0.50400000000E-02 0. -1.
         23    2    1    2    0    0  0.17763568394E-14  0.00000000000E+00 -0.59572803094E+02  0.10928623106E+03  0.91621839268E+02 0.  0.
    9000005    2    3    3    0    0 -0.11583062186E+02  0.23392802600E+02  0.13559635947E+02  0.31634803623E+02  0.11640727217E+02 0.  0.
         22    1    3    3    0    0  0.11583062186E+02 -0.23392802600E+02 -0.73132439040E+02  0.77651427437E+02  0.00000000000E+00 0. -1.
         22    1    4    4    0    0 -0.51472066895E+01  0.58131334535E+01 -0.11202283177E+01  0.78448179543E+01  0.00000000000E+00 0. -1.
         22    1    4    4    0    0 -0.64358554965E+01  0.17579669147E+02  0.14679864264E+02  0.23789985668E+02  0.00000000000E+00 0. -1.
<mgrwt>
<rscale>  0 0.91621839E+02</rscale>
<asrwt>0</asrwt>
<pdfrwt beam="2">  1        1 0.12989156E-01 0.91621839E+02</pdfrwt>
<pdfrwt beam="1">  1       -1 0.38241099E-02 0.91621839E+02</pdfrwt>
<totfact> 0.10026147E+05</totfact>
</mgrwt>
</event>
<event>
 7    1  0.2787125E-009  0.9098546E+02  0.7818608E-02  0.1300483E+00
          1   -1    0    0  501    0  0.00000000000E+00  0.00000000000E+00  0.36995224409E+01  0.36995258740E+01  0.50400000000E-02 0. -1.
         -1   -1    0    0    0  501 -0.00000000000E+00 -0.00000000000E+00 -0.55942018045E+03  0.55942018047E+03  0.50400000000E-02 0.  1.
         23    2    1    2    0    0  0.00000000000E+00  0.00000000000E+00 -0.55572065800E+03  0.56311970634E+03  0.90985460035E+02 0.  0.
    9000005    2    3    3    0    0  0.40718989210E+02  0.17334061774E+02 -0.32939985108E+03  0.33251265219E+03  0.10094364367E+02 0.  0.
         22    1    3    3    0    0 -0.40718989210E+02 -0.17334061774E+02 -0.22632080692E+03  0.23060705416E+03  0.00000000000E+00 0.  1.
         22    1    4    4    0    0  0.73088322457E+01 -0.64975383756E+00 -0.45334901940E+02  0.45924879344E+02  0.00000000000E+00 0. -1.
         22    1    4    4    0    0  0.33410156964E+02  0.17983815611E+02 -0.28406494914E+03  0.28658777284E+03  0.00000000000E+00 0. -1.
<mgrwt>
<rscale>  0 0.90985460E+02</rscale>
<asrwt>0</asrwt>
<pdfrwt beam="1">  1        1 0.56915801E-03 0.90985460E+02</pdfrwt>
<pdfrwt beam="2">  1       -1 0.86064576E-01 0.90985460E+02</pdfrwt>
<totfact> 0.43972435E+04</totfact>
</mgrwt>
</event>
<event>
 7    1  0.2787125E-009  0.9133522E+02  0.7818608E-02  0.1299650E+00
         -1   -1    0    0    0  501 -0.00000000000E+00  0.00000000000E+00  0.26691997025E+02  0.26691997501E+02  0.50400000000E-02 0.  1.
          1   -1    0    0  501    0  0.00000000000E+00 -0.00000000000E+00 -0.78133182789E+02  0.78133182951E+02  0.50400000000E-02 0. -1.
         23    2    1    2    0    0  0.00000000000E+00  0.00000000000E+00 -0.51441185763E+02  0.10482518045E+03  0.91335222473E+02 0.  0.
    9000005    2    3    3    0    0  0.21191872417E+02 -0.17705040208E+02 -0.67406715155E+02  0.72927499752E+02  0.34915708128E+01 0.  0.
         22    1    3    3    0    0 -0.21191872417E+02  0.17705040208E+02  0.15965529392E+02  0.31897680700E+02  0.00000000000E+00 0.  1.
         22    1    4    4    0    0  0.15984413494E+02 -0.15067346769E+02 -0.51819850527E+02  0.56283419602E+02  0.00000000000E+00 0. -1.
         22    1    4    4    0    0  0.52074589232E+01 -0.26376934390E+01 -0.15586864628E+02  0.16644080150E+02  0.00000000000E+00 0. -1.
<mgrwt>
<rscale>  0 0.91335222E+02</rscale>
<asrwt>0</asrwt>
<pdfrwt beam="2">  1        1 0.12020490E-01 0.91335222E+02</pdfrwt>
<pdfrwt beam="1">  1       -1 0.41064612E-02 0.91335222E+02</pdfrwt>
<totfact> 0.99892372E+04</totfact>
</mgrwt>
</event>
<event>
 7    1  0.2787125E-009  0.1013098E+03  0.7818608E-02  0.1277565E+00
         -1   -1    0    0    0  501 -0.00000000000E+00  0.00000000000E+00  0.21431739137E+02  0.21431739730E+02  0.50400000000E-02 0.  1.
          1   -1    0    0  501    0  0.00000000000E+00 -0.00000000000E+00 -0.11972527072E+03  0.11972527083E+03  0.50400000000E-02 0. -1.
         23    2    1    2    0    0 -0.17763568394E-14  0.00000000000E+00 -0.98293531585E+02  0.14115701056E+03  0.10130983801E+03 0.  0.
    9000005    2    3    3    0    0 -0.10410888752E+02 -0.46429606373E+02 -0.72176664436E+02  0.86878232917E+02  0.86175119967E+01 0.  0.
         22    1    3    3    0    0  0.10410888752E+02  0.46429606373E+02 -0.26116867149E+02  0.54278777642E+02  0.00000000000E+00 0.  1.
         22    1    4    4    0    0  0.12043752615E+00 -0.14366942072E+02 -0.25666653547E+02  0.29414293022E+02  0.00000000000E+00 0. -1.
         22    1    4    4    0    0 -0.10531326279E+02 -0.32062664302E+02 -0.46510010889E+02  0.57463939895E+02  0.00000000000E+00 0. -1.
<mgrwt>
<rscale>  0 0.10130984E+03</rscale>
<asrwt>0</asrwt>
<pdfrwt beam="2">  1        1 0.18419272E-01 0.10130984E+03</pdfrwt>
<pdfrwt beam="1">  1       -1 0.32971907E-02 0.10130984E+03</pdfrwt>
<totfact> 0.80752819E+04</totfact>
</mgrwt>
</event>
<event>
 7    1  0.2787125E-009  0.9103161E+02  0.7818608E-02  0.1300373E+00
         -1   -1    0    0    0  501 -0.00000000000E+00  0.00000000000E+00  0.45271673170E+02  0.45271673451E+02  0.50400000000E-02 0.  1.
          1   -1    0    0  501    0  0.00000000000E+00 -0.00000000000E+00 -0.45761253048E+02  0.45761253326E+02  0.50400000000E-02 0. -1.
         23    2    1    2    0    0 -0.11102230246E-15  0.00000000000E+00 -0.48957987757E+00  0.91032926776E+02  0.91031610274E+02 0.  0.
    9000005    2    3    3    0    0 -0.66099549978E+00 -0.24440920432E+02  0.37665557510E+02  0.45716152667E+02  0.85718659314E+01 0.  0.
         22    1    3    3    0    0  0.66099549978E+00  0.24440920432E+02 -0.38155137387E+02  0.45316774109E+02  0.00000000000E+00 0. -1.
         22    1    4    4    0    0  0.11956025440E+01 -0.79442615939E+01  0.19594194994E+02  0.21177186669E+02  0.00000000000E+00 0. -1.
         22    1    4    4    0    0 -0.18565980438E+01 -0.16496658838E+02  0.18071362515E+02  0.24538965999E+02  0.00000000000E+00 0. -1.
<mgrwt>
<rscale>  0 0.91031610E+02</rscale>
<asrwt>0</asrwt>
<pdfrwt beam="2">  1        1 0.70401928E-02 0.91031610E+02</pdfrwt>
<pdfrwt beam="1">  1       -1 0.69648729E-02 0.91031610E+02</pdfrwt>
<totfact> 0.92940144E+04</totfact>
</mgrwt>
</event>
<event>
 7    1  0.2787125E-009  0.9110664E+02  0.7818608E-02  0.1300194E+00
          1   -1    0    0  501    0  0.00000000000E+00  0.00000000000E+00  0.27818802843E+03  0.27818802848E+03  0.50400000000E-02 0. -1.
         -1   -1    0    0    0  501 -0.00000000000E+00 -0.00000000000E+00 -0.74593596172E+01  0.74593613198E+01  0.50400000000E-02 0.  1.
         23    2    1    2    0    0  0.00000000000E+00  0.00000000000E+00  0.27072866881E+03  0.28564738980E+03  0.91106636311E+02 0.  0.
    9000005    2    3    3    0    0  0.36010116919E+02 -0.79542312567E+01  0.59043893229E+02  0.70774305093E+02  0.12760196643E+02 0.  0.
         22    1    3    3    0    0 -0.36010116919E+02  0.79542312567E+01  0.21168477558E+03  0.21487308470E+03  0.00000000000E+00 0. -1.
         22    1    4    4    0    0  0.32334247064E+02 -0.10856725502E+02  0.54178075143E+02  0.64020589251E+02  0.00000000000E+00 0. -1.
         22    1    4    4    0    0  0.36758698551E+01  0.29024942450E+01  0.48658180859E+01  0.67537158423E+01  0.00000000000E+00 0. -1.
<mgrwt>
<rscale>  0 0.91106636E+02</rscale>
<asrwt>0</asrwt>
<pdfrwt beam="1">  1        1 0.42798162E-01 0.91106636E+02</pdfrwt>
<pdfrwt beam="2">  1       -1 0.11475938E-02 0.91106636E+02</pdfrwt>
<totfact> 0.12653389E+05</totfact>
</mgrwt>
</event>
<event>
 7    1  0.2787125E-009  0.8767301E+02  0.7818608E-02  0.1308587E+00
          1   -1    0    0  501    0  0.00000000000E+00  0.00000000000E+00  0.28359371276E+02  0.28359371724E+02  0.50400000000E-02 0. -1.
         -1   -1    0    0    0  501 -0.00000000000E+00 -0.00000000000E+00 -0.67760288256E+02  0.67760288444E+02  0.50400000000E-02 0.  1.
         23    2    1    2    0    0  0.00000000000E+00  0.17763568394E-14 -0.39400916980E+02  0.96119660167E+02  0.87673010738E+02 0.  0.
    9000005    2    3    3    0    0 -0.14723663337E+02  0.12603503507E+02 -0.62658552654E+02  0.65845047373E+02  0.58173430455E+01 0.  0.
         22    1    3    3    0    0  0.14723663337E+02 -0.12603503507E+02  0.23257635674E+02  0.30274612795E+02  0.00000000000E+00 0. -1.
         22    1    4    4    0    0 -0.76318704878E+01  0.85720320043E+01 -0.44170894683E+02  0.45637628301E+02  0.00000000000E+00 0. -1.
         22    1    4    4    0    0 -0.70917928497E+01  0.40314715023E+01 -0.18487657971E+02  0.20207419072E+02  0.00000000000E+00 0. -1.
<mgrwt>
<rscale>  0 0.87673011E+02</rscale>
<asrwt>0</asrwt>
<pdfrwt beam="1">  1        1 0.43629803E-02 0.87673011E+02</pdfrwt>
<pdfrwt beam="2">  1       -1 0.10424660E-01 0.87673011E+02</pdfrwt>
<totfact> 0.96111386E+04</totfact>
</mgrwt>
</event>
<event>
 7    1  0.2787125E-009  0.1182711E+03  0.7818608E-02  0.1245977E+00
         -1   -1    0    0    0  501 -0.00000000000E+00  0.00000000000E+00  0.71207318523E+02  0.71207318701E+02  0.50400000000E-02 0.  1.
          1   -1    0    0  501    0  0.00000000000E+00 -0.00000000000E+00 -0.49110270759E+02  0.49110271018E+02  0.50400000000E-02 0. -1.
         23    2    1    2    0    0  0.71054273576E-14  0.35527136788E-14  0.22097047764E+02  0.12031758972E+03  0.11827105680E+03 0.  0.
    9000005    2    3    3    0    0  0.32686697690E+02  0.22816609111E+02  0.55154900630E+02  0.68531109887E+02  0.80890111618E+01 0.  0.
         22    1    3    3    0    0 -0.32686697690E+02 -0.22816609111E+02 -0.33057852867E+02  0.51786479832E+02  0.00000000000E+00 0. -1.
         22    1    4    4    0    0  0.69335980166E+01  0.11677324349E+01  0.95630779335E+01  0.11869744734E+02  0.00000000000E+00 0.  1.
         22    1    4    4    0    0  0.25753099673E+02  0.21648876677E+02  0.45591822697E+02  0.56661365153E+02  0.00000000000E+00 0.  1.
<mgrwt>
<rscale>  0 0.11827106E+03</rscale>
<asrwt>0</asrwt>
<pdfrwt beam="2">  1        1 0.75554263E-02 0.11827106E+03</pdfrwt>
<pdfrwt beam="1">  1       -1 0.10954972E-01 0.11827106E+03</pdfrwt>
<totfact> 0.44414420E+04</totfact>
</mgrwt>
</event>
<event>
 7    1  0.2787125E-009  0.9013433E+02  0.7818608E-02  0.1302527E+00
          1   -1    0    0  501    0  0.00000000000E+00  0.00000000000E+00  0.27623989422E+02  0.27623989882E+02  0.50400000000E-02 0. -1.
         -1   -1    0    0    0  501 -0.00000000000E+00 -0.00000000000E+00 -0.73524840770E+02  0.73524840943E+02  0.50400000000E-02 0.  1.
         23    2    1    2    0    0  0.71054273576E-14  0.00000000000E+00 -0.45900851349E+02  0.10114883082E+03  0.90134332098E+02 0.  0.
    9000005    2    3    3    0    0 -0.41312254805E+02  0.10519212727E+02 -0.38944508381E+02  0.57954537904E+02  0.49696576483E+01 0.  0.
         22    1    3    3    0    0  0.41312254805E+02 -0.10519212727E+02 -0.69563429674E+01  0.43194292921E+02  0.00000000000E+00 0. -1.
         22    1    4    4    0    0 -0.19750103565E+02  0.32023577214E+01 -0.20568239214E+02  0.28694496862E+02  0.00000000000E+00 0.  1.
         22    1    4    4    0    0 -0.21562151240E+02  0.73168550060E+01 -0.18376269168E+02  0.29260041042E+02  0.00000000000E+00 0.  1.
<mgrwt>
<rscale>  0 0.90134332E+02</rscale>
<asrwt>0</asrwt>
<pdfrwt beam="1">  1        1 0.42498446E-02 0.90134332E+02</pdfrwt>
<pdfrwt beam="2">  1       -1 0.11311514E-01 0.90134332E+02</pdfrwt>
<totfact> 0.88405195E+04</totfact>
</mgrwt>
</event>
<event>
 7    1  0.2787125E-009  0.9684445E+02  0.7818608E-02  0.1287075E+00
          1   -1    0    0  501    0  0.00000000000E+00  0.00000000000E+00  0.87880167136E+02  0.87880167280E+02  0.50400000000E-02 0. -1.
         -1   -1    0    0    0  501 -0.00000000000E+00 -0.00000000000E+00 -0.26680784276E+02  0.26680784752E+02  0.50400000000E-02 0.  1.
         23    2    1    2    0    0  0.00000000000E+00 -0.35527136788E-14  0.61199382860E+02  0.11456095203E+03  0.96844448824E+02 0.  0.
    9000005    2    3    3    0    0 -0.30270378568E+01  0.24123619912E+02  0.79639165029E+02  0.84046405300E+02  0.11414448801E+02 0.  0.
         22    1    3    3    0    0  0.30270378568E+01 -0.24123619912E+02 -0.18439782169E+02  0.30514546732E+02  0.00000000000E+00 0.  1.
         22    1    4    4    0    0 -0.67784040727E+01  0.20471405872E+02  0.61766590542E+02  0.65422755425E+02  0.00000000000E+00 0. -1.
         22    1    4    4    0    0  0.37513662159E+01  0.36522140401E+01  0.17872574487E+02  0.18623649875E+02  0.00000000000E+00 0. -1.
<mgrwt>
<rscale>  0 0.96844449E+02</rscale>
<asrwt>0</asrwt>
<pdfrwt beam="1">  1        1 0.13520026E-01 0.96844449E+02</pdfrwt>
<pdfrwt beam="2">  1       -1 0.41047361E-02 0.96844449E+02</pdfrwt>
<totfact> 0.86638124E+04</totfact>
</mgrwt>
</event>
<event>
 6    1  0.2787125E-009  0.1932417E+03  0.7818608E-02  0.1155570E+00
         -1   -1    0    0    0  501 -0.00000000000E+00  0.00000000000E+00  0.52533572630E+01  0.52533596807E+01  0.50400000000E-02 0.  1.
          1   -1    0    0  501    0  0.00000000000E+00 -0.00000000000E+00 -0.17770704819E+04  0.17770704819E+04  0.50400000000E-02 0. -1.
    9000005    2    1    2    0    0  0.26914315534E+02  0.18783850508E+02 -0.17239291857E+04  0.17242681088E+04  0.95634759486E+01 0.  0.
         22    1    1    2    0    0 -0.26914315534E+02 -0.18783850508E+02 -0.47887938893E+02  0.58055732809E+02  0.00000000000E+00 0.  1.
         22    1    3    3    0    0  0.17576439708E+01 -0.11396194653E+01 -0.10329354388E+03  0.10331478235E+03  0.00000000000E+00 0.  1.
         22    1    3    3    0    0  0.25156671563E+02  0.19923469973E+02 -0.16206356419E+04  0.16209533264E+04  0.00000000000E+00 0.  1.
<mgrwt>
<rscale>  0 0.19324170E+03</rscale>
<asrwt>0</asrwt>
<pdfrwt beam="2">  1        1 0.27339498E+00 0.19324170E+03</pdfrwt>
<pdfrwt beam="1">  1       -1 0.80821041E-03 0.19324170E+03</pdfrwt>
<totfact> 0.11912976E+04</totfact>
</mgrwt>
</event>
<event>
 7    1  0.2787125E-009  0.9123113E+02  0.7818608E-02  0.1299897E+00
          1   -1    0    0  501    0  0.00000000000E+00  0.00000000000E+00  0.17643488852E+03  0.17643488859E+03  0.50400000000E-02 0. -1.
         -1   -1    0    0    0  501 -0.00000000000E+00 -0.00000000000E+00 -0.11793470115E+02  0.11793471192E+02  0.50400000000E-02 0.  1.
         23    2    1    2    0    0  0.00000000000E+00  0.00000000000E+00  0.16464141840E+03  0.18822835978E+03  0.91231128309E+02 0.  0.
    9000005    2    3    3    0    0 -0.32683535527E+01 -0.37653041166E+02  0.30454908103E+02  0.48820852128E+02  0.52479072922E+01 0.  0.
         22    1    3    3    0    0  0.32683535527E+01  0.37653041166E+02  0.13418651030E+03  0.13940750765E+03  0.00000000000E+00 0. -1.
         22    1    4    4    0    0 -0.12341112426E+00 -0.12004013273E+02  0.12651510789E+02  0.17440535835E+02  0.00000000000E+00 0.  1.
         22    1    4    4    0    0 -0.31449424284E+01 -0.25649027892E+02  0.17803397313E+02  0.31380316292E+02  0.00000000000E+00 0.  1.
<mgrwt>
<rscale>  0 0.91231128E+02</rscale>
<asrwt>0</asrwt>
<pdfrwt beam="1">  1        1 0.27143826E-01 0.91231128E+02</pdfrwt>
<pdfrwt beam="2">  1       -1 0.18143803E-02 0.91231128E+02</pdfrwt>
<totfact> 0.11539900E+05</totfact>
</mgrwt>
</event>
<event>
 7    1  0.2787125E-009  0.9431362E+02  0.7818608E-02  0.1292730E+00
          1   -1    0    0  501    0  0.00000000000E+00  0.00000000000E+00  0.50185535360E+03  0.50185535362E+03  0.50400000000E-02 0. -1.
         -1   -1    0    0    0  501 -0.00000000000E+00 -0.00000000000E+00 -0.44310852268E+01  0.44310880931E+01  0.50400000000E-02 0.  1.
         23    2    1    2    0    0  0.00000000000E+00  0.00000000000E+00  0.49742426837E+03  0.50628644172E+03  0.94313616732E+02 0.  0.
    9000005    2    3    3    0    0 -0.34850828869E+02  0.22933486719E+02  0.36647675968E+03  0.36885363953E+03  0.26957223098E+01 0.  0.
         22    1    3    3    0    0  0.34850828869E+02 -0.22933486719E+02  0.13094750869E+03  0.13743280219E+03  0.00000000000E+00 0.  1.
         22    1    4    4    0    0 -0.25226783357E+02  0.16160283305E+02  0.25261322732E+03  0.25438354501E+03  0.00000000000E+00 0. -1.
         22    1    4    4    0    0 -0.96240455117E+01  0.67732034138E+01  0.11386353236E+03  0.11447009452E+03  0.00000000000E+00 0. -1.
<mgrwt>
<rscale>  0 0.94313617E+02</rscale>
<asrwt>0</asrwt>
<pdfrwt beam="1">  1        1 0.77208529E-01 0.94313617E+02</pdfrwt>
<pdfrwt beam="2">  1       -1 0.68170553E-03 0.94313617E+02</pdfrwt>
<totfact> 0.12735811E+05</totfact>
</mgrwt>
</event>
<event>
 7    1  0.2787125E-009  0.9178084E+02  0.7818608E-02  0.1298596E+00
         -1   -1    0    0    0  501 -0.00000000000E+00  0.00000000000E+00  0.15546169003E+03  0.15546169011E+03  0.50400000000E-02 0. -1.
          1   -1    0    0  501    0  0.00000000000E+00 -0.00000000000E+00 -0.13546299753E+02  0.13546300690E+02  0.50400000000E-02 0.  1.
         23    2    1    2    0    0  0.71054273576E-14  0.22204460493E-15  0.14191539027E+03  0.16900799080E+03  0.91780841994E+02 0.  0.
    9000005    2    3    3    0    0  0.42794296695E+02  0.19918728660E+01  0.95850106110E+02  0.10610067968E+03  0.15322924006E+02 0.  0.
         22    1    3    3    0    0 -0.42794296695E+02 -0.19918728660E+01  0.46065284164E+02  0.62907311119E+02  0.00000000000E+00 0. -1.
         22    1    4    4    0    0  0.42904103185E+02  0.13501523141E+01  0.84931941216E+02  0.95163121114E+02  0.00000000000E+00 0. -1.
         22    1    4    4    0    0 -0.10980649049E+00  0.64172055189E+00  0.10918164894E+02  0.10937558566E+02  0.00000000000E+00 0. -1.
<mgrwt>
<rscale>  0 0.91780842E+02</rscale>
<asrwt>0</asrwt>
<pdfrwt beam="2">  1        1 0.20840462E-02 0.91780842E+02</pdfrwt>
<pdfrwt beam="1">  1       -1 0.23917183E-01 0.91780842E+02</pdfrwt>
<totfact> 0.72895558E+04</totfact>
</mgrwt>
</event>
<event>
 7    1  0.2787125E-009  0.9201991E+02  0.7818608E-02  0.1298033E+00
          1   -1    0    0  501    0  0.00000000000E+00  0.00000000000E+00  0.96665709802E+01  0.96665722941E+01  0.50400000000E-02 0. -1.
         -1   -1    0    0    0  501 -0.00000000000E+00 -0.00000000000E+00 -0.21899344579E+03  0.21899344585E+03  0.50400000000E-02 0.  1.
         23    2    1    2    0    0  0.00000000000E+00  0.00000000000E+00 -0.20932687481E+03  0.22866001814E+03  0.92019907515E+02 0.  0.
    9000005    2    3    3    0    0  0.25812744652E+02 -0.31617629847E+02 -0.15698716715E+03  0.16228670045E+03  0.51019789757E+01 0.  0.
         22    1    3    3    0    0 -0.25812744652E+02  0.31617629847E+02 -0.52339707659E+02  0.66373317692E+02  0.00000000000E+00 0.  1.
         22    1    4    4    0    0  0.13999306479E+02 -0.21055857448E+02 -0.95617458478E+02  0.98904135811E+02  0.00000000000E+00 0. -1.
         22    1    4    4    0    0  0.11813438173E+02 -0.10561772399E+02 -0.61369708673E+02  0.63382564640E+02  0.00000000000E+00 0. -1.
<mgrwt>
<rscale>  0 0.92019908E+02</rscale>
<asrwt>0</asrwt>
<pdfrwt beam="1">  1        1 0.14871650E-02 0.92019908E+02</pdfrwt>
<pdfrwt beam="2">  1       -1 0.33691296E-01 0.92019908E+02</pdfrwt>
<totfact> 0.65981318E+04</totfact>
</mgrwt>
</event>
<event>
 7    1  0.2787125E-009  0.9050141E+02  0.7818608E-02  0.1301642E+00
         -1   -1    0    0    0  501 -0.00000000000E+00  0.00000000000E+00  0.43340130040E+01  0.43340159345E+01  0.50400000000E-02 0.  1.
          1   -1    0    0  501    0  0.00000000000E+00 -0.00000000000E+00 -0.47245490800E+03  0.47245490803E+03  0.50400000000E-02 0. -1.
         23    2    1    2    0    0  0.00000000000E+00  0.00000000000E+00 -0.46812089499E+03  0.47678892396E+03  0.90501412588E+02 0.  0.
    9000005    2    3    3    0    0  0.38587922727E+02 -0.93153125409E+01 -0.34721209542E+03  0.34953036573E+03  0.62796921341E+01 0.  0.
         22    1    3    3    0    0 -0.38587922727E+02  0.93153125409E+01 -0.12090879957E+03  0.12725855823E+03  0.00000000000E+00 0.  1.
         22    1    4    4    0    0  0.28781979389E+02 -0.47687229191E+01 -0.23677494348E+03  0.23856554009E+03  0.00000000000E+00 0.  1.
         22    1    4    4    0    0  0.98059433386E+01 -0.45465896218E+01 -0.11043715194E+03  0.11096482565E+03  0.00000000000E+00 0.  1.
<mgrwt>
<rscale>  0 0.90501413E+02</rscale>
<asrwt>0</asrwt>
<pdfrwt beam="2">  1        1 0.72685330E-01 0.90501413E+02</pdfrwt>
<pdfrwt beam="1">  1       -1 0.66677183E-03 0.90501413E+02</pdfrwt>
<totfact> 0.14103177E+05</totfact>
</mgrwt>
</event>
<event>
 7    1  0.2787125E-009  0.9107893E+02  0.7818608E-02  0.1300260E+00
          1   -1    0    0  501    0  0.00000000000E+00  0.00000000000E+00  0.42834293766E+01  0.42834323417E+01  0.50400000000E-02 0. -1.
         -1   -1    0    0    0  501 -0.00000000000E+00 -0.00000000000E+00 -0.48415462323E+03  0.48415462325E+03  0.50400000000E-02 0.  1.
         23    2    1    2    0    0 -0.35527136788E-14 -0.71054273576E-14 -0.47987119385E+03  0.48843805559E+03  0.91078929868E+02 0.  0.
    9000005    2    3    3    0    0  0.14702895318E+02  0.34527883992E+02 -0.37362201876E+03  0.37575603790E+03  0.13814384337E+02 0.  0.
         22    1    3    3    0    0 -0.14702895318E+02 -0.34527883992E+02 -0.10624917509E+03  0.11268201769E+03  0.00000000000E+00 0. -1.
         22    1    4    4    0    0  0.41351741748E+01  0.25881620655E+02 -0.25942071314E+03  0.26074137447E+03  0.00000000000E+00 0.  1.
         22    1    4    4    0    0  0.10567721144E+02  0.86462633370E+01 -0.11420130562E+03  0.11501466343E+03  0.00000000000E+00 0.  1.
<mgrwt>
<rscale>  0 0.91078930E+02</rscale>
<asrwt>0</asrwt>
<pdfrwt beam="1">  1        1 0.65898975E-03 0.91078930E+02</pdfrwt>
<pdfrwt beam="2">  1       -1 0.74485283E-01 0.91078930E+02</pdfrwt>
<totfact> 0.48108083E+04</totfact>
</mgrwt>
</event>
<event>
 7    1  0.2787125E-009  0.9261611E+02  0.7818608E-02  0.1296637E+00
          1   -1    0    0  501    0  0.00000000000E+00  0.00000000000E+00  0.38891200069E+01  0.38891232726E+01  0.50400000000E-02 0. -1.
         -1   -1    0    0    0  501 -0.00000000000E+00 -0.00000000000E+00 -0.55139340678E+03  0.55139340680E+03  0.50400000000E-02 0.  1.
         23    2    1    2    0    0 -0.35527136788E-14  0.00000000000E+00 -0.54750428677E+03  0.55528253008E+03  0.92616111840E+02 0.  0.
    9000005    2    3    3    0    0  0.17132350085E+02  0.16268081007E+02 -0.51217545504E+03  0.51278200972E+03  0.79702487483E+01 0.  0.
         22    1    3    3    0    0 -0.17132350085E+02 -0.16268081007E+02 -0.35328831731E+02  0.42500520356E+02  0.00000000000E+00 0. -1.
         22    1    4    4    0    0  0.72191220057E+01  0.10056994208E+02 -0.19627871683E+03  0.19666874062E+03  0.00000000000E+00 0.  1.
         22    1    4    4    0    0  0.99132280789E+01  0.62110867996E+01 -0.31589673821E+03  0.31611326910E+03  0.00000000000E+00 0.  1.
<mgrwt>
<rscale>  0 0.92616112E+02</rscale>
<asrwt>0</asrwt>
<pdfrwt beam="1">  1        1 0.59832684E-03 0.92616112E+02</pdfrwt>
<pdfrwt beam="2">  1       -1 0.84829693E-01 0.92616112E+02</pdfrwt>
<totfact> 0.42382754E+04</totfact>
</mgrwt>
</event>
<event>
 6    1  0.2787125E-009  0.1314006E+03  0.7818608E-02  0.1225392E+00
          1   -1    0    0  501    0  0.00000000000E+00  0.00000000000E+00  0.32131420164E+02  0.32131420560E+02  0.50400000000E-02 0. -1.
         -1   -1    0    0    0  501 -0.00000000000E+00 -0.00000000000E+00 -0.13433986379E+03  0.13433986389E+03  0.50400000000E-02 0.  1.
    9000005    2    1    2    0    0  0.43191938186E+02 -0.47930662057E+02 -0.59564237112E+02  0.89131642355E+02  0.15285922830E+02 0.  0.
         22    1    1    2    0    0 -0.43191938186E+02  0.47930662057E+02 -0.42644206517E+02  0.77339642092E+02  0.00000000000E+00 0.  1.
         22    1    3    3    0    0  0.43256688532E+02 -0.48486860256E+02 -0.59983955715E+02  0.88431847564E+02  0.00000000000E+00 0.  1.
         22    1    3    3    0    0 -0.64750346174E-01  0.55619819928E+00  0.41971860355E+00  0.69979479162E+00  0.00000000000E+00 0.  1.
<mgrwt>
<rscale>  0 0.13140062E+03</rscale>
<asrwt>0</asrwt>
<pdfrwt beam="1">  1        1 0.49432955E-02 0.13140062E+03</pdfrwt>
<pdfrwt beam="2">  1       -1 0.20667671E-01 0.13140062E+03</pdfrwt>
<totfact> 0.29569924E+04</totfact>
</mgrwt>
</event>
<event>
 7    1  0.2787125E-009  0.1099924E+03  0.7818608E-02  0.1260584E+00
         -1   -1    0    0    0  501 -0.00000000000E+00  0.00000000000E+00  0.39308475207E+02  0.39308475530E+02  0.50400000000E-02 0.  1.
          1   -1    0    0  501    0  0.00000000000E+00 -0.00000000000E+00 -0.76944790435E+02  0.76944790600E+02  0.50400000000E-02 0. -1.
         23    2    1    2    0    0  0.00000000000E+00  0.00000000000E+00 -0.37636315228E+02  0.11625326613E+03  0.10999240729E+03 0.  0.
    9000005    2    3    3    0    0  0.18494436392E+02 -0.33077719749E+02  0.22960537915E+02  0.44781884920E+02  0.64846892264E+01 0.  0.
         22    1    3    3    0    0 -0.18494436392E+02  0.33077719749E+02 -0.60596853143E+02  0.71471381210E+02  0.00000000000E+00 0. -1.
         22    1    4    4    0    0  0.56954959895E+01 -0.13946921775E+02  0.61154897257E+01  0.16258982630E+02  0.00000000000E+00 0.  1.
         22    1    4    4    0    0  0.12798940402E+02 -0.19130797974E+02  0.16845048189E+02  0.28522902290E+02  0.00000000000E+00 0.  1.
<mgrwt>
<rscale>  0 0.10999241E+03</rscale>
<asrwt>0</asrwt>
<pdfrwt beam="2">  1        1 0.11837660E-01 0.10999241E+03</pdfrwt>
<pdfrwt beam="1">  1       -1 0.60474578E-02 0.10999241E+03</pdfrwt>
<totfact> 0.59358563E+04</totfact>
</mgrwt>
</event>
<event>
 7    1  0.2787125E-009  0.9118597E+02  0.7818608E-02  0.1300005E+00
         -1   -1    0    0    0  501 -0.00000000000E+00  0.00000000000E+00  0.16576872658E+03  0.16576872666E+03  0.50400000000E-02 0.  1.
          1   -1    0    0  501    0  0.00000000000E+00 -0.00000000000E+00 -0.12539882505E+02  0.12539883518E+02  0.50400000000E-02 0. -1.
         23    2    1    2    0    0  0.00000000000E+00  0.00000000000E+00  0.15322884408E+03  0.17830861018E+03  0.91185973734E+02 0.  0.
    9000005    2    3    3    0    0  0.21905655165E+02 -0.37532146981E+02  0.55441882495E+02  0.71300154246E+02  0.11017707368E+02 0.  0.
         22    1    3    3    0    0 -0.21905655165E+02  0.37532146981E+02  0.97786961583E+02  0.10700845593E+03  0.00000000000E+00 0. -1.
         22    1    4    4    0    0  0.15850844848E+02 -0.34475083331E+02  0.48695307045E+02  0.61733407336E+02  0.00000000000E+00 0.  1.
         22    1    4    4    0    0  0.60548103170E+01 -0.30570636501E+01  0.67465754499E+01  0.95667469098E+01  0.00000000000E+00 0.  1.
<mgrwt>
<rscale>  0 0.91185974E+02</rscale>
<asrwt>0</asrwt>
<pdfrwt beam="2">  1        1 0.19292128E-02 0.91185974E+02</pdfrwt>
<pdfrwt beam="1">  1       -1 0.25502880E-01 0.91185974E+02</pdfrwt>
<totfact> 0.72982133E+04</totfact>
</mgrwt>
</event>
<event>
 7    1  0.2787125E-009  0.9210036E+02  0.7818608E-02  0.1297844E+00
         -1   -1    0    0    0  501 -0.00000000000E+00  0.00000000000E+00  0.10812533932E+02  0.10812535107E+02  0.50400000000E-02 0.  1.
          1   -1    0    0  501    0  0.00000000000E+00 -0.00000000000E+00 -0.19612597196E+03  0.19612597202E+03  0.50400000000E-02 0. -1.
         23    2    1    2    0    0  0.00000000000E+00  0.00000000000E+00 -0.18531343803E+03  0.20693850713E+03  0.92100355158E+02 0.  0.
    9000005    2    3    3    0    0 -0.43801279778E+01 -0.32111204854E+02 -0.16506837242E+03  0.16872623581E+03  0.13063693149E+02 0.  0.
         22    1    3    3    0    0  0.43801279778E+01  0.32111204854E+02 -0.20245065611E+02  0.38212271325E+02  0.00000000000E+00 0.  1.
         22    1    4    4    0    0  0.14623229029E+01 -0.28403968628E+01 -0.40743091595E+02  0.40868150868E+02  0.00000000000E+00 0. -1.
         22    1    4    4    0    0 -0.58424508807E+01 -0.29270807991E+02 -0.12432528082E+03  0.12785808494E+03  0.00000000000E+00 0. -1.
<mgrwt>
<rscale>  0 0.92100355E+02</rscale>
<asrwt>0</asrwt>
<pdfrwt beam="2">  1        1 0.30173224E-01 0.92100355E+02</pdfrwt>
<pdfrwt beam="1">  1       -1 0.16634670E-02 0.92100355E+02</pdfrwt>
<totfact> 0.11480749E+05</totfact>
</mgrwt>
</event>
<event>
 7    1  0.2787125E-009  0.9087700E+02  0.7818608E-02  0.1300742E+00
          1   -1    0    0  501    0  0.00000000000E+00  0.00000000000E+00  0.58732334783E+03  0.58732334785E+03  0.50400000000E-02 0. -1.
         -1   -1    0    0    0  501 -0.00000000000E+00 -0.00000000000E+00 -0.35153658043E+01  0.35153694172E+01  0.50400000000E-02 0.  1.
         23    2    1    2    0    0  0.00000000000E+00  0.00000000000E+00  0.58380798202E+03  0.59083871726E+03  0.90877004500E+02 0.  0.
    9000005    2    3    3    0    0 -0.39621248021E+02  0.43559990059E+01  0.43008673523E+03  0.43203368039E+03  0.94701186447E+01 0.  0.
         22    1    3    3    0    0  0.39621248021E+02 -0.43559990059E+01  0.15372124679E+03  0.15880503687E+03  0.00000000000E+00 0.  1.
         22    1    4    4    0    0 -0.38338206975E+02  0.22116945531E+01  0.40920199542E+03  0.41099997903E+03  0.00000000000E+00 0.  1.
         22    1    4    4    0    0 -0.12830410460E+01  0.21443044527E+01  0.20884739810E+02  0.21033701359E+02  0.00000000000E+00 0.  1.
<mgrwt>
<rscale>  0 0.90877004E+02</rscale>
<asrwt>0</asrwt>
<pdfrwt beam="1">  1        1 0.90357412E-01 0.90877004E+02</pdfrwt>
<pdfrwt beam="2">  1       -1 0.54082595E-03 0.90877004E+02</pdfrwt>
<totfact> 0.14263263E+05</totfact>
</mgrwt>
</event>
<event>
 7    1  0.2787125E-009  0.1215153E+03  0.7818608E-02  0.1240618E+00
          1   -1    0    0  501    0  0.00000000000E+00  0.00000000000E+00  0.74757820637E+02  0.74757820807E+02  0.50400000000E-02 0. -1.
         -1   -1    0    0    0  501 -0.00000000000E+00 -0.00000000000E+00 -0.49379314372E+02  0.49379314629E+02  0.50400000000E-02 0.  1.
         23    2    1    2    0    0  0.00000000000E+00  0.00000000000E+00  0.25378506266E+02  0.12413713544E+03  0.12151526577E+03 0.  0.
    9000005    2    3    3    0    0 -0.19052846795E+02 -0.51601597738E+02 -0.13653792709E+02  0.56688961085E+02  0.12150693048E+01 0.  0.
         22    1    3    3    0    0  0.19052846795E+02  0.51601597738E+02  0.39032298974E+02  0.67448174351E+02  0.00000000000E+00 0. -1.
         22    1    4    4    0    0 -0.83940001484E+01 -0.23094110493E+02 -0.67085944623E+01  0.25471600217E+02  0.00000000000E+00 0.  1.
         22    1    4    4    0    0 -0.10658846646E+02 -0.28507487245E+02 -0.69451982462E+01  0.31217360867E+02  0.00000000000E+00 0.  1.
<mgrwt>
<rscale>  0 0.12151527E+03</rscale>
<asrwt>0</asrwt>
<pdfrwt beam="1">  1        1 0.11501203E-01 0.12151527E+03</pdfrwt>
<pdfrwt beam="2">  1       -1 0.75968176E-02 0.12151527E+03</pdfrwt>
<totfact> 0.44441561E+04</totfact>
</mgrwt>
</event>
<event>
 7    1  0.2787125E-009  0.9197865E+02  0.7818608E-02  0.1298130E+00
          1   -1    0    0  501    0  0.00000000000E+00  0.00000000000E+00  0.10554635488E+03  0.10554635500E+03  0.50400000000E-02 0. -1.
         -1   -1    0    0    0  501 -0.00000000000E+00 -0.00000000000E+00 -0.20038759844E+02  0.20038760478E+02  0.50400000000E-02 0.  1.
         23    2    1    2    0    0  0.71054273576E-14  0.00000000000E+00  0.85507595032E+02  0.12558511547E+03  0.91978651982E+02 0.  0.
    9000005    2    3    3    0    0  0.39494745657E+02  0.16662765370E+02  0.64745371017E+02  0.77955790155E+02  0.69035835720E+01 0.  0.
         22    1    3    3    0    0 -0.39494745657E+02 -0.16662765370E+02  0.20762224014E+02  0.47629325319E+02  0.00000000000E+00 0.  1.
         22    1    4    4    0    0  0.99202268189E+00 -0.54474505571E+00  0.93309834651E+00  0.14668090201E+01  0.00000000000E+00 0.  1.
         22    1    4    4    0    0  0.38502722975E+02  0.17207510426E+02  0.63812272671E+02  0.76488981135E+02  0.00000000000E+00 0.  1.
<mgrwt>
<rscale>  0 0.91978652E+02</rscale>
<asrwt>0</asrwt>
<pdfrwt beam="1">  1        1 0.16237901E-01 0.91978652E+02</pdfrwt>
<pdfrwt beam="2">  1       -1 0.30828862E-02 0.91978652E+02</pdfrwt>
<totfact> 0.10291379E+05</totfact>
</mgrwt>
</event>
<event>
 7    1  0.2787125E-009  0.8917088E+02  0.7818608E-02  0.1304872E+00
         -1   -1    0    0    0  501 -0.00000000000E+00  0.00000000000E+00  0.44497175713E+01  0.44497204256E+01  0.50400000000E-02 0.  1.
          1   -1    0    0  501    0  0.00000000000E+00 -0.00000000000E+00 -0.44673869434E+03  0.44673869437E+03  0.50400000000E-02 0. -1.
         23    2    1    2    0    0  0.00000000000E+00  0.00000000000E+00 -0.44228897677E+03  0.45118841480E+03  0.89170884673E+02 0.  0.
    9000005    2    3    3    0    0  0.87574896048E+01  0.21343825922E+02 -0.41296350721E+03  0.41387574009E+03  0.14900248756E+02 0.  0.
         22    1    3    3    0    0 -0.87574896048E+01 -0.21343825922E+02 -0.29325469555E+02  0.37312674707E+02  0.00000000000E+00 0.  1.
         22    1    4    4    0    0  0.83729206167E+01  0.58059750974E+01 -0.97824966854E+02  0.98354152360E+02  0.00000000000E+00 0.  1.
         22    1    4    4    0    0  0.38456898811E+00  0.15537850825E+02 -0.31513854036E+03  0.31552158773E+03  0.00000000000E+00 0.  1.
<mgrwt>
<rscale>  0 0.89170885E+02</rscale>
<asrwt>0</asrwt>
<pdfrwt beam="2">  1        1 0.68728995E-01 0.89170885E+02</pdfrwt>
<pdfrwt beam="1">  1       -1 0.68457251E-03 0.89170885E+02</pdfrwt>
<totfact> 0.14554203E+05</totfact>
</mgrwt>
</event>
<event>
 7    1  0.2787125E-009  0.9177679E+02  0.7818608E-02  0.1298605E+00
         -1   -1    0    0    0  501 -0.00000000000E+00  0.00000000000E+00  0.91087679643E+01  0.91087693587E+01  0.50400000000E-02 0.  1.
          1   -1    0    0  501    0  0.00000000000E+00 -0.00000000000E+00 -0.23117774560E+03  0.23117774565E+03  0.50400000000E-02 0. -1.
         23    2    1    2    0    0  0.00000000000E+00  0.00000000000E+00 -0.22206897763E+03  0.24028651501E+03  0.91776786112E+02 0.  0.
    9000005    2    3    3    0    0  0.10204570434E+02 -0.35614748366E+02 -0.40438004152E+02  0.54915659463E+02  0.28202687075E+01 0.  0.
         22    1    3    3    0    0 -0.10204570434E+02  0.35614748366E+02 -0.18163097348E+03  0.18537085555E+03  0.00000000000E+00 0.  1.
         22    1    4    4    0    0  0.69001963425E+01 -0.18984915613E+02 -0.22050270363E+02  0.29904082555E+02  0.00000000000E+00 0. -1.
         22    1    4    4    0    0  0.33043740918E+01 -0.16629832753E+02 -0.18387733789E+02  0.25011576908E+02  0.00000000000E+00 0. -1.
<mgrwt>
<rscale>  0 0.91776786E+02</rscale>
<asrwt>0</asrwt>
<pdfrwt beam="2">  1        1 0.35565803E-01 0.91776786E+02</pdfrwt>
<pdfrwt beam="1">  1       -1 0.14013492E-02 0.91776786E+02</pdfrwt>
<totfact> 0.11967586E+05</totfact>
</mgrwt>
</event>
<event>
 7    1  0.2787125E-009  0.9169932E+02  0.7818608E-02  0.1298788E+00
         -1   -1    0    0    0  501 -0.00000000000E+00  0.00000000000E+00  0.52517007179E+02  0.52517007421E+02  0.50400000000E-02 0.  1.
          1   -1    0    0  501    0  0.00000000000E+00 -0.00000000000E+00 -0.40028771427E+02  0.40028771744E+02  0.50400000000E-02 0. -1.
         23    2    1    2    0    0  0.00000000000E+00  0.00000000000E+00  0.12488235752E+02  0.92545779166E+02  0.91699319568E+02 0.  0.
    9000005    2    3    3    0    0  0.70985489706E+00  0.28097087528E+02  0.42585641456E+02  0.51365637694E+02  0.59111467590E+01 0.  0.
         22    1    3    3    0    0 -0.70985489706E+00 -0.28097087528E+02 -0.30097405704E+02  0.41180141471E+02  0.00000000000E+00 0. -1.
         22    1    4    4    0    0  0.31364252729E+01  0.11686210589E+02  0.19162305845E+02  0.22662714902E+02  0.00000000000E+00 0. -1.
         22    1    4    4    0    0 -0.24265703758E+01  0.16410876938E+02  0.23423335611E+02  0.28702922792E+02  0.00000000000E+00 0. -1.
<mgrwt>
<rscale>  0 0.91699320E+02</rscale>
<asrwt>0</asrwt>
<pdfrwt beam="2">  1        1 0.61582726E-02 0.91699320E+02</pdfrwt>
<pdfrwt beam="1">  1       -1 0.80795396E-02 0.91699320E+02</pdfrwt>
<totfact> 0.89219751E+04</totfact>
</mgrwt>
</event>
<event>
 7    1  0.2787125E-009  0.9262638E+02  0.7818608E-02  0.1296613E+00
         -1   -1    0    0    0  501 -0.00000000000E+00  0.00000000000E+00  0.29775669843E+01  0.29775712498E+01  0.50400000000E-02 0.  1.
          1   -1    0    0  501    0  0.00000000000E+00 -0.00000000000E+00 -0.72035660869E+03  0.72035660871E+03  0.50400000000E-02 0. -1.
         23    2    1    2    0    0  0.00000000000E+00  0.44408920985E-15 -0.71737904171E+03  0.72333417996E+03  0.92626380779E+02 0.  0.
    9000005    2    3    3    0    0  0.35359768802E+02  0.36724330621E+01 -0.58960375537E+03  0.59070566186E+03  0.60655250333E+01 0.  0.
         22    1    3    3    0    0 -0.35359768802E+02 -0.36724330621E+01 -0.12777528634E+03  0.13262851810E+03  0.00000000000E+00 0.  1.
         22    1    4    4    0    0  0.67230021786E+01 -0.12617336635E+01 -0.91806344040E+02  0.92060825198E+02  0.00000000000E+00 0. -1.
         22    1    4    4    0    0  0.28636766624E+02  0.49341667256E+01 -0.49779741133E+03  0.49864483666E+03  0.00000000000E+00 0. -1.
<mgrwt>
<rscale>  0 0.92626381E+02</rscale>
<asrwt>0</asrwt>
<pdfrwt beam="2">  1        1 0.11082396E+00 0.92626381E+02</pdfrwt>
<pdfrwt beam="1">  1       -1 0.45808813E-03 0.92626381E+02</pdfrwt>
<totfact> 0.13629692E+05</totfact>
</mgrwt>
</event>
<event>
 7    1  0.2787125E-009  0.8820567E+02  0.7818608E-02  0.1307256E+00
          1   -1    0    0  501    0  0.00000000000E+00  0.00000000000E+00  0.11225163702E+02  0.11225164833E+02  0.50400000000E-02 0. -1.
         -1   -1    0    0    0  501 -0.00000000000E+00 -0.00000000000E+00 -0.17327676335E+03  0.17327676342E+03  0.50400000000E-02 0.  1.
         23    2    1    2    0    0  0.00000000000E+00  0.35527136788E-14 -0.16205159965E+03  0.18450192825E+03  0.88205672049E+02 0.  0.
    9000005    2    3    3    0    0 -0.37921234068E+01 -0.27212316362E+02 -0.15315692772E+03  0.15562277400E+03  0.25520418079E+01 0.  0.
         22    1    3    3    0    0  0.37921234068E+01  0.27212316362E+02 -0.88946719253E+01  0.28879154253E+02  0.00000000000E+00 0. -1.
         22    1    4    4    0    0 -0.22674929488E+01 -0.85241730199E+01 -0.46099859557E+02  0.46936127888E+02  0.00000000000E+00 0.  1.
         22    1    4    4    0    0 -0.15246304581E+01 -0.18688143342E+02 -0.10705706816E+03  0.10868664611E+03  0.00000000000E+00 0.  1.
<mgrwt>
<rscale>  0 0.88205672E+02</rscale>
<asrwt>0</asrwt>
<pdfrwt beam="1">  1        1 0.17269485E-02 0.88205672E+02</pdfrwt>
<pdfrwt beam="2">  1       -1 0.26657962E-01 0.88205672E+02</pdfrwt>
<totfact> 0.78668482E+04</totfact>
</mgrwt>
</event>
<event>
 7    1  0.2787125E-009  0.9056481E+02  0.7818608E-02  0.1301490E+00
          1   -1    0    0  501    0  0.00000000000E+00  0.00000000000E+00  0.25103845422E+02  0.25103845928E+02  0.50400000000E-02 0. -1.
         -1   -1    0    0    0  501 -0.00000000000E+00 -0.00000000000E+00 -0.81680551810E+02  0.81680551965E+02  0.50400000000E-02 0.  1.
         23    2    1    2    0    0 -0.22204460493E-15  0.00000000000E+00 -0.56576706388E+02  0.10678439789E+03  0.90564805127E+02 0.  0.
    9000005    2    3    3    0    0  0.13817852110E+01  0.40090745329E+02 -0.52597598593E+01  0.41649106442E+02  0.98896816035E+01 0.  0.
         22    1    3    3    0    0 -0.13817852110E+01 -0.40090745329E+02 -0.51316946529E+02  0.65135291451E+02  0.00000000000E+00 0.  1.
         22    1    4    4    0    0  0.38556678383E+01  0.27985372101E+02 -0.75122453211E-01  0.28249829548E+02  0.00000000000E+00 0.  1.
         22    1    4    4    0    0 -0.24738826274E+01  0.12105373228E+02 -0.51846374061E+01  0.13399276894E+02  0.00000000000E+00 0.  1.
<mgrwt>
<rscale>  0 0.90564805E+02</rscale>
<asrwt>0</asrwt>
<pdfrwt beam="1">  1        1 0.38621301E-02 0.90564805E+02</pdfrwt>
<pdfrwt beam="2">  1       -1 0.12566239E-01 0.90564805E+02</pdfrwt>
<totfact> 0.85819308E+04</totfact>
</mgrwt>
</event>
<event>
 7    1  0.2787125E-009  0.8837286E+02  0.7818608E-02  0.1306841E+00
          1   -1    0    0  501    0  0.00000000000E+00  0.00000000000E+00  0.84435006995E+02  0.84435007145E+02  0.50400000000E-02 0. -1.
         -1   -1    0    0    0  501 -0.00000000000E+00 -0.00000000000E+00 -0.23123590479E+02  0.23123591029E+02  0.50400000000E-02 0.  1.
         23    2    1    2    0    0  0.35527136788E-14  0.00000000000E+00  0.61311416515E+02  0.10755859817E+03  0.88372859216E+02 0.  0.
    9000005    2    3    3    0    0  0.30113745374E+02  0.26594071406E+02  0.13113228333E+02  0.44811903931E+02  0.14901935520E+02 0.  0.
         22    1    3    3    0    0 -0.30113745374E+02 -0.26594071406E+02  0.48198188182E+02  0.62746694243E+02  0.00000000000E+00 0.  1.
         22    1    4    4    0    0  0.25308553617E+02  0.13543607836E+02  0.11024876142E+02  0.30748985241E+02  0.00000000000E+00 0. -1.
         22    1    4    4    0    0  0.48051917565E+01  0.13050463570E+02  0.20883521908E+01  0.14062918690E+02  0.00000000000E+00 0. -1.
<mgrwt>
<rscale>  0 0.88372859E+02</rscale>
<asrwt>0</asrwt>
<pdfrwt beam="1">  1        1 0.12990001E-01 0.88372859E+02</pdfrwt>
<pdfrwt beam="2">  1       -1 0.35574755E-02 0.88372859E+02</pdfrwt>
<totfact> 0.11066256E+05</totfact>
</mgrwt>
</event>
<event>
 7    1  0.2787125E-009  0.9169354E+02  0.7818608E-02  0.1298802E+00
         -1   -1    0    0    0  501 -0.00000000000E+00  0.00000000000E+00  0.54686773816E+02  0.54686774048E+02  0.50400000000E-02 0.  1.
          1   -1    0    0  501    0  0.00000000000E+00 -0.00000000000E+00 -0.38435737670E+02  0.38435738000E+02  0.50400000000E-02 0. -1.
         23    2    1    2    0    0  0.00000000000E+00  0.00000000000E+00  0.16251036146E+02  0.93122512049E+02  0.91693544345E+02 0.  0.
    9000005    2    3    3    0    0  0.10217119464E+02  0.41076290607E+02  0.24786583542E+02  0.49942577478E+02  0.93933562311E+01 0.  0.
         22    1    3    3    0    0 -0.10217119464E+02 -0.41076290607E+02 -0.85355473955E+01  0.43179934571E+02  0.00000000000E+00 0. -1.
         22    1    4    4    0    0  0.62761575944E+01  0.86365576152E+01  0.63685640026E+01  0.12431367143E+02  0.00000000000E+00 0. -1.
         22    1    4    4    0    0  0.39409618700E+01  0.32439732992E+02  0.18418019539E+02  0.37511210335E+02  0.00000000000E+00 0. -1.
<mgrwt>
<rscale>  0 0.91693544E+02</rscale>
<asrwt>0</asrwt>
<pdfrwt beam="2">  1        1 0.59131905E-02 0.91693544E+02</pdfrwt>
<pdfrwt beam="1">  1       -1 0.84133498E-02 0.91693544E+02</pdfrwt>
<totfact> 0.88682135E+04</totfact>
</mgrwt>
</event>
<event>
 7    1  0.2787125E-009  0.8953929E+02  0.7818608E-02  0.1303971E+00
          1   -1    0    0  501    0  0.00000000000E+00  0.00000000000E+00  0.79052457667E+02  0.79052457828E+02  0.50400000000E-02 0. -1.
         -1   -1    0    0    0  501 -0.00000000000E+00 -0.00000000000E+00 -0.25354318278E+02  0.25354318779E+02  0.50400000000E-02 0.  1.
         23    2    1    2    0    0  0.44408920985E-15  0.00000000000E+00  0.53698139389E+02  0.10440677661E+03  0.89539292087E+02 0.  0.
    9000005    2    3    3    0    0 -0.31021368509E+01 -0.14093076300E+02 -0.20382743585E+02  0.28933501371E+02  0.14610038087E+02 0.  0.
         22    1    3    3    0    0  0.31021368509E+01  0.14093076300E+02  0.74080882974E+02  0.75473275236E+02  0.00000000000E+00 0. -1.
         22    1    4    4    0    0 -0.74346414054E+01 -0.84674347346E+01 -0.18374402484E+02  0.21554350152E+02  0.00000000000E+00 0. -1.
         22    1    4    4    0    0  0.43325045545E+01 -0.56256415652E+01 -0.20083411004E+01  0.73791512188E+01  0.00000000000E+00 0. -1.
<mgrwt>
<rscale>  0 0.89539292E+02</rscale>
<asrwt>0</asrwt>
<pdfrwt beam="1">  1        1 0.12161917E-01 0.89539292E+02</pdfrwt>
<pdfrwt beam="2">  1       -1 0.39006644E-02 0.89539292E+02</pdfrwt>
<totfact> 0.10567498E+05</totfact>
</mgrwt>
</event>
<event>
 7    1  0.2787125E-009  0.9104568E+02  0.7818608E-02  0.1300339E+00
         -1   -1    0    0    0  501 -0.00000000000E+00  0.00000000000E+00  0.19322274959E+03  0.19322274966E+03  0.50400000000E-02 0.  1.
          1   -1    0    0  501    0  0.00000000000E+00 -0.00000000000E+00 -0.10725076704E+02  0.10725077888E+02  0.50400000000E-02 0. -1.
         23    2    1    2    0    0  0.00000000000E+00  0.00000000000E+00  0.18249767289E+03  0.20394782755E+03  0.91045679476E+02 0.  0.
    9000005    2    3    3    0    0 -0.22121608940E+02  0.27642590411E+02  0.32452940399E+02  0.49782655946E+02  0.13101187189E+02 0.  0.
         22    1    3    3    0    0  0.22121608940E+02 -0.27642590411E+02  0.15004473249E+03  0.15416517160E+03  0.00000000000E+00 0.  1.
         22    1    4    4    0    0 -0.39255450344E+01  0.15072667274E+02  0.12041740625E+02  0.19687527012E+02  0.00000000000E+00 0.  1.
         22    1    4    4    0    0 -0.18196063906E+02  0.12569923137E+02  0.20411199775E+02  0.30095128935E+02  0.00000000000E+00 0.  1.
<mgrwt>
<rscale>  0 0.91045679E+02</rscale>
<asrwt>0</asrwt>
<pdfrwt beam="2">  1        1 0.16500121E-02 0.91045679E+02</pdfrwt>
<pdfrwt beam="1">  1       -1 0.29726573E-01 0.91045679E+02</pdfrwt>
<totfact> 0.70367607E+04</totfact>
</mgrwt>
</event>
<event>
 7    1  0.2787125E-009  0.1144030E+03  0.7818608E-02  0.1252627E+00
         -1   -1    0    0    0  501 -0.00000000000E+00  0.00000000000E+00  0.97848217170E+01  0.97848230150E+01  0.50400000000E-02 0.  1.
          1   -1    0    0  501    0  0.00000000000E+00 -0.00000000000E+00 -0.33439689660E+03  0.33439689664E+03  0.50400000000E-02 0. -1.
         23    2    1    2    0    0  0.00000000000E+00  0.88817841970E-15 -0.32461207488E+03  0.34418171965E+03  0.11440304622E+03 0.  0.
    9000005    2    3    3    0    0  0.40412105044E+02 -0.61071521171E+01 -0.28173501000E+03  0.28494593458E+03  0.12212052575E+02 0.  0.
         22    1    3    3    0    0 -0.40412105044E+02  0.61071521171E+01 -0.42877064877E+02  0.59235785075E+02  0.00000000000E+00 0.  1.
         22    1    4    4    0    0  0.12079130418E+02  0.19269030315E+01 -0.57601829263E+02  0.58886238472E+02  0.00000000000E+00 0.  1.
         22    1    4    4    0    0  0.28332974625E+02 -0.80340551486E+01 -0.22413318074E+03  0.22605969610E+03  0.00000000000E+00 0.  1.
<mgrwt>
<rscale>  0 0.11440305E+03</rscale>
<asrwt>0</asrwt>
<pdfrwt beam="2">  1        1 0.51445667E-01 0.11440305E+03</pdfrwt>
<pdfrwt beam="1">  1       -1 0.15053576E-02 0.11440305E+03</pdfrwt>
<totfact> 0.70968199E+04</totfact>
</mgrwt>
</event>
<event>
 7    1  0.2787125E-009  0.9086634E+02  0.7818608E-02  0.1300767E+00
         -1   -1    0    0    0  501 -0.00000000000E+00  0.00000000000E+00  0.36797499400E+02  0.36797499745E+02  0.50400000000E-02 0. -1.
          1   -1    0    0  501    0  0.00000000000E+00 -0.00000000000E+00 -0.56095464484E+02  0.56095464710E+02  0.50400000000E-02 0.  1.
         23    2    1    2    0    0  0.00000000000E+00 -0.71054273576E-14 -0.19297965084E+02  0.92892964455E+02  0.90866338040E+02 0.  0.
    9000005    2    3    3    0    0  0.16011830340E+02  0.41340784806E+02 -0.17719596294E+02  0.48531602356E+02  0.87116666130E+01 0.  0.
         22    1    3    3    0    0 -0.16011830340E+02 -0.41340784806E+02 -0.15783687897E+01  0.44361362099E+02  0.00000000000E+00 0. -1.
         22    1    4    4    0    0  0.36074176241E+01  0.34591933387E+01 -0.23167355306E+00  0.50033142120E+01  0.00000000000E+00 0.  1.
         22    1    4    4    0    0  0.12404412716E+02  0.37881591467E+02 -0.17487922741E+02  0.43528288144E+02  0.00000000000E+00 0.  1.
<mgrwt>
<rscale>  0 0.90866338E+02</rscale>
<asrwt>0</asrwt>
<pdfrwt beam="2">  1        1 0.86300715E-02 0.90866338E+02</pdfrwt>
<pdfrwt beam="1">  1       -1 0.56611538E-02 0.90866338E+02</pdfrwt>
<totfact> 0.96306826E+04</totfact>
</mgrwt>
</event>
<event>
 7    1  0.2787125E-009  0.9167627E+02  0.7818608E-02  0.1298842E+00
          1   -1    0    0  501    0  0.00000000000E+00  0.00000000000E+00  0.26330378343E+02  0.26330378826E+02  0.50400000000E-02 0. -1.
         -1   -1    0    0    0  501 -0.00000000000E+00 -0.00000000000E+00 -0.79798868991E+02  0.79798869150E+02  0.50400000000E-02 0.  1.
         23    2    1    2    0    0  0.00000000000E+00  0.00000000000E+00 -0.53468490647E+02  0.10612924798E+03  0.91676266196E+02 0.  0.
    9000005    2    3    3    0    0 -0.30220123823E+02 -0.23022014194E+02  0.12638388591E+01  0.39504200773E+02  0.10757117114E+02 0.  0.
         22    1    3    3    0    0  0.30220123823E+02  0.23022014194E+02 -0.54732329506E+02  0.66625047202E+02  0.00000000000E+00 0.  1.
         22    1    4    4    0    0 -0.66515847222E+01 -0.44335719568E+01 -0.41442158352E+01  0.90041470724E+01  0.00000000000E+00 0.  1.
         22    1    4    4    0    0 -0.23568539101E+02 -0.18588442238E+02  0.54080546943E+01  0.30500053701E+02  0.00000000000E+00 0.  1.
<mgrwt>
<rscale>  0 0.91676266E+02</rscale>
<asrwt>0</asrwt>
<pdfrwt beam="1">  1        1 0.40508275E-02 0.91676266E+02</pdfrwt>
<pdfrwt beam="2">  1       -1 0.12276749E-01 0.91676266E+02</pdfrwt>
<totfact> 0.83509456E+04</totfact>
</mgrwt>
</event>
<event>
 7    1  0.2787125E-009  0.9570604E+02  0.7818608E-02  0.1289594E+00
         -1   -1    0    0    0  501 -0.00000000000E+00  0.00000000000E+00  0.28569825960E+02  0.28569826404E+02  0.50400000000E-02 0.  1.
          1   -1    0    0  501    0  0.00000000000E+00 -0.00000000000E+00 -0.80151394709E+02  0.80151394867E+02  0.50400000000E-02 0. -1.
         23    2    1    2    0    0 -0.88817841970E-15 -0.71054273576E-14 -0.51581568749E+02  0.10872122127E+03  0.95706038055E+02 0.  0.
    9000005    2    3    3    0    0  0.33486874247E+01  0.35760577032E+02  0.91149433062E+01  0.38193927599E+02  0.92553409907E+01 0.  0.
         22    1    3    3    0    0 -0.33486874247E+01 -0.35760577032E+02 -0.60696512055E+02  0.70527293673E+02  0.00000000000E+00 0. -1.
         22    1    4    4    0    0 -0.74232619407E+00  0.22519804812E+02  0.91932529066E+01  0.24335335543E+02  0.00000000000E+00 0. -1.
         22    1    4    4    0    0  0.40910136187E+01  0.13240772219E+02 -0.78309600408E-01  0.13858592056E+02  0.00000000000E+00 0. -1.
<mgrwt>
<rscale>  0 0.95706038E+02</rscale>
<asrwt>0</asrwt>
<pdfrwt beam="2">  1        1 0.12330984E-01 0.95706038E+02</pdfrwt>
<pdfrwt beam="1">  1       -1 0.43953579E-02 0.95706038E+02</pdfrwt>
<totfact> 0.88168988E+04</totfact>
</mgrwt>
</event>
<event>
 7    1  0.2787125E-009  0.9199887E+02  0.7818608E-02  0.1298082E+00
         -1   -1    0    0    0  501 -0.00000000000E+00  0.00000000000E+00  0.84298495505E+01  0.84298510572E+01  0.50400000000E-02 0.  1.
          1   -1    0    0  501    0  0.00000000000E+00 -0.00000000000E+00 -0.25100661669E+03  0.25100661674E+03  0.50400000000E-02 0. -1.
         23    2    1    2    0    0 -0.88817841970E-15  0.00000000000E+00 -0.24257676713E+03  0.25943646779E+03  0.91998874272E+02 0.  0.
    9000005    2    3    3    0    0  0.48383711012E+01  0.43159865817E+02 -0.81073176032E+02  0.92195343092E+02  0.63982469172E+01 0.  0.
         22    1    3    3    0    0 -0.48383711012E+01 -0.43159865817E+02 -0.16150359110E+03  0.16724112470E+03  0.00000000000E+00 0. -1.
         22    1    4    4    0    0  0.33588266891E+01  0.18534431055E+02 -0.29099515361E+02  0.34663938690E+02  0.00000000000E+00 0.  1.
         22    1    4    4    0    0  0.14795444121E+01  0.24625434763E+02 -0.51973660671E+02  0.57531404402E+02  0.00000000000E+00 0.  1.
<mgrwt>
<rscale>  0 0.91998874E+02</rscale>
<asrwt>0</asrwt>
<pdfrwt beam="2">  1        1 0.38616397E-01 0.91998874E+02</pdfrwt>
<pdfrwt beam="1">  1       -1 0.12969002E-02 0.91998874E+02</pdfrwt>
<totfact> 0.12083120E+05</totfact>
</mgrwt>
</event>
<event>
 7    1  0.2787125E-009  0.9094393E+02  0.7818608E-02  0.1300582E+00
          1   -1    0    0  501    0  0.00000000000E+00  0.00000000000E+00  0.33126974160E+02  0.33126974544E+02  0.50400000000E-02 0. -1.
         -1   -1    0    0    0  501 -0.00000000000E+00 -0.00000000000E+00 -0.62417405646E+02  0.62417405850E+02  0.50400000000E-02 0.  1.
         23    2    1    2    0    0  0.17763568394E-14 -0.44408920985E-15 -0.29290431486E+02  0.95544380394E+02  0.90943934642E+02 0.  0.
    9000005    2    3    3    0    0 -0.13848143971E+02  0.30733175911E+01 -0.59450382776E+02  0.62215128463E+02  0.11625739761E+02 0.  0.
         22    1    3    3    0    0  0.13848143971E+02 -0.30733175911E+01  0.30159951290E+02  0.33329251931E+02  0.00000000000E+00 0. -1.
         22    1    4    4    0    0 -0.87108605463E+01  0.43010608595E+01 -0.52976446785E+02  0.53859837820E+02  0.00000000000E+00 0.  1.
         22    1    4    4    0    0 -0.51372834250E+01 -0.12277432683E+01 -0.64739359903E+01  0.83552906429E+01  0.00000000000E+00 0.  1.
<mgrwt>
<rscale>  0 0.90943935E+02</rscale>
<asrwt>0</asrwt>
<pdfrwt beam="1">  1        1 0.50964576E-02 0.90943935E+02</pdfrwt>
<pdfrwt beam="2">  1       -1 0.96026778E-02 0.90943935E+02</pdfrwt>
<totfact> 0.88708788E+04</totfact>
</mgrwt>
</event>
<event>
 7    1  0.2787125E-009  0.1110058E+03  0.7818608E-02  0.1258719E+00
          1   -1    0    0  501    0  0.00000000000E+00  0.00000000000E+00  0.75278807706E+03  0.75278807708E+03  0.50400000000E-02 0. -1.
         -1   -1    0    0    0  501 -0.00000000000E+00 -0.00000000000E+00 -0.40922141327E+01  0.40922172363E+01  0.50400000000E-02 0.  1.
         23    2    1    2    0    0  0.17763568394E-14  0.35527136788E-14  0.74869586293E+03  0.75688029432E+03  0.11100578703E+03 0.  0.
    9000005    2    3    3    0    0  0.11902791356E+02  0.25492416760E+02  0.70017693403E+03  0.70079441182E+03  0.85749010556E+01 0.  0.
         22    1    3    3    0    0 -0.11902791356E+02 -0.25492416760E+02  0.48518928897E+02  0.56085882498E+02  0.00000000000E+00 0.  1.
         22    1    4    4    0    0  0.82191557425E+01  0.20032062768E+02  0.60639578527E+03  0.60678223973E+03  0.00000000000E+00 0.  1.
         22    1    4    4    0    0  0.36836356138E+01  0.54603539920E+01  0.93781148767E+02  0.94012172090E+02  0.00000000000E+00 0.  1.
<mgrwt>
<rscale>  0 0.11100579E+03</rscale>
<asrwt>0</asrwt>
<pdfrwt beam="1">  1        1 0.11581337E+00 0.11100579E+03</pdfrwt>
<pdfrwt beam="2">  1       -1 0.62957264E-03 0.11100579E+03</pdfrwt>
<totfact> 0.83910259E+04</totfact>
</mgrwt>
</event>
<event>
 7    1  0.2787125E-009  0.9314883E+02  0.7818608E-02  0.1295401E+00
          1   -1    0    0  501    0  0.00000000000E+00  0.00000000000E+00  0.23566658210E+02  0.23566658749E+02  0.50400000000E-02 0. -1.
         -1   -1    0    0    0  501 -0.00000000000E+00 -0.00000000000E+00 -0.92044284505E+02  0.92044284643E+02  0.50400000000E-02 0.  1.
         23    2    1    2    0    0  0.00000000000E+00  0.00000000000E+00 -0.68477626295E+02  0.11561094339E+03  0.93148832139E+02 0.  0.
    9000005    2    3    3    0    0  0.32199906471E+02  0.29256291428E+02 -0.51853124831E+02  0.69036931176E+02  0.13586270520E+02 0.  0.
         22    1    3    3    0    0 -0.32199906471E+02 -0.29256291428E+02 -0.16624501464E+02  0.46574012215E+02  0.00000000000E+00 0. -1.
         22    1    4    4    0    0  0.16591163436E+02  0.16580956477E+02 -0.37869185982E+02  0.44545146411E+02  0.00000000000E+00 0. -1.
         22    1    4    4    0    0  0.15608743036E+02  0.12675334951E+02 -0.13983938849E+02  0.24491784766E+02  0.00000000000E+00 0. -1.
<mgrwt>
<rscale>  0 0.93148832E+02</rscale>
<asrwt>0</asrwt>
<pdfrwt beam="1">  1        1 0.36256398E-02 0.93148832E+02</pdfrwt>
<pdfrwt beam="2">  1       -1 0.14160659E-01 0.93148832E+02</pdfrwt>
<totfact> 0.78185273E+04</totfact>
</mgrwt>
</event>
<event>
 7    1  0.2787125E-009  0.9647078E+02  0.7818608E-02  0.1287897E+00
          1   -1    0    0  501    0  0.00000000000E+00  0.00000000000E+00  0.28423424149E+02  0.28423424596E+02  0.50400000000E-02 0. -1.
         -1   -1    0    0    0  501 -0.00000000000E+00 -0.00000000000E+00 -0.81856872851E+02  0.81856873006E+02  0.50400000000E-02 0.  1.
         23    2    1    2    0    0  0.71054273576E-14  0.00000000000E+00 -0.53433448702E+02  0.11028029760E+03  0.96470775881E+02 0.  0.
    9000005    2    3    3    0    0  0.42007131637E+02  0.54568504269E+01 -0.28982895320E+01  0.44339576971E+02  0.12775823996E+02 0.  0.
         22    1    3    3    0    0 -0.42007131637E+02 -0.54568504269E+01 -0.50535159170E+02  0.65940720631E+02  0.00000000000E+00 0.  1.
         22    1    4    4    0    0  0.26870700546E+02 -0.15262561278E+01 -0.54941719686E+01  0.27469072268E+02  0.00000000000E+00 0.  1.
         22    1    4    4    0    0  0.15136431091E+02  0.69831065547E+01  0.25958824366E+01  0.16870504704E+02  0.00000000000E+00 0.  1.
<mgrwt>
<rscale>  0 0.96470776E+02</rscale>
<asrwt>0</asrwt>
<pdfrwt beam="1">  1        1 0.43728346E-02 0.96470776E+02</pdfrwt>
<pdfrwt beam="2">  1       -1 0.12593365E-01 0.96470776E+02</pdfrwt>
<totfact> 0.72956072E+04</totfact>
</mgrwt>
</event>
<event>
 7    1  0.2787125E-009  0.9671485E+02  0.7818608E-02  0.1287360E+00
          1   -1    0    0  501    0  0.00000000000E+00  0.00000000000E+00  0.57107771157E+02  0.57107771379E+02  0.50400000000E-02 0. -1.
         -1   -1    0    0    0  501 -0.00000000000E+00 -0.00000000000E+00 -0.40947854165E+02  0.40947854475E+02  0.50400000000E-02 0.  1.
         23    2    1    2    0    0  0.00000000000E+00  0.00000000000E+00  0.16159916992E+02  0.98055625855E+02  0.96714853278E+02 0.  0.
    9000005    2    3    3    0    0  0.43508855103E+02 -0.92838619421E+01 -0.85725060387E+01  0.47154709224E+02  0.13071655493E+02 0.  0.
         22    1    3    3    0    0 -0.43508855103E+02  0.92838619421E+01  0.24732423030E+02  0.50900916631E+02  0.00000000000E+00 0.  1.
         22    1    4    4    0    0  0.32743962672E+02 -0.82357041896E+01 -0.68918791047E+00  0.33770829053E+02  0.00000000000E+00 0.  1.
         22    1    4    4    0    0  0.10764892431E+02 -0.10481577525E+01 -0.78833181282E+01  0.13383880171E+02  0.00000000000E+00 0.  1.
<mgrwt>
<rscale>  0 0.96714853E+02</rscale>
<asrwt>0</asrwt>
<pdfrwt beam="1">  1        1 0.87858109E-02 0.96714853E+02</pdfrwt>
<pdfrwt beam="2">  1       -1 0.62996700E-02 0.96714853E+02</pdfrwt>
<totfact> 0.81124486E+04</totfact>
</mgrwt>
</event>
<event>
 7    1  0.2787125E-009  0.9128365E+02  0.7818608E-02  0.1299773E+00
          1   -1    0    0  501    0  0.00000000000E+00  0.00000000000E+00  0.19437629323E+03  0.19437629330E+03  0.50400000000E-02 0. -1.
         -1   -1    0    0    0  501 -0.00000000000E+00 -0.00000000000E+00 -0.10717232255E+02  0.10717233440E+02  0.50400000000E-02 0.  1.
         23    2    1    2    0    0  0.00000000000E+00  0.00000000000E+00  0.18365906098E+03  0.20509352674E+03  0.91283646020E+02 0.  0.
    9000005    2    3    3    0    0  0.29969008181E+02 -0.23921882044E+02  0.42929258535E+02  0.59233061952E+02  0.13972705465E+02 0.  0.
         22    1    3    3    0    0 -0.29969008181E+02  0.23921882044E+02  0.14072980244E+03  0.14586046479E+03  0.00000000000E+00 0. -1.
         22    1    4    4    0    0  0.12917787807E+02 -0.18883925116E+02  0.26676738205E+02  0.35144277357E+02  0.00000000000E+00 0.  1.
         22    1    4    4    0    0  0.17051220374E+02 -0.50379569279E+01  0.16252520329E+02  0.24088784596E+02  0.00000000000E+00 0.  1.
<mgrwt>
<rscale>  0 0.91283646E+02</rscale>
<asrwt>0</asrwt>
<pdfrwt beam="1">  1        1 0.29904043E-01 0.91283646E+02</pdfrwt>
<pdfrwt beam="2">  1       -1 0.16488052E-02 0.91283646E+02</pdfrwt>
<totfact> 0.11738421E+05</totfact>
</mgrwt>
</event>
<event>
 7    1  0.2787125E-009  0.8710744E+02  0.7818608E-02  0.1310012E+00
          1   -1    0    0  501    0  0.00000000000E+00  0.00000000000E+00  0.59756935600E+02  0.59756935813E+02  0.50400000000E-02 0. -1.
         -1   -1    0    0    0  501 -0.00000000000E+00 -0.00000000000E+00 -0.31744041714E+02  0.31744042114E+02  0.50400000000E-02 0.  1.
         23    2    1    2    0    0  0.00000000000E+00  0.00000000000E+00  0.28012893886E+02  0.91500977927E+02  0.87107443641E+02 0.  0.
    9000005    2    3    3    0    0  0.17692483175E+02 -0.35357323058E+02  0.31695649037E+02  0.51792956820E+02  0.10711300275E+02 0.  0.
         22    1    3    3    0    0 -0.17692483175E+02  0.35357323058E+02 -0.36827551510E+01  0.39708021107E+02  0.00000000000E+00 0.  1.
         22    1    4    4    0    0  0.67712569888E+01 -0.18039161971E+02  0.21665085237E+02  0.28993744224E+02  0.00000000000E+00 0. -1.
         22    1    4    4    0    0  0.10921226186E+02 -0.17318161087E+02  0.10030563800E+02  0.22799212596E+02  0.00000000000E+00 0. -1.
<mgrwt>
<rscale>  0 0.87107444E+02</rscale>
<asrwt>0</asrwt>
<pdfrwt beam="1">  1        1 0.91933746E-02 0.87107444E+02</pdfrwt>
<pdfrwt beam="2">  1       -1 0.48836988E-02 0.87107444E+02</pdfrwt>
<totfact> 0.10925948E+05</totfact>
</mgrwt>
</event>
<event>
 7    1  0.2787125E-009  0.9143118E+02  0.7818608E-02  0.1299422E+00
          1   -1    0    0  501    0  0.00000000000E+00  0.00000000000E+00  0.19655719409E+02  0.19655720055E+02  0.50400000000E-02 0. -1.
         -1   -1    0    0    0  501 -0.00000000000E+00 -0.00000000000E+00 -0.10632605213E+03  0.10632605225E+03  0.50400000000E-02 0.  1.
         23    2    1    2    0    0  0.00000000000E+00  0.00000000000E+00 -0.86670332721E+02  0.12598177230E+03  0.91431178374E+02 0.  0.
    9000005    2    3    3    0    0 -0.40757302032E+02  0.17911391977E+02 -0.49397387764E+02  0.67919322672E+02  0.13818713500E+02 0.  0.
         22    1    3    3    0    0  0.40757302032E+02 -0.17911391977E+02 -0.37272944958E+02  0.58062449632E+02  0.00000000000E+00 0. -1.
         22    1    4    4    0    0 -0.21932054034E+01  0.43814132512E+01 -0.10084160790E+02  0.11211477640E+02  0.00000000000E+00 0.  1.
         22    1    4    4    0    0 -0.38564096629E+02  0.13529978726E+02 -0.39313226973E+02  0.56707845032E+02  0.00000000000E+00 0.  1.
<mgrwt>
<rscale>  0 0.91431178E+02</rscale>
<asrwt>0</asrwt>
<pdfrwt beam="1">  1        1 0.30239569E-02 0.91431178E+02</pdfrwt>
<pdfrwt beam="2">  1       -1 0.16357854E-01 0.91431178E+02</pdfrwt>
<totfact> 0.79857494E+04</totfact>
</mgrwt>
</event>
<event>
 7    1  0.2787125E-009  0.9568976E+02  0.7818608E-02  0.1289630E+00
         -1   -1    0    0    0  501 -0.00000000000E+00  0.00000000000E+00  0.14616722521E+03  0.14616722530E+03  0.50400000000E-02 0.  1.
          1   -1    0    0  501    0  0.00000000000E+00 -0.00000000000E+00 -0.15661052503E+02  0.15661053314E+02  0.50400000000E-02 0. -1.
         23    2    1    2    0    0 -0.17763568394E-14 -0.35527136788E-14  0.13050617271E+03  0.16182827861E+03  0.95689762482E+02 0.  0.
    9000005    2    3    3    0    0  0.14460486835E+02  0.18106226235E+02 -0.17097529647E+01  0.27597164077E+02  0.14890906686E+02 0.  0.
         22    1    3    3    0    0 -0.14460486835E+02 -0.18106226235E+02  0.13221592567E+03  0.13423111453E+03  0.00000000000E+00 0.  1.
         22    1    4    4    0    0  0.89437998494E+01  0.14053949959E+02 -0.78374123053E+01  0.18410054232E+02  0.00000000000E+00 0. -1.
         22    1    4    4    0    0  0.55166869855E+01  0.40522762761E+01  0.61276593406E+01  0.91871098452E+01  0.00000000000E+00 0. -1.
<mgrwt>
<rscale>  0 0.95689762E+02</rscale>
<asrwt>0</asrwt>
<pdfrwt beam="2">  1        1 0.24093928E-02 0.95689762E+02</pdfrwt>
<pdfrwt beam="1">  1       -1 0.22487265E-01 0.95689762E+02</pdfrwt>
<totfact> 0.66360118E+04</totfact>
</mgrwt>
</event>
<event>
 7    1  0.2787125E-009  0.9226694E+02  0.7818608E-02  0.1297453E+00
         -1   -1    0    0    0  501 -0.00000000000E+00  0.00000000000E+00  0.91562878082E+02  0.91562878221E+02  0.50400000000E-02 0.  1.
          1   -1    0    0  501    0  0.00000000000E+00 -0.00000000000E+00 -0.23244102810E+02  0.23244103356E+02  0.50400000000E-02 0. -1.
         23    2    1    2    0    0  0.00000000000E+00  0.00000000000E+00  0.68318775272E+02  0.11480698158E+03  0.92266938630E+02 0.  0.
    9000005    2    3    3    0    0 -0.31062875735E+02  0.12351666635E+02  0.73407711359E+02  0.80993327707E+02  0.73321980597E+01 0.  0.
         22    1    3    3    0    0  0.31062875735E+02 -0.12351666635E+02 -0.50889360870E+01  0.33813653871E+02  0.00000000000E+00 0. -1.
         22    1    4    4    0    0 -0.17131026348E+02  0.10278163814E+02  0.39139983878E+02  0.43943725982E+02  0.00000000000E+00 0.  1.
         22    1    4    4    0    0 -0.13931849387E+02  0.20735028210E+01  0.34267727481E+02  0.37049601725E+02  0.00000000000E+00 0.  1.
<mgrwt>
<rscale>  0 0.92266939E+02</rscale>
<asrwt>0</asrwt>
<pdfrwt beam="2">  1        1 0.35760158E-02 0.92266939E+02</pdfrwt>
<pdfrwt beam="1">  1       -1 0.14086597E-01 0.92266939E+02</pdfrwt>
<totfact> 0.80198385E+04</totfact>
</mgrwt>
</event>
<event>
 7    1  0.2787125E-009  0.8968387E+02  0.7818608E-02  0.1303619E+00
         -1   -1    0    0    0  501 -0.00000000000E+00  0.00000000000E+00  0.17793422130E+02  0.17793422844E+02  0.50400000000E-02 0.  1.
          1   -1    0    0  501    0  0.00000000000E+00 -0.00000000000E+00 -0.11300799093E+03  0.11300799104E+03  0.50400000000E-02 0. -1.
         23    2    1    2    0    0  0.00000000000E+00  0.00000000000E+00 -0.95214568800E+02  0.13080141389E+03  0.89683865679E+02 0.  0.
    9000005    2    3    3    0    0 -0.19184936033E+02  0.35990792679E+02 -0.27375402592E+02  0.51646177800E+02  0.15953560294E+02 0.  0.
         22    1    3    3    0    0  0.19184936033E+02 -0.35990792679E+02 -0.67839166208E+02  0.79155236087E+02  0.00000000000E+00 0. -1.
         22    1    4    4    0    0 -0.36918145394E+01 -0.87423349144E+00 -0.27151229365E+01  0.46653693692E+01  0.00000000000E+00 0.  1.
         22    1    4    4    0    0 -0.15493121493E+02  0.36865026170E+02 -0.24660279656E+02  0.46980808431E+02  0.00000000000E+00 0.  1.
<mgrwt>
<rscale>  0 0.89683866E+02</rscale>
<asrwt>0</asrwt>
<pdfrwt beam="2">  1        1 0.17385844E-01 0.89683866E+02</pdfrwt>
<pdfrwt beam="1">  1       -1 0.27374497E-02 0.89683866E+02</pdfrwt>
<totfact> 0.11151125E+05</totfact>
</mgrwt>
</event>
<event>
 7    1  0.2787125E-009  0.9142083E+02  0.7818608E-02  0.1299447E+00
         -1   -1    0    0    0  501 -0.00000000000E+00  0.00000000000E+00  0.18078833103E+03  0.18078833110E+03  0.50400000000E-02 0.  1.
          1   -1    0    0  501    0  0.00000000000E+00 -0.00000000000E+00 -0.11557393287E+02  0.11557394386E+02  0.50400000000E-02 0. -1.
         23    2    1    2    0    0  0.00000000000E+00  0.00000000000E+00  0.16923093775E+03  0.19234572549E+03  0.91420828172E+02 0.  0.
    9000005    2    3    3    0    0 -0.16687804032E+02 -0.42224229135E+02  0.75584266786E+02  0.88273311703E+02  0.42223031528E+01 0.  0.
         22    1    3    3    0    0  0.16687804032E+02  0.42224229135E+02  0.93646670959E+02  0.10407241379E+03  0.00000000000E+00 0.  1.
         22    1    4    4    0    0 -0.10361608365E+02 -0.29044684155E+02  0.47946128754E+02  0.57006910704E+02  0.00000000000E+00 0.  1.
         22    1    4    4    0    0 -0.63261956677E+01 -0.13179544980E+02  0.27638138032E+02  0.31266400999E+02  0.00000000000E+00 0.  1.
<mgrwt>
<rscale>  0 0.91420828E+02</rscale>
<asrwt>0</asrwt>
<pdfrwt beam="2">  1        1 0.17780607E-02 0.91420828E+02</pdfrwt>
<pdfrwt beam="1">  1       -1 0.27813588E-01 0.91420828E+02</pdfrwt>
<totfact> 0.70891206E+04</totfact>
</mgrwt>
</event>
<event>
 7    1  0.2787125E-009  0.8443728E+02  0.7818608E-02  0.1316911E+00
         -1   -1    0    0    0  501 -0.00000000000E+00  0.00000000000E+00  0.12264545098E+02  0.12264546134E+02  0.50400000000E-02 0.  1.
          1   -1    0    0  501    0  0.00000000000E+00 -0.00000000000E+00 -0.14533057348E+03  0.14533057357E+03  0.50400000000E-02 0. -1.
         23    2    1    2    0    0 -0.35527136788E-14 -0.71054273576E-14 -0.13306602838E+03  0.15759511970E+03  0.84437277575E+02 0.  0.
    9000005    2    3    3    0    0 -0.22616824714E+02 -0.34316038962E+02 -0.70604799981E+02  0.82825364161E+02  0.13634217171E+02 0.  0.
         22    1    3    3    0    0  0.22616824714E+02  0.34316038962E+02 -0.62461228399E+02  0.74769755538E+02  0.00000000000E+00 0. -1.
         22    1    4    4    0    0 -0.16147656509E+02 -0.27683289257E+02 -0.63571571632E+02  0.71193089795E+02  0.00000000000E+00 0.  1.
         22    1    4    4    0    0 -0.64691682054E+01 -0.66327497050E+01 -0.70332283493E+01  0.11632274366E+02  0.00000000000E+00 0.  1.
<mgrwt>
<rscale>  0 0.84437278E+02</rscale>
<asrwt>0</asrwt>
<pdfrwt beam="2">  1        1 0.22358549E-01 0.84437278E+02</pdfrwt>
<pdfrwt beam="1">  1       -1 0.18868533E-02 0.84437278E+02</pdfrwt>
<totfact> 0.13701979E+05</totfact>
</mgrwt>
</event>
<event>
 7    1  0.2787125E-009  0.8236190E+02  0.7818608E-02  0.1322479E+00
          1   -1    0    0  501    0  0.00000000000E+00  0.00000000000E+00  0.65636857055E+03  0.65636857057E+03  0.50400000000E-02 0. -1.
         -1   -1    0    0    0  501 -0.00000000000E+00 -0.00000000000E+00 -0.25837147742E+01  0.25837196899E+01  0.50400000000E-02 0.  1.
         23    2    1    2    0    0  0.00000000000E+00 -0.17763568394E-14  0.65378485578E+03  0.65895229026E+03  0.82361903791E+02 0.  0.
    9000005    2    3    3    0    0  0.33250912174E+02  0.15942908128E+02  0.46883701398E+03  0.47036410487E+03  0.86282096216E+01 0.  0.
         22    1    3    3    0    0 -0.33250912174E+02 -0.15942908128E+02  0.18494784180E+03  0.18858818539E+03  0.00000000000E+00 0.  1.
         22    1    4    4    0    0  0.30585559056E+02  0.12800035840E+02  0.43797085591E+03  0.43922407489E+03  0.00000000000E+00 0. -1.
         22    1    4    4    0    0  0.26653531181E+01  0.31428722880E+01  0.30866158069E+02  0.31140029984E+02  0.00000000000E+00 0. -1.
<mgrwt>
<rscale>  0 0.82361904E+02</rscale>
<asrwt>0</asrwt>
<pdfrwt beam="1">  1        1 0.10097992E+00 0.82361904E+02</pdfrwt>
<pdfrwt beam="2">  1       -1 0.39749442E-03 0.82361904E+02</pdfrwt>
<totfact> 0.18572499E+05</totfact>
</mgrwt>
</event>
<event>
 7    1  0.3300673E-009  0.9189347E+02  0.7818608E-02  0.1298330E+00
          1   -1    0    0  501    0  0.00000000000E+00  0.00000000000E+00  0.27945596031E+03  0.27945596036E+03  0.50400000000E-02 0. -1.
         -1   -1    0    0    0  501 -0.00000000000E+00 -0.00000000000E+00 -0.75543295955E+01  0.75543312767E+01  0.50400000000E-02 0.  1.
         23    2    1    2    0    0  0.00000000000E+00 -0.44408920985E-15  0.27190163072E+03  0.28701029164E+03  0.91893474837E+02 0.  0.
    9000005    2    3    3    0    0 -0.44328355246E+02 -0.11397830399E+01  0.15434255255E+03  0.16136619490E+03  0.15846865481E+02 0.  0.
         22    1    3    3    0    0  0.44328355246E+02  0.11397830399E+01  0.11755907817E+03  0.12564409674E+03  0.00000000000E+00 0.  1.
         22    1    4    4    0    0 -0.22034243086E+01  0.38243280904E+01  0.20229283319E+02  0.20705179729E+02  0.00000000000E+00 0. -1.
         22    1    4    4    0    0 -0.42124930937E+02 -0.49641111303E+01  0.13411326923E+03  0.14066101517E+03  0.00000000000E+00 0. -1.
<mgrwt>
<rscale>  0 0.91893475E+02</rscale>
<asrwt>0</asrwt>
<pdfrwt beam="1">  1        1 0.42993220E-01 0.91893475E+02</pdfrwt>
<pdfrwt beam="2">  1       -1 0.11622048E-02 0.91893475E+02</pdfrwt>
<totfact> 0.12377096E+05</totfact>
</mgrwt>
</event>
<event>
 7    1  0.2787125E-009  0.9264608E+02  0.7818608E-02  0.1296567E+00
          1   -1    0    0  501    0  0.00000000000E+00  0.00000000000E+00  0.45761422821E+02  0.45761423098E+02  0.50400000000E-02 0. -1.
         -1   -1    0    0    0  501 -0.00000000000E+00 -0.00000000000E+00 -0.46891548002E+02  0.46891548272E+02  0.50400000000E-02 0.  1.
         23    2    1    2    0    0  0.00000000000E+00  0.00000000000E+00 -0.11301251810E+01  0.92652971371E+02  0.92646078821E+02 0.  0.
    9000005    2    3    3    0    0 -0.72693454742E+01 -0.41212026232E+02 -0.18060852641E+02  0.47509599519E+02  0.13404967684E+02 0.  0.
         22    1    3    3    0    0  0.72693454742E+01  0.41212026232E+02  0.16930727460E+02  0.45143371851E+02  0.00000000000E+00 0. -1.
         22    1    4    4    0    0 -0.50997437908E+01 -0.11451154371E+02 -0.11381184562E+02  0.16931263544E+02  0.00000000000E+00 0. -1.
         22    1    4    4    0    0 -0.21696016834E+01 -0.29760871860E+02 -0.66796680792E+01  0.30578335975E+02  0.00000000000E+00 0. -1.
<mgrwt>
<rscale>  0 0.92646079E+02</rscale>
<asrwt>0</asrwt>
<pdfrwt beam="1">  1        1 0.70402190E-02 0.92646079E+02</pdfrwt>
<pdfrwt beam="2">  1       -1 0.72140843E-02 0.92646079E+02</pdfrwt>
<totfact> 0.88456729E+04</totfact>
</mgrwt>
</event>
<event>
 7    1  0.2787125E-009  0.9170644E+02  0.7818608E-02  0.1298771E+00
          1   -1    0    0  501    0  0.00000000000E+00  0.00000000000E+00  0.94393178385E+02  0.94393178519E+02  0.50400000000E-02 0. -1.
         -1   -1    0    0    0  501 -0.00000000000E+00 -0.00000000000E+00 -0.22274044557E+02  0.22274045127E+02  0.50400000000E-02 0.  1.
         23    2    1    2    0    0  0.00000000000E+00  0.00000000000E+00  0.72119133828E+02  0.11666722365E+03  0.91706442573E+02 0.  0.
    9000005    2    3    3    0    0  0.23115782070E+02 -0.36491044146E+01 -0.12608953230E+02  0.28766688494E+02  0.10994604204E+02 0.  0.
         22    1    3    3    0    0 -0.23115782070E+02  0.36491044146E+01  0.84728087058E+02  0.87900535153E+02  0.00000000000E+00 0. -1.
         22    1    4    4    0    0  0.17828299437E+02 -0.41583831749E+01 -0.14258594580E+02  0.23204480836E+02  0.00000000000E+00 0. -1.
         22    1    4    4    0    0  0.52874826327E+01  0.50927876030E+00  0.16496413501E+01  0.55622076580E+01  0.00000000000E+00 0. -1.
<mgrwt>
<rscale>  0 0.91706443E+02</rscale>
<asrwt>0</asrwt>
<pdfrwt beam="1">  1        1 0.14522028E-01 0.91706443E+02</pdfrwt>
<pdfrwt beam="2">  1       -1 0.34267760E-02 0.91706443E+02</pdfrwt>
<totfact> 0.10183578E+05</totfact>
</mgrwt>
</event>
<event>
 7    1  0.2787125E-009  0.9249290E+02  0.7818608E-02  0.1296925E+00
         -1   -1    0    0    0  501 -0.00000000000E+00  0.00000000000E+00  0.46589931480E+01  0.46589958741E+01  0.50400000000E-02 0.  1.
          1   -1    0    0  501    0  0.00000000000E+00 -0.00000000000E+00 -0.45905483964E+03  0.45905483967E+03  0.50400000000E-02 0. -1.
         23    2    1    2    0    0  0.00000000000E+00 -0.71054273576E-14 -0.45439584649E+03  0.46371383554E+03  0.92492896828E+02 0.  0.
    9000005    2    3    3    0    0 -0.23887405276E+02  0.32203133663E+02 -0.33807171562E+03  0.34067338133E+03  0.12578469647E+02 0.  0.
         22    1    3    3    0    0  0.23887405276E+02 -0.32203133663E+02 -0.11632413087E+03  0.12304045421E+03  0.00000000000E+00 0.  1.
         22    1    4    4    0    0 -0.14178661743E+01  0.51655765520E+00 -0.30060751717E+01  0.33635790814E+01  0.00000000000E+00 0. -1.
         22    1    4    4    0    0 -0.22469539102E+02  0.31686576008E+02 -0.33506564045E+03  0.33730980225E+03  0.00000000000E+00 0. -1.
<mgrwt>
<rscale>  0 0.92492897E+02</rscale>
<asrwt>0</asrwt>
<pdfrwt beam="2">  1        1 0.70623786E-01 0.92492897E+02</pdfrwt>
<pdfrwt beam="1">  1       -1 0.71676875E-03 0.92492897E+02</pdfrwt>
<totfact> 0.13260064E+05</totfact>
</mgrwt>
</event>
<event>
 7    1  0.2787125E-009  0.9157971E+02  0.7818608E-02  0.1299071E+00
         -1   -1    0    0    0  501 -0.00000000000E+00  0.00000000000E+00  0.81125040768E+02  0.81125040925E+02  0.50400000000E-02 0.  1.
          1   -1    0    0  501    0  0.00000000000E+00 -0.00000000000E+00 -0.25845419051E+02  0.25845419542E+02  0.50400000000E-02 0. -1.
         23    2    1    2    0    0  0.00000000000E+00  0.35527136788E-14  0.55279621718E+02  0.10697046047E+03  0.91579707552E+02 0.  0.
    9000005    2    3    3    0    0  0.17309375976E+02 -0.27841631982E+02  0.64918163651E+02  0.72799237798E+02  0.32542409163E+01 0.  0.
         22    1    3    3    0    0 -0.17309375976E+02  0.27841631982E+02 -0.96385419337E+01  0.34171222669E+02  0.00000000000E+00 0. -1.
         22    1    4    4    0    0  0.19767946245E+01 -0.35948303728E+01  0.60065147819E+01  0.72738395791E+01  0.00000000000E+00 0. -1.
         22    1    4    4    0    0  0.15332581351E+02 -0.24246801609E+02  0.58911648869E+02  0.65525398219E+02  0.00000000000E+00 0. -1.
<mgrwt>
<rscale>  0 0.91579708E+02</rscale>
<asrwt>0</asrwt>
<pdfrwt beam="2">  1        1 0.39762184E-02 0.91579708E+02</pdfrwt>
<pdfrwt beam="1">  1       -1 0.12480775E-01 0.91579708E+02</pdfrwt>
<totfact> 0.83501291E+04</totfact>
</mgrwt>
</event>
<event>
 7    1  0.2787125E-009  0.8651250E+02  0.7818608E-02  0.1311524E+00
          1   -1    0    0  501    0  0.00000000000E+00  0.00000000000E+00  0.31328996859E+03  0.31328996863E+03  0.50400000000E-02 0. -1.
         -1   -1    0    0    0  501 -0.00000000000E+00 -0.00000000000E+00 -0.59724319913E+01  0.59724341179E+01  0.50400000000E-02 0.  1.
         23    2    1    2    0    0  0.00000000000E+00  0.00000000000E+00  0.30731753660E+03  0.31926240275E+03  0.86512504921E+02 0.  0.
    9000005    2    3    3    0    0  0.23960198437E+02  0.93770234286E+01  0.28052371299E+03  0.28211501171E+03  0.15274377378E+02 0.  0.
         22    1    3    3    0    0 -0.23960198437E+02 -0.93770234286E+01  0.26793823611E+02  0.37147391042E+02  0.00000000000E+00 0.  1.
         22    1    4    4    0    0  0.33654386971E+01 -0.39840874325E+01  0.39077456507E+02  0.39423936097E+02  0.00000000000E+00 0. -1.
         22    1    4    4    0    0  0.20594759740E+02  0.13361110861E+02  0.24144625648E+03  0.24269107561E+03  0.00000000000E+00 0. -1.
<mgrwt>
<rscale>  0 0.86512505E+02</rscale>
<asrwt>0</asrwt>
<pdfrwt beam="1">  1        1 0.48198465E-01 0.86512505E+02</pdfrwt>
<pdfrwt beam="2">  1       -1 0.91883571E-03 0.86512505E+02</pdfrwt>
<totfact> 0.14849940E+05</totfact>
</mgrwt>
</event>
<event>
 7    1  0.2787125E-009  0.9125310E+02  0.7818608E-02  0.1299845E+00
          1   -1    0    0  501    0  0.00000000000E+00  0.00000000000E+00  0.67594702371E+02  0.67594702559E+02  0.50400000000E-02 0. -1.
         -1   -1    0    0    0  501 -0.00000000000E+00 -0.00000000000E+00 -0.30798008034E+02  0.30798008447E+02  0.50400000000E-02 0.  1.
         23    2    1    2    0    0  0.00000000000E+00  0.88817841970E-15  0.36796694337E+02  0.98392711006E+02  0.91253103317E+02 0.  0.
    9000005    2    3    3    0    0 -0.42680031942E+02  0.76950582570E+01  0.32452475453E+02  0.54807492344E+02  0.83605625328E+01 0.  0.
         22    1    3    3    0    0  0.42680031942E+02 -0.76950582570E+01  0.43442188837E+01  0.43585218662E+02  0.00000000000E+00 0. -1.
         22    1    4    4    0    0 -0.22107778772E+02  0.80221534221E+01  0.18883540934E+02  0.30161182768E+02  0.00000000000E+00 0.  1.
         22    1    4    4    0    0 -0.20572253170E+02 -0.32709516506E+00  0.13568934519E+02  0.24646309576E+02  0.00000000000E+00 0.  1.
<mgrwt>
<rscale>  0 0.91253103E+02</rscale>
<asrwt>0</asrwt>
<pdfrwt beam="1">  1        1 0.10399185E-01 0.91253103E+02</pdfrwt>
<pdfrwt beam="2">  1       -1 0.47381551E-02 0.91253103E+02</pdfrwt>
<totfact> 0.97910769E+04</totfact>
</mgrwt>
</event>
<event>
 7    1  0.2787125E-009  0.9156503E+02  0.7818608E-02  0.1299105E+00
          1   -1    0    0  501    0  0.00000000000E+00  0.00000000000E+00  0.43373550207E+03  0.43373550210E+03  0.50400000000E-02 0. -1.
         -1   -1    0    0    0  501 -0.00000000000E+00 -0.00000000000E+00 -0.48325258583E+01  0.48325284865E+01  0.50400000000E-02 0.  1.
         23    2    1    2    0    0  0.35527136788E-14  0.00000000000E+00  0.42890297621E+03  0.43856803058E+03  0.91565028524E+02 0.  0.
    9000005    2    3    3    0    0 -0.21817962037E+02 -0.50501943714E+01  0.40537157996E+03  0.40608334896E+03  0.87201222936E+01 0.  0.
         22    1    3    3    0    0  0.21817962037E+02  0.50501943714E+01  0.23531396245E+02  0.32484681619E+02  0.00000000000E+00 0.  1.
         22    1    4    4    0    0 -0.73281177098E+00 -0.25947445340E+00  0.22171168064E+01  0.23494567493E+01  0.00000000000E+00 0. -1.
         22    1    4    4    0    0 -0.21085150266E+02 -0.47907199180E+01  0.40315446316E+03  0.40373389221E+03  0.00000000000E+00 0. -1.
<mgrwt>
<rscale>  0 0.91565029E+02</rscale>
<asrwt>0</asrwt>
<pdfrwt beam="1">  1        1 0.66728555E-01 0.91565029E+02</pdfrwt>
<pdfrwt beam="2">  1       -1 0.74346554E-03 0.91565029E+02</pdfrwt>
<totfact> 0.13508646E+05</totfact>
</mgrwt>
</event>
<event>
 7    1  0.2787125E-009  0.8193768E+02  0.7818608E-02  0.1323641E+00
          1   -1    0    0  501    0  0.00000000000E+00  0.00000000000E+00  0.30523074743E+03  0.30523074748E+03  0.50400000000E-02 0. -1.
         -1   -1    0    0    0  501 -0.00000000000E+00 -0.00000000000E+00 -0.54989399206E+01  0.54989422303E+01  0.50400000000E-02 0.  1.
         23    2    1    2    0    0  0.00000000000E+00  0.00000000000E+00  0.29973180751E+03  0.31072968971E+03  0.81937681377E+02 0.  0.
    9000005    2    3    3    0    0  0.38730064841E+02 -0.87291518661E+00  0.10338955648E+03  0.11060208180E+03  0.65299469186E+01 0.  0.
         22    1    3    3    0    0 -0.38730064841E+02  0.87291518661E+00  0.19634225104E+03  0.20012760791E+03  0.00000000000E+00 0. -1.
         22    1    4    4    0    0  0.22704445275E+02 -0.14944180688E+00  0.69342868247E+02  0.72965385936E+02  0.00000000000E+00 0. -1.
         22    1    4    4    0    0  0.16025619567E+02 -0.72347337973E+00  0.34046688229E+02  0.37636695865E+02  0.00000000000E+00 0. -1.
<mgrwt>
<rscale>  0 0.81937681E+02</rscale>
<asrwt>0</asrwt>
<pdfrwt beam="1">  1        1 0.46958569E-01 0.81937681E+02</pdfrwt>
<pdfrwt beam="2">  1       -1 0.84599108E-03 0.81937681E+02</pdfrwt>
<totfact> 0.17057988E+05</totfact>
</mgrwt>
</event>
<event>
 7    1  0.2787125E-009  0.8837035E+02  0.7818608E-02  0.1306847E+00
          1   -1    0    0  501    0  0.00000000000E+00  0.00000000000E+00  0.22206850434E+02  0.22206851006E+02  0.50400000000E-02 0. -1.
         -1   -1    0    0    0  501 -0.00000000000E+00 -0.00000000000E+00 -0.87915657702E+02  0.87915657846E+02  0.50400000000E-02 0.  1.
         23    2    1    2    0    0 -0.88817841970E-15  0.00000000000E+00 -0.65708807268E+02  0.11012250885E+03  0.88370354776E+02 0.  0.
    9000005    2    3    3    0    0 -0.73181064119E+01  0.40742391385E+02 -0.49084926074E+02  0.65514767784E+02  0.13013750145E+02 0.  0.
         22    1    3    3    0    0  0.73181064119E+01 -0.40742391385E+02 -0.16623881194E+02  0.44607741068E+02  0.00000000000E+00 0. -1.
         22    1    4    4    0    0 -0.92742091932E+01  0.33920170730E+02 -0.45667442494E+02  0.57637698101E+02  0.00000000000E+00 0.  1.
         22    1    4    4    0    0  0.19561027813E+01  0.68222206557E+01 -0.34174835803E+01  0.78770696828E+01  0.00000000000E+00 0.  1.
<mgrwt>
<rscale>  0 0.88370355E+02</rscale>
<asrwt>0</asrwt>
<pdfrwt beam="1">  1        1 0.34164386E-02 0.88370355E+02</pdfrwt>
<pdfrwt beam="2">  1       -1 0.13525486E-01 0.88370355E+02</pdfrwt>
<totfact> 0.90235130E+04</totfact>
</mgrwt>
</event>
<event>
 7    1  0.2787125E-009  0.9019330E+02  0.7818608E-02  0.1302384E+00
         -1   -1    0    0    0  501 -0.00000000000E+00  0.00000000000E+00  0.27352562821E+01  0.27352609254E+01  0.50400000000E-02 0.  1.
          1   -1    0    0  501    0  0.00000000000E+00 -0.00000000000E+00 -0.74351568715E+03  0.74351568717E+03  0.50400000000E-02 0. -1.
         23    2    1    2    0    0  0.00000000000E+00  0.00000000000E+00 -0.74078043087E+03  0.74625094809E+03  0.90193296714E+02 0.  0.
    9000005    2    3    3    0    0  0.11499244024E+02  0.35587803693E+02 -0.56978277849E+03  0.57121117688E+03  0.15200972092E+02 0.  0.
         22    1    3    3    0    0 -0.11499244024E+02 -0.35587803693E+02 -0.17099765238E+03  0.17503977121E+03  0.00000000000E+00 0.  1.
         22    1    4    4    0    0 -0.10933083863E+01  0.44610282423E+01 -0.15623374230E+03  0.15630124225E+03  0.00000000000E+00 0. -1.
         22    1    4    4    0    0  0.12592552411E+02  0.31126775451E+02 -0.41354903618E+03  0.41490993463E+03  0.00000000000E+00 0. -1.
<mgrwt>
<rscale>  0 0.90193297E+02</rscale>
<asrwt>0</asrwt>
<pdfrwt beam="2">  1        1 0.11438687E+00 0.90193297E+02</pdfrwt>
<pdfrwt beam="1">  1       -1 0.42080961E-03 0.90193297E+02</pdfrwt>
<totfact> 0.14608882E+05</totfact>
</mgrwt>
</event>
<event>
 7    1  0.2787125E-009  0.8947585E+02  0.7818608E-02  0.1304126E+00
         -1   -1    0    0    0  501 -0.00000000000E+00  0.00000000000E+00  0.28692285437E+02  0.28692285880E+02  0.50400000000E-02 0.  1.
          1   -1    0    0  501    0  0.00000000000E+00 -0.00000000000E+00 -0.69756803793E+02  0.69756803975E+02  0.50400000000E-02 0. -1.
         23    2    1    2    0    0 -0.44408920985E-15  0.00000000000E+00 -0.41064518356E+02  0.98449089854E+02  0.89475854985E+02 0.  0.
    9000005    2    3    3    0    0 -0.29711101488E+01 -0.43125243559E+02 -0.99450064952E+01  0.45185235825E+02  0.86132604077E+01 0.  0.
         22    1    3    3    0    0  0.29711101488E+01  0.43125243559E+02 -0.31119511860E+02  0.53263854029E+02  0.00000000000E+00 0. -1.
         22    1    4    4    0    0 -0.15843902361E+01 -0.19050298908E+01  0.72908469490E+00  0.25828270940E+01  0.00000000000E+00 0.  1.
         22    1    4    4    0    0 -0.13867199127E+01 -0.41220213668E+02 -0.10674091190E+02  0.42602408731E+02  0.00000000000E+00 0.  1.
<mgrwt>
<rscale>  0 0.89475855E+02</rscale>
<asrwt>0</asrwt>
<pdfrwt beam="2">  1        1 0.10731816E-01 0.89475855E+02</pdfrwt>
<pdfrwt beam="1">  1       -1 0.44141979E-02 0.89475855E+02</pdfrwt>
<totfact> 0.10386002E+05</totfact>
</mgrwt>
</event>
<event>
 7    1  0.2787125E-009  0.9384226E+02  0.7818608E-02  0.1293805E+00
         -1   -1    0    0    0  501 -0.00000000000E+00  0.00000000000E+00  0.90934438803E+02  0.90934438942E+02  0.50400000000E-02 0.  1.
          1   -1    0    0  501    0  0.00000000000E+00 -0.00000000000E+00 -0.24210763610E+02  0.24210764135E+02  0.50400000000E-02 0. -1.
         23    2    1    2    0    0  0.00000000000E+00  0.00000000000E+00  0.66723675192E+02  0.11514520308E+03  0.93842255730E+02 0.  0.
    9000005    2    3    3    0    0 -0.32400427773E+02  0.33181029790E+02  0.38166348901E+02  0.60681551505E+02  0.86493957473E+01 0.  0.
         22    1    3    3    0    0  0.32400427773E+02 -0.33181029790E+02  0.28557326291E+02  0.54463651573E+02  0.00000000000E+00 0. -1.
         22    1    4    4    0    0 -0.20373858143E+02  0.21924067475E+02  0.29682813591E+02  0.42152440652E+02  0.00000000000E+00 0.  1.
         22    1    4    4    0    0 -0.12026569630E+02  0.11256962315E+02  0.84835353107E+01  0.18529110853E+02  0.00000000000E+00 0.  1.
<mgrwt>
<rscale>  0 0.93842256E+02</rscale>
<asrwt>0</asrwt>
<pdfrwt beam="2">  1        1 0.37247329E-02 0.93842256E+02</pdfrwt>
<pdfrwt beam="1">  1       -1 0.13989914E-01 0.93842256E+02</pdfrwt>
<totfact> 0.76875211E+04</totfact>
</mgrwt>
</event>
<event>
 7    1  0.2787125E-009  0.9187764E+02  0.7818608E-02  0.1298367E+00
          1   -1    0    0  501    0  0.00000000000E+00  0.00000000000E+00  0.11071013529E+02  0.11071014676E+02  0.50400000000E-02 0. -1.
         -1   -1    0    0    0  501 -0.00000000000E+00 -0.00000000000E+00 -0.19062168548E+03  0.19062168554E+03  0.50400000000E-02 0.  1.
         23    2    1    2    0    0  0.71054273576E-14  0.00000000000E+00 -0.17955067195E+03  0.20169270022E+03  0.91877644314E+02 0.  0.
    9000005    2    3    3    0    0  0.35127186606E+02 -0.22511391315E+02 -0.54163707091E+02  0.69546671396E+02  0.12741678013E+02 0.  0.
         22    1    3    3    0    0 -0.35127186606E+02  0.22511391315E+02 -0.12538696486E+03  0.13214602882E+03  0.00000000000E+00 0.  1.
         22    1    4    4    0    0  0.16699364079E+02 -0.18126894327E+02 -0.29240448773E+02  0.38242082881E+02  0.00000000000E+00 0. -1.
         22    1    4    4    0    0  0.18427822527E+02 -0.43844969880E+01 -0.24923258318E+02  0.31304588515E+02  0.00000000000E+00 0. -1.
<mgrwt>
<rscale>  0 0.91877644E+02</rscale>
<asrwt>0</asrwt>
<pdfrwt beam="1">  1        1 0.17032331E-02 0.91877644E+02</pdfrwt>
<pdfrwt beam="2">  1       -1 0.29326411E-01 0.91877644E+02</pdfrwt>
<totfact> 0.68977789E+04</totfact>
</mgrwt>
</event>
<event>
 7    1  0.2787125E-009  0.9033569E+02  0.7818608E-02  0.1302041E+00
         -1   -1    0    0    0  501 -0.00000000000E+00  0.00000000000E+00  0.41922940667E+01  0.41922970962E+01  0.50400000000E-02 0.  1.
          1   -1    0    0  501    0  0.00000000000E+00 -0.00000000000E+00 -0.48663892880E+03  0.48663892883E+03  0.50400000000E-02 0. -1.
         23    2    1    2    0    0 -0.71054273576E-14  0.00000000000E+00 -0.48244663474E+03  0.49083122593E+03  0.90335690482E+02 0.  0.
    9000005    2    3    3    0    0  0.40137092710E+02 -0.19747971369E+02 -0.27406985904E+03  0.27770720280E+03  0.24564745597E+01 0.  0.
         22    1    3    3    0    0 -0.40137092710E+02  0.19747971369E+02 -0.20837677570E+03  0.21312402313E+03  0.00000000000E+00 0.  1.
         22    1    4    4    0    0  0.38365563379E+02 -0.18332395994E+02 -0.26150844595E+03  0.26494274948E+03  0.00000000000E+00 0.  1.
         22    1    4    4    0    0  0.17715293314E+01 -0.14155753744E+01 -0.12561413084E+02  0.12764453316E+02  0.00000000000E+00 0.  1.
<mgrwt>
<rscale>  0 0.90335690E+02</rscale>
<asrwt>0</asrwt>
<pdfrwt beam="2">  1        1 0.74867483E-01 0.90335690E+02</pdfrwt>
<pdfrwt beam="1">  1       -1 0.64496894E-03 0.90335690E+02</pdfrwt>
<totfact> 0.14225700E+05</totfact>
</mgrwt>
</event>
<event>
 7    1  0.2787125E-009  0.8506231E+02  0.7818608E-02  0.1315270E+00
         -1   -1    0    0    0  501 -0.00000000000E+00  0.00000000000E+00  0.84553801257E+01  0.84553816278E+01  0.50400000000E-02 0.  1.
          1   -1    0    0  501    0  0.00000000000E+00 -0.00000000000E+00 -0.21393469090E+03  0.21393469096E+03  0.50400000000E-02 0. -1.
         23    2    1    2    0    0 -0.88817841970E-15  0.35527136788E-14 -0.20547931077E+03  0.22239007258E+03  0.85062313799E+02 0.  0.
    9000005    2    3    3    0    0 -0.70730385280E+01 -0.31802785612E+02 -0.32400954517E+02  0.46272037022E+02  0.54620975659E+01 0.  0.
         22    1    3    3    0    0  0.70730385280E+01  0.31802785612E+02 -0.17307835625E+03  0.17611803556E+03  0.00000000000E+00 0. -1.
         22    1    4    4    0    0 -0.57713679216E+01 -0.24362991181E+02 -0.21450471557E+02  0.32969482206E+02  0.00000000000E+00 0.  1.
         22    1    4    4    0    0 -0.13016706064E+01 -0.74397944315E+01 -0.10950482961E+02  0.13302554816E+02  0.00000000000E+00 0.  1.
<mgrwt>
<rscale>  0 0.85062314E+02</rscale>
<asrwt>0</asrwt>
<pdfrwt beam="2">  1        1 0.32913025E-01 0.85062314E+02</pdfrwt>
<pdfrwt beam="1">  1       -1 0.13008280E-02 0.85062314E+02</pdfrwt>
<totfact> 0.14436523E+05</totfact>
</mgrwt>
</event>
<event>
 7    1  0.2787125E-009  0.8948995E+02  0.7818608E-02  0.1304092E+00
         -1   -1    0    0    0  501 -0.00000000000E+00  0.00000000000E+00  0.12344361464E+02  0.12344362493E+02  0.50400000000E-02 0.  1.
          1   -1    0    0  501    0  0.00000000000E+00 -0.00000000000E+00 -0.16218842737E+03  0.16218842745E+03  0.50400000000E-02 0. -1.
         23    2    1    2    0    0  0.00000000000E+00  0.00000000000E+00 -0.14984406591E+03  0.17453278994E+03  0.89489947354E+02 0.  0.
    9000005    2    3    3    0    0  0.10581017164E+02  0.18299938469E+02 -0.15157310572E+03  0.15332347004E+03  0.93184985540E+01 0.  0.
         22    1    3    3    0    0 -0.10581017164E+02 -0.18299938469E+02  0.17290398095E+01  0.21209319906E+02  0.00000000000E+00 0.  1.
         22    1    4    4    0    0  0.39400919251E+01  0.15317477976E+02 -0.10222901194E+03  0.10344525286E+03  0.00000000000E+00 0. -1.
         22    1    4    4    0    0  0.66409252394E+01  0.29824604930E+01 -0.49344093771E+02  0.49878217176E+02  0.00000000000E+00 0. -1.
<mgrwt>
<rscale>  0 0.89489947E+02</rscale>
<asrwt>0</asrwt>
<pdfrwt beam="2">  1        1 0.24952064E-01 0.89489947E+02</pdfrwt>
<pdfrwt beam="1">  1       -1 0.18991327E-02 0.89489947E+02</pdfrwt>
<totfact> 0.11962465E+05</totfact>
</mgrwt>
</event>
<event>
 7    1  0.2787125E-009  0.9119969E+02  0.7818608E-02  0.1299972E+00
         -1   -1    0    0    0  501 -0.00000000000E+00  0.00000000000E+00  0.49508938728E+01  0.49508964381E+01  0.50400000000E-02 0.  1.
          1   -1    0    0  501    0  0.00000000000E+00 -0.00000000000E+00 -0.41999389862E+03  0.41999389865E+03  0.50400000000E-02 0. -1.
         23    2    1    2    0    0  0.00000000000E+00 -0.35527136788E-14 -0.41504300475E+03  0.42494479509E+03  0.91199687955E+02 0.  0.
    9000005    2    3    3    0    0 -0.23525685300E+02 -0.30503747006E+02 -0.32111960882E+03  0.32342858578E+03  0.20761694520E+01 0.  0.
         22    1    3    3    0    0  0.23525685300E+02  0.30503747006E+02 -0.93923395930E+02  0.10151620931E+03  0.00000000000E+00 0.  1.
         22    1    4    4    0    0 -0.16415894382E+02 -0.21012900631E+02 -0.21418260077E+03  0.21583607218E+03  0.00000000000E+00 0.  1.
         22    1    4    4    0    0 -0.71097909183E+01 -0.94908463747E+01 -0.10693700805E+03  0.10759251360E+03  0.00000000000E+00 0.  1.
<mgrwt>
<rscale>  0 0.91199688E+02</rscale>
<asrwt>0</asrwt>
<pdfrwt beam="2">  1        1 0.64614418E-01 0.91199688E+02</pdfrwt>
<pdfrwt beam="1">  1       -1 0.76167651E-03 0.91199688E+02</pdfrwt>
<totfact> 0.13585719E+05</totfact>
</mgrwt>
</event>
<event>
 7    1  0.2787125E-009  0.8968593E+02  0.7818608E-02  0.1303614E+00
         -1   -1    0    0    0  501 -0.00000000000E+00  0.00000000000E+00  0.95200414975E+01  0.95200428316E+01  0.50400000000E-02 0.  1.
          1   -1    0    0  501    0  0.00000000000E+00 -0.00000000000E+00 -0.21122714513E+03  0.21122714519E+03  0.50400000000E-02 0. -1.
         23    2    1    2    0    0  0.00000000000E+00  0.00000000000E+00 -0.20170710363E+03  0.22074718802E+03  0.89685926230E+02 0.  0.
    9000005    2    3    3    0    0 -0.19935752716E+02 -0.29616494847E+02 -0.40012667573E+02  0.55158354896E+02  0.12917412479E+02 0.  0.
         22    1    3    3    0    0  0.19935752716E+02  0.29616494847E+02 -0.16169443606E+03  0.16558883313E+03  0.00000000000E+00 0.  1.
         22    1    4    4    0    0 -0.16425170096E+02 -0.24665281453E+02 -0.39037370649E+02  0.49011005183E+02  0.00000000000E+00 0. -1.
         22    1    4    4    0    0 -0.35105826206E+01 -0.49512133938E+01 -0.97529692395E+00  0.61473497132E+01  0.00000000000E+00 0. -1.
<mgrwt>
<rscale>  0 0.89685926E+02</rscale>
<asrwt>0</asrwt>
<pdfrwt beam="2">  1        1 0.32496481E-01 0.89685926E+02</pdfrwt>
<pdfrwt beam="1">  1       -1 0.14646220E-02 0.89685926E+02</pdfrwt>
<totfact> 0.12506618E+05</totfact>
</mgrwt>
</event>
<event>
 7    1  0.2787125E-009  0.9395665E+02  0.7818608E-02  0.1293543E+00
          1   -1    0    0  501    0  0.00000000000E+00  0.00000000000E+00  0.11343199049E+02  0.11343200169E+02  0.50400000000E-02 0. -1.
         -1   -1    0    0    0  501 -0.00000000000E+00 -0.00000000000E+00 -0.19456263851E+03  0.19456263858E+03  0.50400000000E-02 0.  1.
         23    2    1    2    0    0  0.00000000000E+00  0.00000000000E+00 -0.18321943946E+03  0.20590583874E+03  0.93956646559E+02 0.  0.
    9000005    2    3    3    0    0  0.32591775587E+01  0.42697117892E+02 -0.58571690285E+02  0.74107783033E+02  0.15088223507E+02 0.  0.
         22    1    3    3    0    0 -0.32591775587E+01 -0.42697117892E+02 -0.12464774918E+03  0.13179805571E+03  0.00000000000E+00 0.  1.
         22    1    4    4    0    0  0.48455617460E+01  0.10028204312E+02 -0.24314633883E+02  0.26744079180E+02  0.00000000000E+00 0.  1.
         22    1    4    4    0    0 -0.15863841873E+01  0.32668913581E+02 -0.34257056403E+02  0.47363703853E+02  0.00000000000E+00 0.  1.
<mgrwt>
<rscale>  0 0.93956647E+02</rscale>
<asrwt>0</asrwt>
<pdfrwt beam="1">  1        1 0.17451078E-02 0.93956647E+02</pdfrwt>
<pdfrwt beam="2">  1       -1 0.29932711E-01 0.93956647E+02</pdfrwt>
<totfact> 0.64695893E+04</totfact>
</mgrwt>
</event>
<event>
 7    1  0.2787125E-009  0.9099226E+02  0.7818608E-02  0.1300466E+00
          1   -1    0    0  501    0  0.00000000000E+00  0.00000000000E+00  0.10241854097E+03  0.10241854109E+03  0.50400000000E-02 0. -1.
         -1   -1    0    0    0  501 -0.00000000000E+00 -0.00000000000E+00 -0.20210187416E+02  0.20210188044E+02  0.50400000000E-02 0.  1.
         23    2    1    2    0    0  0.00000000000E+00  0.00000000000E+00  0.82208353555E+02  0.12262872914E+03  0.90992262396E+02 0.  0.
    9000005    2    3    3    0    0  0.52619547469E+01  0.22690713155E+02  0.93394905695E+02  0.96788923024E+02  0.10145470869E+02 0.  0.
         22    1    3    3    0    0 -0.52619547469E+01 -0.22690713155E+02 -0.11186552140E+02  0.25839806114E+02  0.00000000000E+00 0.  1.
         22    1    4    4    0    0 -0.10683317424E+01  0.51512664217E+01  0.37463549218E+02  0.37831130019E+02  0.00000000000E+00 0.  1.
         22    1    4    4    0    0  0.63302864893E+01  0.17539446734E+02  0.55931356477E+02  0.58957793005E+02  0.00000000000E+00 0.  1.
<mgrwt>
<rscale>  0 0.90992262E+02</rscale>
<asrwt>0</asrwt>
<pdfrwt beam="1">  1        1 0.15756699E-01 0.90992262E+02</pdfrwt>
<pdfrwt beam="2">  1       -1 0.31092596E-02 0.90992262E+02</pdfrwt>
<totfact> 0.10544955E+05</totfact>
</mgrwt>
</event>
<event>
 7    1  0.2787125E-009  0.9093015E+02  0.7818608E-02  0.1300615E+00
         -1   -1    0    0    0  501 -0.00000000000E+00  0.00000000000E+00  0.43586952105E+01  0.43586981244E+01  0.50400000000E-02 0.  1.
          1   -1    0    0  501    0  0.00000000000E+00 -0.00000000000E+00 -0.47424104105E+03  0.47424104108E+03  0.50400000000E-02 0. -1.
         23    2    1    2    0    0  0.00000000000E+00  0.00000000000E+00 -0.46988234584E+03  0.47859973920E+03  0.90930145892E+02 0.  0.
    9000005    2    3    3    0    0 -0.30884361147E+02  0.32586490634E+02 -0.24099629387E+03  0.24535191408E+03  0.10130397366E+02 0.  0.
         22    1    3    3    0    0  0.30884361147E+02 -0.32586490634E+02 -0.22888605197E+03  0.23324782512E+03  0.00000000000E+00 0.  1.
         22    1    4    4    0    0 -0.22281904472E+02  0.17837632585E+02 -0.16605725102E+03  0.16849235893E+03  0.00000000000E+00 0.  1.
         22    1    4    4    0    0 -0.86024566747E+01  0.14748858049E+02 -0.74939042854E+02  0.76859555153E+02  0.00000000000E+00 0.  1.
<mgrwt>
<rscale>  0 0.90930146E+02</rscale>
<asrwt>0</asrwt>
<pdfrwt beam="2">  1        1 0.72960120E-01 0.90930146E+02</pdfrwt>
<pdfrwt beam="1">  1       -1 0.67056910E-03 0.90930146E+02</pdfrwt>
<totfact> 0.13934646E+05</totfact>
</mgrwt>
</event>
<event>
 6    1  0.2787125E-009  0.2761471E+03  0.7818608E-02  0.1097812E+00
          1   -1    0    0  501    0  0.00000000000E+00  0.00000000000E+00  0.31372648347E+03  0.31372648351E+03  0.50400000000E-02 0. -1.
         -1   -1    0    0    0  501 -0.00000000000E+00 -0.00000000000E+00 -0.60767278822E+02  0.60767279031E+02  0.50400000000E-02 0.  1.
    9000005    2    1    2    0    0 -0.11622470977E+03 -0.71261959794E+02  0.15584577079E+03  0.20710956642E+03  0.44741656026E+01 0.  0.
         22    1    1    2    0    0  0.11622470977E+03  0.71261959794E+02  0.97113433863E+02  0.16738419612E+03  0.00000000000E+00 0.  1.
         22    1    3    3    0    0 -0.10691913632E+03 -0.66177807766E+02  0.14530192525E+03  0.19215580509E+03  0.00000000000E+00 0.  1.
         22    1    3    3    0    0 -0.93055734522E+01 -0.50841520278E+01  0.10543845542E+02  0.14953761331E+02  0.00000000000E+00 0.  1.
<mgrwt>
<rscale>  0 0.27614710E+03</rscale>
<asrwt>0</asrwt>
<pdfrwt beam="1">  1        1 0.48265612E-01 0.27614710E+03</pdfrwt>
<pdfrwt beam="2">  1       -1 0.93488123E-02 0.27614710E+03</pdfrwt>
<totfact> 0.55667100E+03</totfact>
</mgrwt>
</event>
<event>
 7    1  0.2787125E-009  0.9097805E+02  0.7818608E-02  0.1300500E+00
          1   -1    0    0  501    0  0.00000000000E+00  0.00000000000E+00  0.18176179158E+04  0.18176179158E+04  0.50400000000E-02 0. -1.
         -1   -1    0    0    0  501 -0.00000000000E+00 -0.00000000000E+00 -0.11384357870E+01  0.11384469433E+01  0.50400000000E-02 0.  1.
         23    2    1    2    0    0  0.00000000000E+00 -0.41633363423E-16  0.18164794800E+04  0.18187563627E+04  0.90978050847E+02 0.  0.
    9000005    2    3    3    0    0 -0.23094235960E+02  0.11295019978E+00  0.16900309342E+04  0.16902161308E+04  0.96256823707E+01 0.  0.
         22    1    3    3    0    0  0.23094235960E+02 -0.11295019978E+00  0.12644854581E+03  0.12854023195E+03  0.00000000000E+00 0.  1.
         22    1    4    4    0    0  0.61729472082E+00  0.11291769748E+01  0.86654383205E+02  0.86663938418E+02  0.00000000000E+00 0. -1.
         22    1    4    4    0    0 -0.23711530681E+02 -0.10162267750E+01  0.16033765510E+04  0.16035521924E+04  0.00000000000E+00 0. -1.
<mgrwt>
<rscale>  0 0.90978051E+02</rscale>
<asrwt>0</asrwt>
<pdfrwt beam="1">  1        1 0.27963365E+00 0.90978051E+02</pdfrwt>
<pdfrwt beam="2">  1       -1 0.17514475E-03 0.90978051E+02</pdfrwt>
<totfact> 0.91412279E+04</totfact>
</mgrwt>
</event>
<event>
 7    1  0.2787125E-009  0.8754887E+02  0.7818608E-02  0.1308898E+00
         -1   -1    0    0    0  501 -0.00000000000E+00  0.00000000000E+00  0.15934488936E+02  0.15934489733E+02  0.50400000000E-02 0.  1.
          1   -1    0    0  501    0  0.00000000000E+00 -0.00000000000E+00 -0.12025494988E+03  0.12025494999E+03  0.50400000000E-02 0. -1.
         23    2    1    2    0    0  0.00000000000E+00 -0.35527136788E-14 -0.10432046095E+03  0.13618943972E+03  0.87548871605E+02 0.  0.
    9000005    2    3    3    0    0 -0.14099851399E+02  0.28044416742E+02 -0.50958250716E+01  0.32118197370E+02  0.45073328364E+01 0.  0.
         22    1    3    3    0    0  0.14099851399E+02 -0.28044416742E+02 -0.99224635874E+02  0.10407124235E+03  0.00000000000E+00 0. -1.
         22    1    4    4    0    0 -0.29253069548E+01  0.89954143423E+01 -0.26576404022E-01  0.94591546279E+01  0.00000000000E+00 0.  1.
         22    1    4    4    0    0 -0.11174544444E+02  0.19049002400E+02 -0.50692486675E+01  0.22659042743E+02  0.00000000000E+00 0.  1.
<mgrwt>
<rscale>  0 0.87548872E+02</rscale>
<asrwt>0</asrwt>
<pdfrwt beam="2">  1        1 0.18500761E-01 0.87548872E+02</pdfrwt>
<pdfrwt beam="1">  1       -1 0.24514600E-02 0.87548872E+02</pdfrwt>
<totfact> 0.12028163E+05</totfact>
</mgrwt>
</event>
<event>
 7    1  0.2787125E-009  0.9008483E+02  0.7818608E-02  0.1302646E+00
          1   -1    0    0  501    0  0.00000000000E+00  0.00000000000E+00  0.12127310972E+03  0.12127310982E+03  0.50400000000E-02 0. -1.
         -1   -1    0    0    0  501 -0.00000000000E+00 -0.00000000000E+00 -0.16729339384E+02  0.16729340143E+02  0.50400000000E-02 0.  1.
         23    2    1    2    0    0  0.35527136788E-14 -0.44408920985E-15  0.10454377033E+03  0.13800244996E+03  0.90084828250E+02 0.  0.
    9000005    2    3    3    0    0  0.25042293332E+02 -0.28339316832E+01  0.10897590323E+03  0.11241355733E+03  0.11221085695E+02 0.  0.
         22    1    3    3    0    0 -0.25042293332E+02  0.28339316832E+01 -0.44321328931E+01  0.25588892632E+02  0.00000000000E+00 0.  1.
         22    1    4    4    0    0  0.84050862084E+00 -0.17318709237E+01  0.23264293750E+02  0.23343804217E+02  0.00000000000E+00 0. -1.
         22    1    4    4    0    0  0.24201784712E+02 -0.11020607595E+01  0.85711609475E+02  0.89069753115E+02  0.00000000000E+00 0. -1.
<mgrwt>
<rscale>  0 0.90084828E+02</rscale>
<asrwt>0</asrwt>
<pdfrwt beam="1">  1        1 0.18657401E-01 0.90084828E+02</pdfrwt>
<pdfrwt beam="2">  1       -1 0.25737446E-02 0.90084828E+02</pdfrwt>
<totfact> 0.11151611E+05</totfact>
</mgrwt>
</event>
<event>
 7    1  0.2787125E-009  0.8924670E+02  0.7818608E-02  0.1304686E+00
         -1   -1    0    0    0  501 -0.00000000000E+00  0.00000000000E+00  0.45329888608E+02  0.45329888888E+02  0.50400000000E-02 0.  1.
          1   -1    0    0  501    0  0.00000000000E+00 -0.00000000000E+00 -0.43927826172E+02  0.43927826461E+02  0.50400000000E-02 0. -1.
         23    2    1    2    0    0  0.00000000000E+00  0.88817841970E-15  0.14020624362E+01  0.89257715349E+02  0.89246702853E+02 0.  0.
    9000005    2    3    3    0    0 -0.16147320153E+02 -0.66145173624E+01 -0.39876437728E+02  0.44442512974E+02  0.89732316095E+01 0.  0.
         22    1    3    3    0    0  0.16147320153E+02  0.66145173624E+01  0.41278500164E+02  0.44815202375E+02  0.00000000000E+00 0.  1.
         22    1    4    4    0    0  0.67507199875E+00  0.49629542184E+00 -0.36437115380E+00  0.91367263664E+00  0.00000000000E+00 0. -1.
         22    1    4    4    0    0 -0.16822392151E+02 -0.71108127843E+01 -0.39512066574E+02  0.43528840338E+02  0.00000000000E+00 0. -1.
<mgrwt>
<rscale>  0 0.89246703E+02</rscale>
<asrwt>0</asrwt>
<pdfrwt beam="2">  1        1 0.67581271E-02 0.89246703E+02</pdfrwt>
<pdfrwt beam="1">  1       -1 0.69738291E-02 0.89246703E+02</pdfrwt>
<totfact> 0.97644221E+04</totfact>
</mgrwt>
</event>
<event>
 7    1  0.2787125E-009  0.9044093E+02  0.7818608E-02  0.1301787E+00
          1   -1    0    0  501    0  0.00000000000E+00  0.00000000000E+00  0.38463748335E+03  0.38463748338E+03  0.50400000000E-02 0. -1.
         -1   -1    0    0    0  501 -0.00000000000E+00 -0.00000000000E+00 -0.53164085057E+01  0.53164108947E+01  0.50400000000E-02 0.  1.
         23    2    1    2    0    0 -0.35527136788E-14  0.00000000000E+00  0.37932107485E+03  0.38995389428E+03  0.90440930122E+02 0.  0.
    9000005    2    3    3    0    0 -0.29085797966E+02  0.33155526728E+02  0.20266588219E+03  0.20787608210E+03  0.13918804161E+02 0.  0.
         22    1    3    3    0    0  0.29085797966E+02 -0.33155526728E+02  0.17665519266E+03  0.18207781218E+03  0.00000000000E+00 0.  1.
         22    1    4    4    0    0 -0.19910888034E+02  0.26739584233E+02  0.17266970709E+03  0.17585868353E+03  0.00000000000E+00 0. -1.
         22    1    4    4    0    0 -0.91749099323E+01  0.64159424951E+01  0.29996175099E+02  0.32017398566E+02  0.00000000000E+00 0. -1.
<mgrwt>
<rscale>  0 0.90440930E+02</rscale>
<asrwt>0</asrwt>
<pdfrwt beam="1">  1        1 0.59175012E-01 0.90440930E+02</pdfrwt>
<pdfrwt beam="2">  1       -1 0.81790899E-03 0.90440930E+02</pdfrwt>
<totfact> 0.13692845E+05</totfact>
</mgrwt>
</event>
<event>
 7    1  0.2878145E-009  0.9246835E+02  0.7818608E-02  0.1296982E+00
         -1   -1    0    0    0  501 -0.00000000000E+00  0.00000000000E+00  0.64498799209E+01  0.64498818900E+01  0.50400000000E-02 0.  1.
          1   -1    0    0  501    0  0.00000000000E+00 -0.00000000000E+00 -0.33141677867E+03  0.33141677871E+03  0.50400000000E-02 0. -1.
         23    2    1    2    0    0  0.00000000000E+00  0.00000000000E+00 -0.32496689875E+03  0.33786666060E+03  0.92468346267E+02 0.  0.
    9000005    2    3    3    0    0 -0.40910862582E+02 -0.16943007945E+02 -0.13101056672E+03  0.13891987643E+03  0.13198457507E+02 0.  0.
         22    1    3    3    0    0  0.40910862582E+02  0.16943007945E+02 -0.19395633204E+03  0.19894678417E+03  0.00000000000E+00 0. -1.
         22    1    4    4    0    0 -0.24775937898E+02 -0.17040212696E+02 -0.85036841438E+02  0.90196897670E+02  0.00000000000E+00 0.  1.
         22    1    4    4    0    0 -0.16134924684E+02  0.97204751369E-01 -0.45973725279E+02  0.48722978761E+02  0.00000000000E+00 0.  1.
<mgrwt>
<rscale>  0 0.92468346E+02</rscale>
<asrwt>0</asrwt>
<pdfrwt beam="2">  1        1 0.50987184E-01 0.92468346E+02</pdfrwt>
<pdfrwt beam="1">  1       -1 0.99228963E-03 0.92468346E+02</pdfrwt>
<totfact> 0.12573403E+05</totfact>
</mgrwt>
</event>
<event>
 7    1  0.2787125E-009  0.8861222E+02  0.7818608E-02  0.1306248E+00
         -1   -1    0    0    0  501 -0.00000000000E+00  0.00000000000E+00  0.15824889709E+02  0.15824890512E+02  0.50400000000E-02 0. -1.
          1   -1    0    0  501    0  0.00000000000E+00 -0.00000000000E+00 -0.12404708709E+03  0.12404708719E+03  0.50400000000E-02 0.  1.
         23    2    1    2    0    0  0.00000000000E+00  0.00000000000E+00 -0.10822219738E+03  0.13987197770E+03  0.88612223428E+02 0.  0.
    9000005    2    3    3    0    0  0.14381589898E+02  0.38809660933E+02 -0.29502157353E+02  0.50934558067E+02  0.33063586060E+01 0.  0.
         22    1    3    3    0    0 -0.14381589898E+02 -0.38809660933E+02 -0.78720040028E+02  0.88937419637E+02  0.00000000000E+00 0.  1.
         22    1    4    4    0    0  0.87858479517E+01  0.27905195538E+02 -0.21258476122E+02  0.36163709285E+02  0.00000000000E+00 0. -1.
         22    1    4    4    0    0  0.55957419467E+01  0.10904465395E+02 -0.82436812311E+01  0.14770848782E+02  0.00000000000E+00 0. -1.
<mgrwt>
<rscale>  0 0.88612223E+02</rscale>
<asrwt>0</asrwt>
<pdfrwt beam="2">  1        1 0.19084167E-01 0.88612223E+02</pdfrwt>
<pdfrwt beam="1">  1       -1 0.24345986E-02 0.88612223E+02</pdfrwt>
<totfact> 0.11705321E+05</totfact>
</mgrwt>
</event>
<event>
 7    1  0.2787125E-009  0.9418472E+02  0.7818608E-02  0.1293023E+00
          1   -1    0    0  501    0  0.00000000000E+00  0.00000000000E+00  0.74573302388E+03  0.74573302389E+03  0.50400000000E-02 0. -1.
         -1   -1    0    0    0  501 -0.00000000000E+00 -0.00000000000E+00 -0.29738373233E+01  0.29738415941E+01  0.50400000000E-02 0.  1.
         23    2    1    2    0    0  0.00000000000E+00  0.35527136788E-14  0.74275918655E+03  0.74870686549E+03  0.94184718607E+02 0.  0.
    9000005    2    3    3    0    0  0.15459211114E+01 -0.31660746203E+02  0.64724024897E+03  0.64806562067E+03  0.80197306940E+01 0.  0.
         22    1    3    3    0    0 -0.15459211114E+01  0.31660746203E+02  0.95518937583E+02  0.10064124482E+03  0.00000000000E+00 0.  1.
         22    1    4    4    0    0  0.17136373120E+01 -0.84321014651E+01  0.24885884518E+03  0.24900755352E+03  0.00000000000E+00 0. -1.
         22    1    4    4    0    0 -0.16771620065E+00 -0.23228644738E+02  0.39838140379E+03  0.39905806714E+03  0.00000000000E+00 0. -1.
<mgrwt>
<rscale>  0 0.94184719E+02</rscale>
<asrwt>0</asrwt>
<pdfrwt beam="1">  1        1 0.11472832E+00 0.94184719E+02</pdfrwt>
<pdfrwt beam="2">  1       -1 0.45751312E-03 0.94184719E+02</pdfrwt>
<totfact> 0.13025034E+05</totfact>
</mgrwt>
</event>
<event>
 7    1  0.2787125E-009  0.7292385E+02  0.7818608E-02  0.1350423E+00
          1   -1    0    0  501    0  0.00000000000E+00  0.00000000000E+00  0.92192598274E+02  0.92192598411E+02  0.50400000000E-02 0. -1.
         -1   -1    0    0    0  501 -0.00000000000E+00 -0.00000000000E+00 -0.14420591288E+02  0.14420592169E+02  0.50400000000E-02 0.  1.
         23    2    1    2    0    0  0.00000000000E+00  0.88817841970E-15  0.77772006985E+02  0.10661319058E+03  0.72923846136E+02 0.  0.
    9000005    2    3    3    0    0 -0.34740123421E+02  0.55975229724E+01  0.33183347592E+02  0.49812160790E+02  0.11912529808E+02 0.  0.
         22    1    3    3    0    0  0.34740123421E+02 -0.55975229724E+01  0.44588659394E+02  0.56801029790E+02  0.00000000000E+00 0.  1.
         22    1    4    4    0    0 -0.18480196813E+02  0.16085505392E+00  0.10107409438E+02  0.21064265336E+02  0.00000000000E+00 0. -1.
         22    1    4    4    0    0 -0.16259926608E+02  0.54366679185E+01  0.23075938154E+02  0.28747895454E+02  0.00000000000E+00 0. -1.
<mgrwt>
<rscale>  0 0.72923846E+02</rscale>
<asrwt>0</asrwt>
<pdfrwt beam="1">  1        1 0.14183476E-01 0.72923846E+02</pdfrwt>
<pdfrwt beam="2">  1       -1 0.22185526E-02 0.72923846E+02</pdfrwt>
<totfact> 0.18802901E+05</totfact>
</mgrwt>
</event>
<event>
 7    1  0.2787125E-009  0.9104209E+02  0.7818608E-02  0.1300348E+00
          1   -1    0    0  501    0  0.00000000000E+00  0.00000000000E+00  0.26173107143E+03  0.26173107148E+03  0.50400000000E-02 0. -1.
         -1   -1    0    0    0  501 -0.00000000000E+00 -0.00000000000E+00 -0.79171550121E+01  0.79171566163E+01  0.50400000000E-02 0.  1.
         23    2    1    2    0    0  0.00000000000E+00 -0.44408920985E-15  0.25381391642E+03  0.26964822809E+03  0.91042093271E+02 0.  0.
    9000005    2    3    3    0    0 -0.15619328302E+02 -0.38552990890E+01  0.25267800909E+03  0.25352008396E+03  0.12939472384E+02 0.  0.
         22    1    3    3    0    0  0.15619328302E+02  0.38552990890E+01  0.11359073239E+01  0.16128144131E+02  0.00000000000E+00 0.  1.
         22    1    4    4    0    0 -0.60415285839E+01 -0.80700613889E+01  0.13651804092E+03  0.13688974197E+03  0.00000000000E+00 0. -1.
         22    1    4    4    0    0 -0.95777997179E+01  0.42147622999E+01  0.11615996817E+03  0.11663034200E+03  0.00000000000E+00 0. -1.
<mgrwt>
<rscale>  0 0.91042093E+02</rscale>
<asrwt>0</asrwt>
<pdfrwt beam="1">  1        1 0.40266320E-01 0.91042093E+02</pdfrwt>
<pdfrwt beam="2">  1       -1 0.12180239E-02 0.91042093E+02</pdfrwt>
<totfact> 0.12527571E+05</totfact>
</mgrwt>
</event>
<event>
 7    1  0.2787125E-009  0.9204315E+02  0.7818608E-02  0.1297978E+00
         -1   -1    0    0    0  501 -0.00000000000E+00  0.00000000000E+00  0.98023080238E+00  0.98024375925E+00  0.50400000000E-02 0.  1.
          1   -1    0    0  501    0  0.00000000000E+00 -0.00000000000E+00 -0.21606862647E+04  0.21606862647E+04  0.50400000000E-02 0. -1.
         23    2    1    2    0    0 -0.17763568394E-14  0.00000000000E+00 -0.21597060339E+04  0.21616665085E+04  0.92043147306E+02 0.  0.
    9000005    2    3    3    0    0  0.12194355501E+02  0.94615313827E+01 -0.20980759170E+04  0.20981330985E+04  0.13123770714E+01 0.  0.
         22    1    3    3    0    0 -0.12194355501E+02 -0.94615313827E+01 -0.61630116850E+02  0.63533409992E+02  0.00000000000E+00 0.  1.
         22    1    4    4    0    0  0.11708420388E+02  0.89775336817E+01 -0.20340186254E+04  0.20340721354E+04  0.00000000000E+00 0. -1.
         22    1    4    4    0    0  0.48593511316E+00  0.48399770105E+00 -0.64057291594E+02  0.64060963098E+02  0.00000000000E+00 0. -1.
<mgrwt>
<rscale>  0 0.92043147E+02</rscale>
<asrwt>0</asrwt>
<pdfrwt beam="2">  1        1 0.33240946E+00 0.92043147E+02</pdfrwt>
<pdfrwt beam="1">  1       -1 0.15080747E-03 0.92043147E+02</pdfrwt>
<totfact> 0.68573258E+04</totfact>
</mgrwt>
</event>
<event>
 7    1  0.2787125E-009  0.9135550E+02  0.7818608E-02  0.1299602E+00
          1   -1    0    0  501    0  0.00000000000E+00  0.00000000000E+00  0.63963115249E+02  0.63963115448E+02  0.50400000000E-02 0. -1.
         -1   -1    0    0    0  501 -0.00000000000E+00 -0.00000000000E+00 -0.32619684289E+02  0.32619684678E+02  0.50400000000E-02 0.  1.
         23    2    1    2    0    0  0.00000000000E+00  0.00000000000E+00  0.31343430960E+02  0.96582800126E+02  0.91355495816E+02 0.  0.
    9000005    2    3    3    0    0 -0.37541241659E+02  0.25005956316E+02  0.20135958242E+02  0.50104309173E+02  0.83870320595E+01 0.  0.
         22    1    3    3    0    0  0.37541241659E+02 -0.25005956316E+02  0.11207472719E+02  0.46478490954E+02  0.00000000000E+00 0. -1.
         22    1    4    4    0    0 -0.14777466911E+02  0.50995597024E+01  0.64323456561E+01  0.16904263016E+02  0.00000000000E+00 0. -1.
         22    1    4    4    0    0 -0.22763774748E+02  0.19906396614E+02  0.13703612586E+02  0.33200046157E+02  0.00000000000E+00 0. -1.
<mgrwt>
<rscale>  0 0.91355496E+02</rscale>
<asrwt>0</asrwt>
<pdfrwt beam="1">  1        1 0.98404794E-02 0.91355496E+02</pdfrwt>
<pdfrwt beam="2">  1       -1 0.50184130E-02 0.91355496E+02</pdfrwt>
<totfact> 0.96785602E+04</totfact>
</mgrwt>
</event>
<event>
 7    1  0.2787125E-009  0.9182385E+02  0.7818608E-02  0.1298494E+00
         -1   -1    0    0    0  501 -0.00000000000E+00  0.00000000000E+00  0.13474143426E+02  0.13474144368E+02  0.50400000000E-02 0.  1.
          1   -1    0    0  501    0  0.00000000000E+00 -0.00000000000E+00 -0.15644073466E+03  0.15644073474E+03  0.50400000000E-02 0. -1.
         23    2    1    2    0    0  0.00000000000E+00  0.00000000000E+00 -0.14296659123E+03  0.16991487911E+03  0.91823852749E+02 0.  0.
    9000005    2    3    3    0    0  0.31851702876E+02  0.31162970251E+02 -0.90566472190E+02  0.10112945793E+03  0.62625622029E+01 0.  0.
         22    1    3    3    0    0 -0.31851702876E+02 -0.31162970251E+02 -0.52400119044E+02  0.68785421179E+02  0.00000000000E+00 0.  1.
         22    1    4    4    0    0  0.18506096867E+01  0.12379161414E+01 -0.22083238712E+01  0.31359028852E+01  0.00000000000E+00 0. -1.
         22    1    4    4    0    0  0.30001093190E+02  0.29925054109E+02 -0.88358148319E+02  0.97993555045E+02  0.00000000000E+00 0. -1.
<mgrwt>
<rscale>  0 0.91823853E+02</rscale>
<asrwt>0</asrwt>
<pdfrwt beam="2">  1        1 0.24067804E-01 0.91823853E+02</pdfrwt>
<pdfrwt beam="1">  1       -1 0.20729453E-02 0.91823853E+02</pdfrwt>
<totfact> 0.11087059E+05</totfact>
</mgrwt>
</event>
<event>
 7    1  0.2787125E-009  0.9515373E+02  0.7818608E-02  0.1290830E+00
         -1   -1    0    0    0  501 -0.00000000000E+00  0.00000000000E+00  0.41504304147E+03  0.41504304150E+03  0.50400000000E-02 0.  1.
          1   -1    0    0  501    0  0.00000000000E+00 -0.00000000000E+00 -0.54537901655E+01  0.54537924943E+01  0.50400000000E-02 0. -1.
         23    2    1    2    0    0  0.00000000000E+00  0.00000000000E+00  0.40958925130E+03  0.42049683399E+03  0.95153731485E+02 0.  0.
    9000005    2    3    3    0    0 -0.39438632406E+02 -0.17887001297E+02  0.28606801403E+03  0.28960433383E+03  0.12665345670E+02 0.  0.
         22    1    3    3    0    0  0.39438632406E+02  0.17887001297E+02  0.12352123727E+03  0.13089250016E+03  0.00000000000E+00 0. -1.
         22    1    4    4    0    0 -0.19146947756E+02 -0.77776115472E+01  0.17719125505E+03  0.17839237012E+03  0.00000000000E+00 0.  1.
         22    1    4    4    0    0 -0.20291684650E+02 -0.10109389749E+02  0.10887675898E+03  0.11121196371E+03  0.00000000000E+00 0.  1.
<mgrwt>
<rscale>  0 0.95153731E+02</rscale>
<asrwt>0</asrwt>
<pdfrwt beam="2">  1        1 0.83904469E-03 0.95153731E+02</pdfrwt>
<pdfrwt beam="1">  1       -1 0.63852786E-01 0.95153731E+02</pdfrwt>
<totfact> 0.46743918E+04</totfact>
</mgrwt>
</event>
<event>
 7    1  0.2787125E-009  0.8929353E+02  0.7818608E-02  0.1304572E+00
          1   -1    0    0  501    0  0.00000000000E+00  0.00000000000E+00  0.62228348594E+02  0.62228348798E+02  0.50400000000E-02 0. -1.
         -1   -1    0    0    0  501 -0.00000000000E+00 -0.00000000000E+00 -0.32032562449E+02  0.32032562845E+02  0.50400000000E-02 0.  1.
         23    2    1    2    0    0 -0.35527136788E-14  0.17763568394E-14  0.30195786145E+02  0.94260911643E+02  0.89293526993E+02 0.  0.
    9000005    2    3    3    0    0  0.25949578497E+02 -0.15139305914E+02  0.49544077226E+02  0.58526676302E+02  0.82569390844E+01 0.  0.
         22    1    3    3    0    0 -0.25949578497E+02  0.15139305914E+02 -0.19348291081E+02  0.35734235342E+02  0.00000000000E+00 0.  1.
         22    1    4    4    0    0  0.90867268328E+01 -0.73134157271E+01  0.26241664969E+02  0.28717235843E+02  0.00000000000E+00 0. -1.
         22    1    4    4    0    0  0.16862851664E+02 -0.78258901870E+01  0.23302412257E+02  0.29809440459E+02  0.00000000000E+00 0. -1.
<mgrwt>
<rscale>  0 0.89293527E+02</rscale>
<asrwt>0</asrwt>
<pdfrwt beam="1">  1        1 0.95735920E-02 0.89293527E+02</pdfrwt>
<pdfrwt beam="2">  1       -1 0.49280866E-02 0.89293527E+02</pdfrwt>
<totfact> 0.10265902E+05</totfact>
</mgrwt>
</event>
<event>
 7    1  0.2787125E-009  0.9362821E+02  0.7818608E-02  0.1294296E+00
         -1   -1    0    0    0  501 -0.00000000000E+00  0.00000000000E+00  0.20904797917E+02  0.20904798524E+02  0.50400000000E-02 0. -1.
          1   -1    0    0  501    0  0.00000000000E+00 -0.00000000000E+00 -0.10483527116E+03  0.10483527128E+03  0.50400000000E-02 0.  1.
         23    2    1    2    0    0  0.00000000000E+00  0.00000000000E+00 -0.83930473247E+02  0.12574006981E+03  0.93628205238E+02 0.  0.
    9000005    2    3    3    0    0  0.20993690380E+02  0.15561006868E+02 -0.93689302224E+02  0.97845362183E+02  0.10637179083E+02 0.  0.
         22    1    3    3    0    0 -0.20993690380E+02 -0.15561006868E+02  0.97588289776E+01  0.27894707626E+02  0.00000000000E+00 0. -1.
         22    1    4    4    0    0  0.96946493961E+01  0.10736888681E+02 -0.65775463699E+02  0.67347447096E+02  0.00000000000E+00 0.  1.
         22    1    4    4    0    0  0.11299040984E+02  0.48241181867E+01 -0.27913838525E+02  0.30497915087E+02  0.00000000000E+00 0.  1.
<mgrwt>
<rscale>  0 0.93628205E+02</rscale>
<asrwt>0</asrwt>
<pdfrwt beam="2">  1        1 0.16128503E-01 0.93628205E+02</pdfrwt>
<pdfrwt beam="1">  1       -1 0.32161229E-02 0.93628205E+02</pdfrwt>
<totfact> 0.97925515E+04</totfact>
</mgrwt>
</event>
<event>
 7    1  0.2896256E-009  0.9141563E+02  0.7818608E-02  0.1299459E+00
         -1   -1    0    0    0  501 -0.00000000000E+00  0.00000000000E+00  0.83609259388E+01  0.83609274579E+01  0.50400000000E-02 0.  1.
          1   -1    0    0  501    0  0.00000000000E+00 -0.00000000000E+00 -0.24987712363E+03  0.24987712368E+03  0.50400000000E-02 0. -1.
         23    2    1    2    0    0 -0.35527136788E-14  0.00000000000E+00 -0.24151619769E+03  0.25823805114E+03  0.91415629456E+02 0.  0.
    9000005    2    3    3    0    0  0.19715861526E+02 -0.10848846223E+02 -0.23254216599E+03  0.23401108465E+03  0.13375953047E+02 0.  0.
         22    1    3    3    0    0 -0.19715861526E+02  0.10848846223E+02 -0.89740317093E+01  0.24226966488E+02  0.00000000000E+00 0.  1.
         22    1    4    4    0    0  0.12680655863E+02 -0.70513854478E+01 -0.19904379862E+03  0.19957192898E+03  0.00000000000E+00 0. -1.
         22    1    4    4    0    0  0.70352056631E+01 -0.37974607753E+01 -0.33498367368E+02  0.34439155672E+02  0.00000000000E+00 0. -1.
<mgrwt>
<rscale>  0 0.91415629E+02</rscale>
<asrwt>0</asrwt>
<pdfrwt beam="2">  1        1 0.38442629E-01 0.91415629E+02</pdfrwt>
<pdfrwt beam="1">  1       -1 0.12862966E-02 0.91415629E+02</pdfrwt>
<totfact> 0.12279637E+05</totfact>
</mgrwt>
</event>
<event>
 7    1  0.2787125E-009  0.9044811E+02  0.7818608E-02  0.1301770E+00
         -1   -1    0    0    0  501 -0.00000000000E+00  0.00000000000E+00  0.11154582044E+02  0.11154583182E+02  0.50400000000E-02 0.  1.
          1   -1    0    0  501    0  0.00000000000E+00 -0.00000000000E+00 -0.18335200732E+03  0.18335200739E+03  0.50400000000E-02 0. -1.
         23    2    1    2    0    0  0.00000000000E+00  0.00000000000E+00 -0.17219742527E+03  0.19450659057E+03  0.90448109453E+02 0.  0.
    9000005    2    3    3    0    0  0.30710102795E+02 -0.16407112557E+02 -0.26652479966E+02  0.44854878715E+02  0.94499576763E+01 0.  0.
         22    1    3    3    0    0 -0.30710102795E+02  0.16407112557E+02 -0.14554494531E+03  0.14965171185E+03  0.00000000000E+00 0. -1.
         22    1    4    4    0    0  0.25569758086E+02 -0.17264111635E+02 -0.22350833231E+02  0.38097530435E+02  0.00000000000E+00 0. -1.
         22    1    4    4    0    0  0.51403447088E+01  0.85699907822E+00 -0.43016467352E+01  0.67573482802E+01  0.00000000000E+00 0. -1.
<mgrwt>
<rscale>  0 0.90448109E+02</rscale>
<asrwt>0</asrwt>
<pdfrwt beam="2">  1        1 0.28207999E-01 0.90448109E+02</pdfrwt>
<pdfrwt beam="1">  1       -1 0.17160898E-02 0.90448109E+02</pdfrwt>
<totfact> 0.11897166E+05</totfact>
</mgrwt>
</event>
<event>
 7    1  0.2787125E-009  0.1000233E+03  0.7818608E-02  0.1280247E+00
          1   -1    0    0  501    0  0.00000000000E+00  0.00000000000E+00  0.21824825909E+02  0.21824826491E+02  0.50400000000E-02 0. -1.
         -1   -1    0    0    0  501 -0.00000000000E+00 -0.00000000000E+00 -0.11460177453E+03  0.11460177464E+03  0.50400000000E-02 0.  1.
         23    2    1    2    0    0  0.00000000000E+00 -0.71054273576E-14 -0.92776948624E+02  0.13642660113E+03  0.10002327380E+03 0.  0.
    9000005    2    3    3    0    0 -0.12750022801E+02  0.43596845421E+02 -0.20748168069E+02  0.51271488309E+02  0.11620284984E+02 0.  0.
         22    1    3    3    0    0  0.12750022801E+02 -0.43596845421E+02 -0.72028780555E+02  0.85155112826E+02  0.00000000000E+00 0.  1.
         22    1    4    4    0    0 -0.80938640782E+01  0.32862239744E+02 -0.20498322304E+02  0.39567899287E+02  0.00000000000E+00 0. -1.
         22    1    4    4    0    0 -0.46561587227E+01  0.10734605677E+02 -0.24984576516E+00  0.11703589022E+02  0.00000000000E+00 0. -1.
<mgrwt>
<rscale>  0 0.10002327E+03</rscale>
<asrwt>0</asrwt>
<pdfrwt beam="1">  1        1 0.33576656E-02 0.10002327E+03</pdfrwt>
<pdfrwt beam="2">  1       -1 0.17631042E-01 0.10002327E+03</pdfrwt>
<totfact> 0.62367823E+04</totfact>
</mgrwt>
</event>
<event>
 7    1  0.2787125E-009  0.9281450E+02  0.7818608E-02  0.1296176E+00
         -1   -1    0    0    0  501 -0.00000000000E+00  0.00000000000E+00  0.11069413107E+02  0.11069414254E+02  0.50400000000E-02 0.  1.
          1   -1    0    0  501    0  0.00000000000E+00 -0.00000000000E+00 -0.19455709059E+03  0.19455709066E+03  0.50400000000E-02 0. -1.
         23    2    1    2    0    0  0.00000000000E+00 -0.44408920985E-15 -0.18348767749E+03  0.20562650491E+03  0.92814501739E+02 0.  0.
    9000005    2    3    3    0    0  0.35103509870E+02 -0.39875769131E+01 -0.25978654928E+02  0.44203924825E+02  0.55623091647E+01 0.  0.
         22    1    3    3    0    0 -0.35103509870E+02  0.39875769131E+01 -0.15750902256E+03  0.16142258009E+03  0.00000000000E+00 0. -1.
         22    1    4    4    0    0  0.27353981333E+02 -0.28696724187E+01 -0.17193293267E+02  0.32435854358E+02  0.00000000000E+00 0. -1.
         22    1    4    4    0    0  0.77495285366E+01 -0.11179044944E+01 -0.87853616615E+01  0.11768070467E+02  0.00000000000E+00 0. -1.
<mgrwt>
<rscale>  0 0.92814502E+02</rscale>
<asrwt>0</asrwt>
<pdfrwt beam="2">  1        1 0.29931858E-01 0.92814502E+02</pdfrwt>
<pdfrwt beam="1">  1       -1 0.17029869E-02 0.92814502E+02</pdfrwt>
<totfact> 0.11227220E+05</totfact>
</mgrwt>
</event>
<event>
 7    1  0.2787125E-009  0.8891585E+02  0.7818608E-02  0.1305499E+00
         -1   -1    0    0    0  501 -0.00000000000E+00  0.00000000000E+00  0.10194612346E+02  0.10194613592E+02  0.50400000000E-02 0.  1.
          1   -1    0    0  501    0  0.00000000000E+00 -0.00000000000E+00 -0.19387760415E+03  0.19387760422E+03  0.50400000000E-02 0. -1.
         23    2    1    2    0    0 -0.88817841970E-15  0.00000000000E+00 -0.18368299181E+03  0.20407221781E+03  0.88915851246E+02 0.  0.
    9000005    2    3    3    0    0 -0.60985573086E+01  0.30066830258E+02 -0.19669752807E+02  0.37214346404E+02  0.75366915683E+01 0.  0.
         22    1    3    3    0    0  0.60985573086E+01 -0.30066830258E+02 -0.16401323900E+03  0.16685787140E+03  0.00000000000E+00 0. -1.
         22    1    4    4    0    0 -0.44436700992E+01  0.18877879882E+02 -0.16512661161E+02  0.25471327634E+02  0.00000000000E+00 0.  1.
         22    1    4    4    0    0 -0.16548872095E+01  0.11188950375E+02 -0.31570916458E+01  0.11743018770E+02  0.00000000000E+00 0.  1.
<mgrwt>
<rscale>  0 0.88915851E+02</rscale>
<asrwt>0</asrwt>
<pdfrwt beam="2">  1        1 0.29827321E-01 0.88915851E+02</pdfrwt>
<pdfrwt beam="1">  1       -1 0.15684021E-02 0.88915851E+02</pdfrwt>
<totfact> 0.12588172E+05</totfact>
</mgrwt>
</event>
<event>
 7    1  0.2787125E-009  0.9760687E+02  0.7818608E-02  0.1285410E+00
          1   -1    0    0  501    0  0.00000000000E+00  0.00000000000E+00  0.18130504155E+02  0.18130504856E+02  0.50400000000E-02 0. -1.
         -1   -1    0    0    0  501 -0.00000000000E+00 -0.00000000000E+00 -0.13136839302E+03  0.13136839312E+03  0.50400000000E-02 0.  1.
         23    2    1    2    0    0  0.00000000000E+00 -0.35527136788E-14 -0.11323788887E+03  0.14949889798E+03  0.97606869741E+02 0.  0.
    9000005    2    3    3    0    0 -0.34508402006E+02  0.17058134015E+02 -0.10210212589E+03  0.10942627687E+03  0.82131731908E+01 0.  0.
         22    1    3    3    0    0  0.34508402006E+02 -0.17058134015E+02 -0.11135762981E+02  0.40072621106E+02  0.00000000000E+00 0. -1.
         22    1    4    4    0    0 -0.18742442912E+02  0.58079689499E+01 -0.58867696701E+02  0.62051731519E+02  0.00000000000E+00 0.  1.
         22    1    4    4    0    0 -0.15765959094E+02  0.11250165066E+02 -0.43234429186E+02  0.47374545351E+02  0.00000000000E+00 0.  1.
<mgrwt>
<rscale>  0 0.97606870E+02</rscale>
<asrwt>0</asrwt>
<pdfrwt beam="1">  1        1 0.27893085E-02 0.97606870E+02</pdfrwt>
<pdfrwt beam="2">  1       -1 0.20210521E-01 0.97606870E+02</pdfrwt>
<totfact> 0.64561011E+04</totfact>
</mgrwt>
</event>
<event>
 7    1  0.2787125E-009  0.1002078E+03  0.7818608E-02  0.1279860E+00
          1   -1    0    0  501    0  0.00000000000E+00  0.00000000000E+00  0.52008589372E+02  0.52008589616E+02  0.50400000000E-02 0. -1.
         -1   -1    0    0    0  501 -0.00000000000E+00 -0.00000000000E+00 -0.48268999693E+02  0.48268999956E+02  0.50400000000E-02 0.  1.
         23    2    1    2    0    0  0.17763568394E-14  0.00000000000E+00  0.37395896788E+01  0.10027758957E+03  0.10020783622E+03 0.  0.
    9000005    2    3    3    0    0 -0.12179860812E+02 -0.27894634996E+02  0.40793628331E+02  0.52324889425E+02  0.12137309011E+02 0.  0.
         22    1    3    3    0    0  0.12179860812E+02  0.27894634996E+02 -0.37054038652E+02  0.47952700147E+02  0.00000000000E+00 0.  1.
         22    1    4    4    0    0 -0.10004420535E+02 -0.21884550151E+02  0.38751870931E+02  0.45615013605E+02  0.00000000000E+00 0. -1.
         22    1    4    4    0    0 -0.21754402777E+01 -0.60100848450E+01  0.20417573999E+01  0.67098758204E+01  0.00000000000E+00 0. -1.
<mgrwt>
<rscale>  0 0.10020784E+03</rscale>
<asrwt>0</asrwt>
<pdfrwt beam="1">  1        1 0.80013215E-02 0.10020784E+03</pdfrwt>
<pdfrwt beam="2">  1       -1 0.74260000E-02 0.10020784E+03</pdfrwt>
<totfact> 0.72310554E+04</totfact>
</mgrwt>
</event>
<event>
 7    1  0.2787125E-009  0.9086220E+02  0.7818608E-02  0.1300777E+00
         -1   -1    0    0    0  501 -0.00000000000E+00  0.00000000000E+00  0.23947760594E+02  0.23947761124E+02  0.50400000000E-02 0.  1.
          1   -1    0    0  501    0  0.00000000000E+00 -0.00000000000E+00 -0.86186959635E+02  0.86186959782E+02  0.50400000000E-02 0. -1.
         23    2    1    2    0    0  0.00000000000E+00  0.00000000000E+00 -0.62239199041E+02  0.11013472091E+03  0.90862197045E+02 0.  0.
    9000005    2    3    3    0    0  0.28496160717E+02 -0.15987921294E+02  0.68017297412E+01  0.33752166288E+02  0.50299501745E+01 0.  0.
         22    1    3    3    0    0 -0.28496160717E+02  0.15987921294E+02 -0.69040928782E+02  0.76382554618E+02  0.00000000000E+00 0. -1.
         22    1    4    4    0    0  0.22780990678E+02 -0.13620996324E+02  0.73517608646E+01  0.27541849338E+02  0.00000000000E+00 0. -1.
         22    1    4    4    0    0  0.57151700392E+01 -0.23669249698E+01 -0.55003112334E+00  0.62103169505E+01  0.00000000000E+00 0. -1.
<mgrwt>
<rscale>  0 0.90862197E+02</rscale>
<asrwt>0</asrwt>
<pdfrwt beam="2">  1        1 0.13259532E-01 0.90862197E+02</pdfrwt>
<pdfrwt beam="1">  1       -1 0.36842710E-02 0.90862197E+02</pdfrwt>
<totfact> 0.10291496E+05</totfact>
</mgrwt>
</event>
<event>
 7    1  0.2787125E-009  0.8699105E+02  0.7818608E-02  0.1310306E+00
          1   -1    0    0  501    0  0.00000000000E+00  0.00000000000E+00  0.49533151031E+02  0.49533151287E+02  0.50400000000E-02 0. -1.
         -1   -1    0    0    0  501 -0.00000000000E+00 -0.00000000000E+00 -0.38193827186E+02  0.38193827518E+02  0.50400000000E-02 0.  1.
         23    2    1    2    0    0  0.00000000000E+00  0.00000000000E+00  0.11339323845E+02  0.87726978805E+02  0.86991048649E+02 0.  0.
    9000005    2    3    3    0    0  0.28945931136E+02  0.29357384677E+02  0.19491748063E+02  0.45700975129E+02  0.29879626423E+01 0.  0.
         22    1    3    3    0    0 -0.28945931136E+02 -0.29357384677E+02 -0.81524242182E+01  0.42026003677E+02  0.00000000000E+00 0. -1.
         22    1    4    4    0    0  0.28368122474E+02  0.29195690701E+02  0.19398788232E+02  0.45093810142E+02  0.00000000000E+00 0.  1.
         22    1    4    4    0    0  0.57780866150E+00  0.16169397594E+00  0.92959831582E-01  0.60716498701E+00  0.00000000000E+00 0.  1.
<mgrwt>
<rscale>  0 0.86991049E+02</rscale>
<asrwt>0</asrwt>
<pdfrwt beam="1">  1        1 0.76204847E-02 0.86991049E+02</pdfrwt>
<pdfrwt beam="2">  1       -1 0.58759735E-02 0.86991049E+02</pdfrwt>
<totfact> 0.10671723E+05</totfact>
</mgrwt>
</event>
<event>
 7    1  0.2787125E-009  0.8861932E+02  0.7818608E-02  0.1306230E+00
         -1   -1    0    0    0  501 -0.00000000000E+00  0.00000000000E+00  0.55277434911E+02  0.55277435141E+02  0.50400000000E-02 0. -1.
          1   -1    0    0  501    0  0.00000000000E+00 -0.00000000000E+00 -0.35518033406E+02  0.35518033763E+02  0.50400000000E-02 0.  1.
         23    2    1    2    0    0  0.00000000000E+00  0.00000000000E+00  0.19759401506E+02  0.90795468904E+02  0.88619316324E+02 0.  0.
    9000005    2    3    3    0    0  0.92999461301E+01  0.22655092943E+02  0.47102306007E+02  0.54088839246E+02  0.10355339955E+02 0.  0.
         22    1    3    3    0    0 -0.92999461301E+01 -0.22655092943E+02 -0.27342904501E+02  0.36706629658E+02  0.00000000000E+00 0.  1.
         22    1    4    4    0    0 -0.17526026296E+00  0.22395294576E+01  0.13237953899E+02  0.13427197466E+02  0.00000000000E+00 0. -1.
         22    1    4    4    0    0  0.94752063931E+01  0.20415563486E+02  0.33864352107E+02  0.40661641780E+02  0.00000000000E+00 0. -1.
<mgrwt>
<rscale>  0 0.88619316E+02</rscale>
<asrwt>0</asrwt>
<pdfrwt beam="2">  1        1 0.54643129E-02 0.88619316E+02</pdfrwt>
<pdfrwt beam="1">  1       -1 0.85042208E-02 0.88619316E+02</pdfrwt>
<totfact> 0.96499452E+04</totfact>
</mgrwt>
</event>
<event>
 7    1  0.2787125E-009  0.9586262E+02  0.7818608E-02  0.1289245E+00
         -1   -1    0    0    0  501 -0.00000000000E+00  0.00000000000E+00  0.15437551308E+02  0.15437552131E+02  0.50400000000E-02 0.  1.
          1   -1    0    0  501    0  0.00000000000E+00 -0.00000000000E+00 -0.14881961373E+03  0.14881961382E+03  0.50400000000E-02 0. -1.
         23    2    1    2    0    0  0.00000000000E+00  0.00000000000E+00 -0.13338206242E+03  0.16425716595E+03  0.95862620394E+02 0.  0.
    9000005    2    3    3    0    0  0.40726814136E+02 -0.23689207378E+02 -0.64292160057E+02  0.80631413067E+02  0.12169264256E+02 0.  0.
         22    1    3    3    0    0 -0.40726814136E+02  0.23689207378E+02 -0.69089902365E+02  0.83625752880E+02  0.00000000000E+00 0. -1.
         22    1    4    4    0    0  0.90339936116E+01 -0.78723350305E+01 -0.90807199115E+01  0.15034832008E+02  0.00000000000E+00 0. -1.
         22    1    4    4    0    0  0.31692820524E+02 -0.15816872348E+02 -0.55211440146E+02  0.65596581059E+02  0.00000000000E+00 0. -1.
<mgrwt>
<rscale>  0 0.95862620E+02</rscale>
<asrwt>0</asrwt>
<pdfrwt beam="2">  1        1 0.22895324E-01 0.95862620E+02</pdfrwt>
<pdfrwt beam="1">  1       -1 0.23750081E-02 0.95862620E+02</pdfrwt>
<totfact> 0.97759330E+04</totfact>
</mgrwt>
</event>
<event>
 7    1  0.2787125E-009  0.9034491E+02  0.7818608E-02  0.1302019E+00
         -1   -1    0    0    0  501 -0.00000000000E+00  0.00000000000E+00  0.13572824921E+02  0.13572825857E+02  0.50400000000E-02 0.  1.
          1   -1    0    0  501    0  0.00000000000E+00 -0.00000000000E+00 -0.15034089193E+03  0.15034089202E+03  0.50400000000E-02 0. -1.
         23    2    1    2    0    0  0.00000000000E+00  0.88817841970E-15 -0.13676806701E+03  0.16391371787E+03  0.90344909945E+02 0.  0.
    9000005    2    3    3    0    0 -0.92976467539E+01  0.47227685852E+01 -0.14802858022E+03  0.14856608170E+03  0.71182365578E+01 0.  0.
         22    1    3    3    0    0  0.92976467539E+01 -0.47227685852E+01  0.11260513210E+02  0.15347636171E+02  0.00000000000E+00 0.  1.
         22    1    4    4    0    0 -0.51874416017E+01  0.45900439487E+01 -0.12358749116E+03  0.12378144459E+03  0.00000000000E+00 0.  1.
         22    1    4    4    0    0 -0.41102051522E+01  0.13272463650E+00 -0.24441089063E+02  0.24784637113E+02  0.00000000000E+00 0.  1.
<mgrwt>
<rscale>  0 0.90344910E+02</rscale>
<asrwt>0</asrwt>
<pdfrwt beam="2">  1        1 0.23129367E-01 0.90344910E+02</pdfrwt>
<pdfrwt beam="1">  1       -1 0.20881271E-02 0.90344910E+02</pdfrwt>
<totfact> 0.11498484E+05</totfact>
</mgrwt>
</event>
<event>
 6    1  0.2787125E-009  0.3237095E+03  0.7818608E-02  0.1073955E+00
         -1   -1    0    0    0  501 -0.00000000000E+00  0.00000000000E+00  0.92789619646E+02  0.92789619783E+02  0.50400000000E-02 0.  1.
          1   -1    0    0  501    0  0.00000000000E+00 -0.00000000000E+00 -0.28232633924E+03  0.28232633929E+03  0.50400000000E-02 0. -1.
    9000005    2    1    2    0    0  0.13781655334E+03 -0.19238540608E+02  0.98177369468E+00  0.13919050452E+03  0.30836419851E+01 0.  0.
         22    1    1    2    0    0 -0.13781655334E+03  0.19238540608E+02 -0.19051849329E+03  0.23592545455E+03  0.00000000000E+00 0. -1.
         22    1    3    3    0    0  0.75962560290E+02 -0.12105482037E+02  0.91612102983E+00  0.76926539887E+02  0.00000000000E+00 0.  1.
         22    1    3    3    0    0  0.61853993054E+02 -0.71330585715E+01  0.65652664849E-01  0.62263964631E+02  0.00000000000E+00 0.  1.
<mgrwt>
<rscale>  0 0.32370946E+03</rscale>
<asrwt>0</asrwt>
<pdfrwt beam="2">  1        1 0.43434821E-01 0.32370946E+03</pdfrwt>
<pdfrwt beam="1">  1       -1 0.14275326E-01 0.32370946E+03</pdfrwt>
<totfact> 0.32948294E+03</totfact>
</mgrwt>
</event>
<event>
 7    1  0.2787125E-009  0.9050121E+02  0.7818608E-02  0.1301642E+00
         -1   -1    0    0    0  501 -0.00000000000E+00  0.00000000000E+00  0.70234550431E+02  0.70234550612E+02  0.50400000000E-02 0.  1.
          1   -1    0    0  501    0  0.00000000000E+00 -0.00000000000E+00 -0.29153989577E+02  0.29153990013E+02  0.50400000000E-02 0. -1.
         23    2    1    2    0    0  0.00000000000E+00  0.00000000000E+00  0.41080560854E+02  0.99388540625E+02  0.90501212851E+02 0.  0.
    9000005    2    3    3    0    0  0.12273096979E+02 -0.30866772055E+02 -0.12475167569E+02  0.36367888665E+02  0.79753992707E+01 0.  0.
         22    1    3    3    0    0 -0.12273096979E+02  0.30866772055E+02  0.53555728423E+02  0.63020651960E+02  0.00000000000E+00 0.  1.
         22    1    4    4    0    0  0.19319233370E+01 -0.90140157287E+01 -0.12408836698E+00  0.92195555891E+01  0.00000000000E+00 0.  1.
         22    1    4    4    0    0  0.10341173642E+02 -0.21852756326E+02 -0.12351079202E+02  0.27148333076E+02  0.00000000000E+00 0.  1.
<mgrwt>
<rscale>  0 0.90501213E+02</rscale>
<asrwt>0</asrwt>
<pdfrwt beam="2">  1        1 0.44852293E-02 0.90501213E+02</pdfrwt>
<pdfrwt beam="1">  1       -1 0.10805315E-01 0.90501213E+02</pdfrwt>
<totfact> 0.88147122E+04</totfact>
</mgrwt>
</event>
<event>
 7    1  0.2787125E-009  0.9203680E+02  0.7818608E-02  0.1297993E+00
         -1   -1    0    0    0  501 -0.00000000000E+00  0.00000000000E+00  0.18167265964E+02  0.18167266663E+02  0.50400000000E-02 0.  1.
          1   -1    0    0  501    0  0.00000000000E+00 -0.00000000000E+00 -0.11656642570E+03  0.11656642581E+03  0.50400000000E-02 0. -1.
         23    2    1    2    0    0  0.00000000000E+00  0.00000000000E+00 -0.98399159735E+02  0.13473369247E+03  0.92036803781E+02 0.  0.
    9000005    2    3    3    0    0 -0.37492042957E+02  0.18860235818E+02 -0.23546315880E+02  0.48918134363E+02  0.87859602654E+01 0.  0.
         22    1    3    3    0    0  0.37492042957E+02 -0.18860235818E+02 -0.74852843854E+02  0.85815558107E+02  0.00000000000E+00 0. -1.
         22    1    4    4    0    0 -0.26547444914E+01 -0.35915272867E+00 -0.33774591370E+01  0.43109035271E+01  0.00000000000E+00 0.  1.
         22    1    4    4    0    0 -0.34837298465E+02  0.19219388547E+02 -0.20168856743E+02  0.44607230836E+02  0.00000000000E+00 0.  1.
<mgrwt>
<rscale>  0 0.92036804E+02</rscale>
<asrwt>0</asrwt>
<pdfrwt beam="2">  1        1 0.17933296E-01 0.92036804E+02</pdfrwt>
<pdfrwt beam="1">  1       -1 0.27949641E-02 0.92036804E+02</pdfrwt>
<totfact> 0.10449785E+05</totfact>
</mgrwt>
</event>
<event>
 7    1  0.2787125E-009  0.9362236E+02  0.7818608E-02  0.1294309E+00
          1   -1    0    0  501    0  0.00000000000E+00  0.00000000000E+00  0.30965394170E+03  0.30965394174E+03  0.50400000000E-02 0. -1.
         -1   -1    0    0    0  501 -0.00000000000E+00 -0.00000000000E+00 -0.70765658092E+01  0.70765676040E+01  0.50400000000E-02 0.  1.
         23    2    1    2    0    0  0.44408920985E-15  0.00000000000E+00  0.30257737589E+03  0.31673050934E+03  0.93622364577E+02 0.  0.
    9000005    2    3    3    0    0  0.30583324464E+01 -0.32479832213E+02  0.26413312251E+03  0.26630974462E+03  0.95016194426E+01 0.  0.
         22    1    3    3    0    0 -0.30583324464E+01  0.32479832213E+02  0.38444253378E+02  0.50420764728E+02  0.00000000000E+00 0.  1.
         22    1    4    4    0    0 -0.11481480324E+01 -0.22015256252E+02  0.14842017932E+03  0.15004845678E+03  0.00000000000E+00 0.  1.
         22    1    4    4    0    0  0.42064804789E+01 -0.10464575961E+02  0.11571294319E+03  0.11626128784E+03  0.00000000000E+00 0.  1.
<mgrwt>
<rscale>  0 0.93622365E+02</rscale>
<asrwt>0</asrwt>
<pdfrwt beam="1">  1        1 0.47639054E-01 0.93622365E+02</pdfrwt>
<pdfrwt beam="2">  1       -1 0.10887029E-02 0.93622365E+02</pdfrwt>
<totfact> 0.12010392E+05</totfact>
</mgrwt>
</event>
<event>
 7    1  0.2787125E-009  0.9183036E+02  0.7818608E-02  0.1298479E+00
          1   -1    0    0  501    0  0.00000000000E+00  0.00000000000E+00  0.11190519029E+02  0.11190520164E+02  0.50400000000E-02 0. -1.
         -1   -1    0    0    0  501 -0.00000000000E+00 -0.00000000000E+00 -0.18839195712E+03  0.18839195719E+03  0.50400000000E-02 0.  1.
         23    2    1    2    0    0  0.00000000000E+00  0.00000000000E+00 -0.17720143809E+03  0.19958247735E+03  0.91830363195E+02 0.  0.
    9000005    2    3    3    0    0  0.35008515493E+01  0.30286796917E+02 -0.20531253396E+02  0.39973289642E+02  0.15709407682E+02 0.  0.
         22    1    3    3    0    0 -0.35008515493E+01 -0.30286796917E+02 -0.15667018469E+03  0.15960918771E+03  0.00000000000E+00 0.  1.
         22    1    4    4    0    0  0.20316257897E+01  0.27704602993E+01  0.23449131400E+01  0.41595157474E+01  0.00000000000E+00 0.  1.
         22    1    4    4    0    0  0.14692257596E+01  0.27516336618E+02 -0.22876166536E+02  0.35813773895E+02  0.00000000000E+00 0.  1.
<mgrwt>
<rscale>  0 0.91830363E+02</rscale>
<asrwt>0</asrwt>
<pdfrwt beam="1">  1        1 0.17216185E-02 0.91830363E+02</pdfrwt>
<pdfrwt beam="2">  1       -1 0.28983376E-01 0.91830363E+02</pdfrwt>
<totfact> 0.69294597E+04</totfact>
</mgrwt>
</event>
<event>
 7    1  0.2787125E-009  0.9164493E+02  0.7818608E-02  0.1298916E+00
          1   -1    0    0  501    0  0.00000000000E+00  0.00000000000E+00  0.19559291267E+02  0.19559291916E+02  0.50400000000E-02 0. -1.
         -1   -1    0    0    0  501 -0.00000000000E+00 -0.00000000000E+00 -0.10735041769E+03  0.10735041781E+03  0.50400000000E-02 0.  1.
         23    2    1    2    0    0  0.00000000000E+00  0.00000000000E+00 -0.87791126422E+02  0.12690970972E+03  0.91644926447E+02 0.  0.
    9000005    2    3    3    0    0 -0.42038310891E+01 -0.43248654024E+02 -0.25584998305E+02  0.51030063928E+02  0.78330719090E+01 0.  0.
         22    1    3    3    0    0  0.42038310891E+01  0.43248654024E+02 -0.62206128117E+02  0.75879645795E+02  0.00000000000E+00 0.  1.
         22    1    4    4    0    0 -0.48149263031E+01 -0.42444451132E+02 -0.25920379885E+02  0.49965798709E+02  0.00000000000E+00 0. -1.
         22    1    4    4    0    0  0.61109521392E+00 -0.80420289123E+00  0.33538158076E+00  0.10642652186E+01  0.00000000000E+00 0. -1.
<mgrwt>
<rscale>  0 0.91644926E+02</rscale>
<asrwt>0</asrwt>
<pdfrwt beam="1">  1        1 0.30091218E-02 0.91644926E+02</pdfrwt>
<pdfrwt beam="2">  1       -1 0.16515449E-01 0.91644926E+02</pdfrwt>
<totfact> 0.79231211E+04</totfact>
</mgrwt>
</event>
<event>
 7    1  0.2787125E-009  0.9153510E+02  0.7818608E-02  0.1299176E+00
          1   -1    0    0  501    0  0.00000000000E+00  0.00000000000E+00  0.30294508666E+03  0.30294508670E+03  0.50400000000E-02 0. -1.
         -1   -1    0    0    0  501 -0.00000000000E+00 -0.00000000000E+00 -0.69143506007E+01  0.69143524376E+01  0.50400000000E-02 0.  1.
         23    2    1    2    0    0  0.00000000000E+00  0.00000000000E+00  0.29603073605E+03  0.30985943914E+03  0.91535104369E+02 0.  0.
    9000005    2    3    3    0    0  0.33208680291E+02 -0.12304831790E+01  0.25224609028E+03  0.25489194200E+03  0.15410434788E+02 0.  0.
         22    1    3    3    0    0 -0.33208680291E+02  0.12304831790E+01  0.43784645777E+02  0.54967497135E+02  0.00000000000E+00 0.  1.
         22    1    4    4    0    0  0.14762613668E+02 -0.80680394943E+01  0.12723807831E+03  0.12834545802E+03  0.00000000000E+00 0.  1.
         22    1    4    4    0    0  0.18446066623E+02  0.68375563153E+01  0.12500801197E+03  0.12654648398E+03  0.00000000000E+00 0.  1.
<mgrwt>
<rscale>  0 0.91535104E+02</rscale>
<asrwt>0</asrwt>
<pdfrwt beam="1">  1        1 0.46606928E-01 0.91535104E+02</pdfrwt>
<pdfrwt beam="2">  1       -1 0.10637466E-02 0.91535104E+02</pdfrwt>
<totfact> 0.12702513E+05</totfact>
</mgrwt>
</event>
<event>
 7    1  0.2787125E-009  0.9355165E+02  0.7818608E-02  0.1294472E+00
         -1   -1    0    0    0  501 -0.00000000000E+00  0.00000000000E+00  0.29546504551E+02  0.29546504981E+02  0.50400000000E-02 0.  1.
          1   -1    0    0  501    0  0.00000000000E+00 -0.00000000000E+00 -0.74052003277E+02  0.74052003449E+02  0.50400000000E-02 0. -1.
         23    2    1    2    0    0  0.00000000000E+00  0.00000000000E+00 -0.44505498726E+02  0.10359850843E+03  0.93551651680E+02 0.  0.
    9000005    2    3    3    0    0  0.37463296773E+02  0.26213085818E+02 -0.12290181641E+02  0.47665949682E+02  0.55108729953E+01 0.  0.
         22    1    3    3    0    0 -0.37463296773E+02 -0.26213085818E+02 -0.32215317085E+02  0.55932558748E+02  0.00000000000E+00 0. -1.
         22    1    4    4    0    0  0.14928971475E+02  0.10595997239E+02 -0.21456526659E+01  0.18432394639E+02  0.00000000000E+00 0.  1.
         22    1    4    4    0    0  0.22534325298E+02  0.15617088580E+02 -0.10144528975E+02  0.29233555043E+02  0.00000000000E+00 0.  1.
<mgrwt>
<rscale>  0 0.93551652E+02</rscale>
<asrwt>0</asrwt>
<pdfrwt beam="2">  1        1 0.11392616E-01 0.93551652E+02</pdfrwt>
<pdfrwt beam="1">  1       -1 0.45456162E-02 0.93551652E+02</pdfrwt>
<totfact> 0.92713046E+04</totfact>
</mgrwt>
</event>
<event>
 7    1  0.2787125E-009  0.9058889E+02  0.7818608E-02  0.1301432E+00
         -1   -1    0    0    0  501 -0.00000000000E+00  0.00000000000E+00  0.53089046703E+02  0.53089046942E+02  0.50400000000E-02 0. -1.
          1   -1    0    0  501    0  0.00000000000E+00 -0.00000000000E+00 -0.38644256279E+02  0.38644256608E+02  0.50400000000E-02 0.  1.
         23    2    1    2    0    0  0.00000000000E+00  0.00000000000E+00  0.14444790424E+02  0.91733303550E+02  0.90588890101E+02 0.  0.
    9000005    2    3    3    0    0 -0.18520278808E+02  0.19698255771E+02  0.43071699858E+02  0.52356635950E+02  0.12450863095E+02 0.  0.
         22    1    3    3    0    0  0.18520278808E+02 -0.19698255771E+02 -0.28626909434E+02  0.39376667600E+02  0.00000000000E+00 0.  1.
         22    1    4    4    0    0 -0.11451848514E+02  0.13711056117E+02  0.16890921936E+02  0.24585384644E+02  0.00000000000E+00 0.  1.
         22    1    4    4    0    0 -0.70684302940E+01  0.59871996537E+01  0.26180777922E+02  0.27771251306E+02  0.00000000000E+00 0.  1.
<mgrwt>
<rscale>  0 0.90588890E+02</rscale>
<asrwt>0</asrwt>
<pdfrwt beam="2">  1        1 0.59452702E-02 0.90588890E+02</pdfrwt>
<pdfrwt beam="1">  1       -1 0.81675457E-02 0.90588890E+02</pdfrwt>
<totfact> 0.91853152E+04</totfact>
</mgrwt>
</event>
<event>
 7    1  0.2787125E-009  0.9563704E+02  0.7818608E-02  0.1289748E+00
         -1   -1    0    0    0  501 -0.00000000000E+00  0.00000000000E+00  0.65082497443E+01  0.65082516958E+01  0.50400000000E-02 0.  1.
          1   -1    0    0  501    0  0.00000000000E+00 -0.00000000000E+00 -0.35134031634E+03  0.35134031638E+03  0.50400000000E-02 0. -1.
         23    2    1    2    0    0  0.00000000000E+00  0.00000000000E+00 -0.34483206660E+03  0.35784856807E+03  0.95637040516E+02 0.  0.
    9000005    2    3    3    0    0  0.17166987293E+02 -0.19508405410E+02 -0.32175073369E+03  0.32309182394E+03  0.13766216902E+02 0.  0.
         22    1    3    3    0    0 -0.17166987293E+02  0.19508405410E+02 -0.23081332902E+02  0.34756744135E+02  0.00000000000E+00 0.  1.
         22    1    4    4    0    0 -0.18899623554E+01 -0.35623464859E+01 -0.27547193986E+02  0.27840800396E+02  0.00000000000E+00 0. -1.
         22    1    4    4    0    0  0.19056949649E+02 -0.15946058924E+02 -0.29420353971E+03  0.29525102354E+03  0.00000000000E+00 0. -1.
<mgrwt>
<rscale>  0 0.95637041E+02</rscale>
<asrwt>0</asrwt>
<pdfrwt beam="2">  1        1 0.54052342E-01 0.95637041E+02</pdfrwt>
<pdfrwt beam="1">  1       -1 0.10012696E-02 0.95637041E+02</pdfrwt>
<totfact> 0.11614574E+05</totfact>
</mgrwt>
</event>
<event>
 7    1  0.2787125E-009  0.8841054E+02  0.7818608E-02  0.1306747E+00
          1   -1    0    0  501    0  0.00000000000E+00  0.00000000000E+00  0.43483237035E+02  0.43483237327E+02  0.50400000000E-02 0. -1.
         -1   -1    0    0    0  501 -0.00000000000E+00 -0.00000000000E+00 -0.44939288032E+02  0.44939288315E+02  0.50400000000E-02 0.  1.
         23    2    1    2    0    0  0.00000000000E+00  0.00000000000E+00 -0.14560509970E+01  0.88422525642E+02  0.88410536456E+02 0.  0.
    9000005    2    3    3    0    0 -0.32858325556E+02 -0.12266802163E+02 -0.26012375550E+02  0.45607142084E+02  0.13161448767E+02 0.  0.
         22    1    3    3    0    0  0.32858325556E+02  0.12266802163E+02  0.24556324553E+02  0.42815383558E+02  0.00000000000E+00 0. -1.
         22    1    4    4    0    0 -0.31713933810E+02 -0.13661263138E+02 -0.26727643536E+02  0.43666584904E+02  0.00000000000E+00 0. -1.
         22    1    4    4    0    0 -0.11443917459E+01  0.13944609742E+01  0.71526798555E+00  0.19405571797E+01  0.00000000000E+00 0. -1.
<mgrwt>
<rscale>  0 0.88410536E+02</rscale>
<asrwt>0</asrwt>
<pdfrwt beam="1">  1        1 0.66897288E-02 0.88410536E+02</pdfrwt>
<pdfrwt beam="2">  1       -1 0.69137367E-02 0.88410536E+02</pdfrwt>
<totfact> 0.10009999E+05</totfact>
</mgrwt>
</event>
<event>
 7    1  0.2787125E-009  0.9159494E+02  0.7818608E-02  0.1299035E+00
          1   -1    0    0  501    0  0.00000000000E+00  0.00000000000E+00  0.35969541176E+02  0.35969541530E+02  0.50400000000E-02 0. -1.
         -1   -1    0    0    0  501 -0.00000000000E+00 -0.00000000000E+00 -0.58310670685E+02  0.58310670902E+02  0.50400000000E-02 0.  1.
         23    2    1    2    0    0  0.00000000000E+00  0.00000000000E+00 -0.22341129508E+02  0.94280212432E+02  0.91594936479E+02 0.  0.
    9000005    2    3    3    0    0 -0.27833668955E+02  0.32626028681E+02 -0.26548232020E+02  0.51188791168E+02  0.87357222297E+01 0.  0.
         22    1    3    3    0    0  0.27833668955E+02 -0.32626028681E+02  0.42071025117E+01  0.43091421264E+02  0.00000000000E+00 0. -1.
         22    1    4    4    0    0 -0.68662181986E+01  0.90590943604E+01 -0.11741270371E+02  0.16342263396E+02  0.00000000000E+00 0. -1.
         22    1    4    4    0    0 -0.20967450756E+02  0.23566934321E+02 -0.14806961649E+02  0.34846527772E+02  0.00000000000E+00 0. -1.
<mgrwt>
<rscale>  0 0.91594936E+02</rscale>
<asrwt>0</asrwt>
<pdfrwt beam="1">  1        1 0.55337756E-02 0.91594936E+02</pdfrwt>
<pdfrwt beam="2">  1       -1 0.89708724E-02 0.91594936E+02</pdfrwt>
<totfact> 0.88047527E+04</totfact>
</mgrwt>
</event>
<event>
 7    1  0.2787125E-009  0.8305405E+02  0.7818608E-02  0.1320601E+00
         -1   -1    0    0    0  501 -0.00000000000E+00  0.00000000000E+00  0.19683109465E+03  0.19683109471E+03  0.50400000000E-02 0.  1.
          1   -1    0    0  501    0  0.00000000000E+00 -0.00000000000E+00 -0.87612857366E+01  0.87612871863E+01  0.50400000000E-02 0. -1.
         23    2    1    2    0    0  0.00000000000E+00  0.00000000000E+00  0.18806980891E+03  0.20559238190E+03  0.83054045482E+02 0.  0.
    9000005    2    3    3    0    0  0.38038024794E+02 -0.13071458369E+02  0.11490303459E+03  0.12209908145E+03  0.93661080806E+01 0.  0.
         22    1    3    3    0    0 -0.38038024794E+02  0.13071458369E+02  0.73166774327E+02  0.83493300447E+02  0.00000000000E+00 0. -1.
         22    1    4    4    0    0  0.16157205486E+01 -0.12016437684E+01  0.14449625148E+02  0.14589248355E+02  0.00000000000E+00 0.  1.
         22    1    4    4    0    0  0.36422304245E+02 -0.11869814601E+02  0.10045340944E+03  0.10750983310E+03  0.00000000000E+00 0.  1.
<mgrwt>
<rscale>  0 0.83054045E+02</rscale>
<asrwt>0</asrwt>
<pdfrwt beam="2">  1        1 0.13478902E-02 0.83054045E+02</pdfrwt>
<pdfrwt beam="1">  1       -1 0.30281708E-01 0.83054045E+02</pdfrwt>
<totfact> 0.88856950E+04</totfact>
</mgrwt>
</event>
<event>
 7    1  0.2787125E-009  0.9266151E+02  0.7818608E-02  0.1296532E+00
         -1   -1    0    0    0  501 -0.00000000000E+00  0.00000000000E+00  0.62285131466E+03  0.62285131468E+03  0.50400000000E-02 0.  1.
          1   -1    0    0  501    0  0.00000000000E+00 -0.00000000000E+00 -0.34463080477E+01  0.34463117330E+01  0.50400000000E-02 0. -1.
         23    2    1    2    0    0  0.35527136788E-14  0.00000000000E+00  0.61940500661E+03  0.62629762642E+03  0.92661505679E+02 0.  0.
    9000005    2    3    3    0    0  0.18617079089E+02 -0.40429186740E+01  0.59472729030E+03  0.59512182638E+03  0.10319766676E+02 0.  0.
         22    1    3    3    0    0 -0.18617079089E+02  0.40429186740E+01  0.24677716316E+02  0.31175800034E+02  0.00000000000E+00 0. -1.
         22    1    4    4    0    0  0.55444715697E+01 -0.32570745996E+01  0.33760352428E+03  0.33766475875E+03  0.00000000000E+00 0. -1.
         22    1    4    4    0    0  0.13072607519E+02 -0.78584407439E+00  0.25712376602E+03  0.25745706763E+03  0.00000000000E+00 0. -1.
<mgrwt>
<rscale>  0 0.92661506E+02</rscale>
<asrwt>0</asrwt>
<pdfrwt beam="2">  1        1 0.53020189E-03 0.92661506E+02</pdfrwt>
<pdfrwt beam="1">  1       -1 0.95823214E-01 0.92661506E+02</pdfrwt>
<totfact> 0.38791589E+04</totfact>
</mgrwt>
</event>
<event>
 7    1  0.2787125E-009  0.9014032E+02  0.7818608E-02  0.1302512E+00
         -1   -1    0    0    0  501 -0.00000000000E+00  0.00000000000E+00  0.53309590595E+02  0.53309590833E+02  0.50400000000E-02 0.  1.
          1   -1    0    0  501    0  0.00000000000E+00 -0.00000000000E+00 -0.38104200095E+02  0.38104200429E+02  0.50400000000E-02 0. -1.
         23    2    1    2    0    0 -0.71054273576E-14  0.00000000000E+00  0.15205390500E+02  0.91413791262E+02  0.90140320238E+02 0.  0.
    9000005    2    3    3    0    0 -0.44322424423E+02  0.88333016275E+00  0.30036485871E+01  0.45434012178E+02  0.94852505958E+01 0.  0.
         22    1    3    3    0    0  0.44322424423E+02 -0.88333016275E+00  0.12201741913E+02  0.45979779084E+02  0.00000000000E+00 0.  1.
         22    1    4    4    0    0 -0.46639534522E+01  0.16750397731E+01  0.29507691243E+01  0.57676042228E+01  0.00000000000E+00 0. -1.
         22    1    4    4    0    0 -0.39658470971E+02 -0.79170961034E+00  0.52879462752E-01  0.39666407955E+02  0.00000000000E+00 0. -1.
<mgrwt>
<rscale>  0 0.90140320E+02</rscale>
<asrwt>0</asrwt>
<pdfrwt beam="2">  1        1 0.58621847E-02 0.90140320E+02</pdfrwt>
<pdfrwt beam="1">  1       -1 0.82014755E-02 0.90140320E+02</pdfrwt>
<totfact> 0.92951190E+04</totfact>
</mgrwt>
</event>
<event>
 7    1  0.2787125E-009  0.9028635E+02  0.7818608E-02  0.1302160E+00
         -1   -1    0    0    0  501 -0.00000000000E+00  0.00000000000E+00  0.19516383452E+02  0.19516384103E+02  0.50400000000E-02 0.  1.
          1   -1    0    0  501    0  0.00000000000E+00 -0.00000000000E+00 -0.10442027462E+03  0.10442027475E+03  0.50400000000E-02 0. -1.
         23    2    1    2    0    0  0.00000000000E+00 -0.44408920985E-15 -0.84903891172E+02  0.12393665885E+03  0.90286348195E+02 0.  0.
    9000005    2    3    3    0    0  0.33967849221E+02  0.21760501215E+01 -0.82309921485E+02  0.89800480773E+02  0.11430362963E+02 0.  0.
         22    1    3    3    0    0 -0.33967849221E+02 -0.21760501215E+01 -0.25939696871E+01  0.34136178075E+02  0.00000000000E+00 0.  1.
         22    1    4    4    0    0  0.27873399425E+02 -0.28294530857E+01 -0.63805624657E+02  0.69685650877E+02  0.00000000000E+00 0.  1.
         22    1    4    4    0    0  0.60944497963E+01  0.50055032072E+01 -0.18504296828E+02  0.20114829897E+02  0.00000000000E+00 0.  1.
<mgrwt>
<rscale>  0 0.90286348E+02</rscale>
<asrwt>0</asrwt>
<pdfrwt beam="2">  1        1 0.16064657E-01 0.90286348E+02</pdfrwt>
<pdfrwt beam="1">  1       -1 0.30025206E-02 0.90286348E+02</pdfrwt>
<totfact> 0.10805527E+05</totfact>
</mgrwt>
</event>
<event>
 7    1  0.2787125E-009  0.9067014E+02  0.7818608E-02  0.1301237E+00
         -1   -1    0    0    0  501 -0.00000000000E+00  0.00000000000E+00  0.95310672135E+02  0.95310672268E+02  0.50400000000E-02 0.  1.
          1   -1    0    0  501    0  0.00000000000E+00 -0.00000000000E+00 -0.21563888145E+02  0.21563888734E+02  0.50400000000E-02 0. -1.
         23    2    1    2    0    0  0.00000000000E+00 -0.35527136788E-14  0.73746783990E+02  0.11687456100E+03  0.90670143159E+02 0.  0.
    9000005    2    3    3    0    0  0.35756334341E+02  0.24916625603E+02  0.22145975685E+02  0.49332003346E+02  0.66218304236E+01 0.  0.
         22    1    3    3    0    0 -0.35756334341E+02 -0.24916625603E+02  0.51600808305E+02  0.67542557656E+02  0.00000000000E+00 0.  1.
         22    1    4    4    0    0  0.72841422398E+01  0.85530964180E+01  0.52427814226E+01  0.12397618463E+02  0.00000000000E+00 0. -1.
         22    1    4    4    0    0  0.28472192101E+02  0.16363529185E+02  0.16903194262E+02  0.36934384883E+02  0.00000000000E+00 0. -1.
<mgrwt>
<rscale>  0 0.90670143E+02</rscale>
<asrwt>0</asrwt>
<pdfrwt beam="2">  1        1 0.33175213E-02 0.90670143E+02</pdfrwt>
<pdfrwt beam="1">  1       -1 0.14663180E-01 0.90670143E+02</pdfrwt>
<totfact> 0.83277001E+04</totfact>
</mgrwt>
</event>
<event>
 7    1  0.2787125E-009  0.8915483E+02  0.7818608E-02  0.1304911E+00
         -1   -1    0    0    0  501 -0.00000000000E+00  0.00000000000E+00  0.22738777716E+02  0.22738778274E+02  0.50400000000E-02 0.  1.
          1   -1    0    0  501    0  0.00000000000E+00 -0.00000000000E+00 -0.87390187511E+02  0.87390187656E+02  0.50400000000E-02 0. -1.
         23    2    1    2    0    0  0.00000000000E+00 -0.35527136788E-14 -0.64651409795E+02  0.11012896593E+03  0.89154833567E+02 0.  0.
    9000005    2    3    3    0    0 -0.34055151120E+02 -0.18439213557E+02 -0.59077471011E+02  0.71003185325E+02  0.71796121681E+01 0.  0.
         22    1    3    3    0    0  0.34055151120E+02  0.18439213557E+02 -0.55739387840E+01  0.39125780605E+02  0.00000000000E+00 0.  1.
         22    1    4    4    0    0 -0.16283231618E+02 -0.58110226588E+01 -0.21865009508E+02  0.27874544966E+02  0.00000000000E+00 0.  1.
         22    1    4    4    0    0 -0.17771919502E+02 -0.12628190899E+02 -0.37212461503E+02  0.43128640360E+02  0.00000000000E+00 0.  1.
<mgrwt>
<rscale>  0 0.89154834E+02</rscale>
<asrwt>0</asrwt>
<pdfrwt beam="2">  1        1 0.13444644E-01 0.89154834E+02</pdfrwt>
<pdfrwt beam="1">  1       -1 0.34982736E-02 0.89154834E+02</pdfrwt>
<totfact> 0.10862596E+05</totfact>
</mgrwt>
</event>
<event>
 7    1  0.2787125E-009  0.9603580E+02  0.7818608E-02  0.1288860E+00
          1   -1    0    0  501    0  0.00000000000E+00  0.00000000000E+00  0.58631373721E+03  0.58631373723E+03  0.50400000000E-02 0. -1.
         -1   -1    0    0    0  501 -0.00000000000E+00 -0.00000000000E+00 -0.39325666575E+01  0.39325698872E+01  0.50400000000E-02 0.  1.
         23    2    1    2    0    0  0.71054273576E-14 -0.17763568394E-14  0.58238117055E+03  0.59024630712E+03  0.96035801935E+02 0.  0.
    9000005    2    3    3    0    0  0.32067328942E+02 -0.10530509263E+02  0.49993071608E+03  0.50115487850E+03  0.92890339862E+01 0.  0.
         22    1    3    3    0    0 -0.32067328942E+02  0.10530509263E+02  0.82450454476E+02  0.89091428623E+02  0.00000000000E+00 0.  1.
         22    1    4    4    0    0  0.10333488047E+02  0.44115952406E+00  0.12000310873E+03  0.12044800414E+03  0.00000000000E+00 0.  1.
         22    1    4    4    0    0  0.21733840895E+02 -0.10971668787E+02  0.37992760735E+03  0.38070687435E+03  0.00000000000E+00 0.  1.
<mgrwt>
<rscale>  0 0.96035802E+02</rscale>
<asrwt>0</asrwt>
<pdfrwt beam="1">  1        1 0.90202106E-01 0.96035802E+02</pdfrwt>
<pdfrwt beam="2">  1       -1 0.60501056E-03 0.96035802E+02</pdfrwt>
<totfact> 0.12317679E+05</totfact>
</mgrwt>
</event>
<event>
 7    1  0.2787125E-009  0.9299928E+02  0.7818608E-02  0.1295747E+00
          1   -1    0    0  501    0  0.00000000000E+00  0.00000000000E+00  0.99873273620E+03  0.99873273621E+03  0.50400000000E-02 0. -1.
         -1   -1    0    0    0  501 -0.00000000000E+00 -0.00000000000E+00 -0.21649572474E+01  0.21649631140E+01  0.50400000000E-02 0.  1.
         23    2    1    2    0    0  0.00000000000E+00  0.88817841970E-15  0.99656777895E+03  0.10008976993E+04  0.92999282099E+02 0.  0.
    9000005    2    3    3    0    0 -0.37911688498E+02  0.18005947834E+01  0.77651749649E+03  0.77759820296E+03  0.15459774360E+02 0.  0.
         22    1    3    3    0    0  0.37911688498E+02 -0.18005947834E+01  0.22005028246E+03  0.22329949637E+03  0.00000000000E+00 0.  1.
         22    1    4    4    0    0 -0.31393516811E+02  0.67534445827E+01  0.55370298260E+03  0.55463335173E+03  0.00000000000E+00 0. -1.
         22    1    4    4    0    0 -0.65181716866E+01 -0.49528497994E+01  0.22281451388E+03  0.22296485122E+03  0.00000000000E+00 0. -1.
<mgrwt>
<rscale>  0 0.92999282E+02</rscale>
<asrwt>0</asrwt>
<pdfrwt beam="1">  1        1 0.15365083E+00 0.92999282E+02</pdfrwt>
<pdfrwt beam="2">  1       -1 0.33307159E-03 0.92999282E+02</pdfrwt>
<totfact> 0.12911983E+05</totfact>
</mgrwt>
</event>
<event>
 7    1  0.2787125E-009  0.1029562E+03  0.7818608E-02  0.1274199E+00
          1   -1    0    0  501    0  0.00000000000E+00  0.00000000000E+00  0.31127560443E+02  0.31127560851E+02  0.50400000000E-02 0. -1.
         -1   -1    0    0    0  501 -0.00000000000E+00 -0.00000000000E+00 -0.85133425700E+02  0.85133425849E+02  0.50400000000E-02 0.  1.
         23    2    1    2    0    0  0.00000000000E+00  0.00000000000E+00 -0.54005865257E+02  0.11626098670E+03  0.10295622150E+03 0.  0.
    9000005    2    3    3    0    0 -0.21584038547E+02 -0.20420850006E+02 -0.73744825050E+02  0.80588751436E+02  0.13166844779E+02 0.  0.
         22    1    3    3    0    0  0.21584038547E+02  0.20420850006E+02  0.19738959793E+02  0.35672235263E+02  0.00000000000E+00 0. -1.
         22    1    4    4    0    0 -0.18587247081E+02 -0.11288508148E+02 -0.40335154346E+02  0.45824020408E+02  0.00000000000E+00 0.  1.
         22    1    4    4    0    0 -0.29967914661E+01 -0.91323418575E+01 -0.33409670704E+02  0.34764731028E+02  0.00000000000E+00 0.  1.
<mgrwt>
<rscale>  0 0.10295622E+03</rscale>
<asrwt>0</asrwt>
<pdfrwt beam="1">  1        1 0.47888555E-02 0.10295622E+03</pdfrwt>
<pdfrwt beam="2">  1       -1 0.13097450E-01 0.10295622E+03</pdfrwt>
<totfact> 0.61298378E+04</totfact>
</mgrwt>
</event>
<event>
 7    1  0.2787125E-009  0.9084551E+02  0.7818608E-02  0.1300817E+00
          1   -1    0    0  501    0  0.00000000000E+00  0.00000000000E+00  0.57136603141E+03  0.57136603144E+03  0.50400000000E-02 0. -1.
         -1   -1    0    0    0  501 -0.00000000000E+00 -0.00000000000E+00 -0.36110401686E+01  0.36110436858E+01  0.50400000000E-02 0.  1.
         23    2    1    2    0    0  0.00000000000E+00  0.00000000000E+00  0.56775499125E+03  0.57497707512E+03  0.90845510797E+02 0.  0.
    9000005    2    3    3    0    0 -0.36363924133E+02 -0.56854913017E+01  0.44975153617E+03  0.45136690079E+03  0.10048634139E+02 0.  0.
         22    1    3    3    0    0  0.36363924133E+02  0.56854913017E+01  0.11800345507E+03  0.12361017433E+03  0.00000000000E+00 0.  1.
         22    1    4    4    0    0 -0.79227674442E+01  0.14352000137E+01  0.13983701319E+03  0.14006862711E+03  0.00000000000E+00 0. -1.
         22    1    4    4    0    0 -0.28441156689E+02 -0.71206913154E+01  0.30991452299E+03  0.31129827368E+03  0.00000000000E+00 0. -1.
<mgrwt>
<rscale>  0 0.90845511E+02</rscale>
<asrwt>0</asrwt>
<pdfrwt beam="1">  1        1 0.87902454E-01 0.90845511E+02</pdfrwt>
<pdfrwt beam="2">  1       -1 0.55554499E-03 0.90845511E+02</pdfrwt>
<totfact> 0.14247808E+05</totfact>
</mgrwt>
</event>
<event>
 7    1  0.2787125E-009  0.9105414E+02  0.7818608E-02  0.1300319E+00
          1   -1    0    0  501    0  0.00000000000E+00  0.00000000000E+00  0.14950702847E+03  0.14950702855E+03  0.50400000000E-02 0.  1.
         -1   -1    0    0    0  501 -0.00000000000E+00 -0.00000000000E+00 -0.13863655775E+02  0.13863656691E+02  0.50400000000E-02 0. -1.
         23    2    1    2    0    0 -0.35527136788E-14  0.35527136788E-14  0.13564337269E+03  0.16337068524E+03  0.91054139069E+02 0.  0.
    9000005    2    3    3    0    0  0.28792330758E+02 -0.18900733740E+02  0.17010178354E+02  0.39839025960E+02  0.10562470136E+02 0.  0.
         22    1    3    3    0    0 -0.28792330758E+02  0.18900733740E+02  0.11863319434E+03  0.12353165928E+03  0.00000000000E+00 0.  1.
         22    1    4    4    0    0 -0.15656844167E+00 -0.10514397349E+01  0.27732055503E+01  0.29699677132E+01  0.00000000000E+00 0.  1.
         22    1    4    4    0    0  0.28948899200E+02 -0.17849294005E+02  0.14236972804E+02  0.36869058247E+02  0.00000000000E+00 0.  1.
<mgrwt>
<rscale>  0 0.91054139E+02</rscale>
<asrwt>0</asrwt>
<pdfrwt beam="1">  1        1 0.23001081E-01 0.91054139E+02</pdfrwt>
<pdfrwt beam="2">  1       -1 0.21328702E-02 0.91054139E+02</pdfrwt>
<totfact> 0.11247311E+05</totfact>
</mgrwt>
</event>
<event>
 7    1  0.2787125E-009  0.9296668E+02  0.7818608E-02  0.1295822E+00
          1   -1    0    0  501    0  0.00000000000E+00  0.00000000000E+00  0.16432985870E+03  0.16432985877E+03  0.50400000000E-02 0. -1.
         -1   -1    0    0    0  501 -0.00000000000E+00 -0.00000000000E+00 -0.13148557998E+02  0.13148558964E+02  0.50400000000E-02 0.  1.
         23    2    1    2    0    0  0.17763568394E-14  0.71054273576E-14  0.15118130070E+03  0.17747841774E+03  0.92966677266E+02 0.  0.
    9000005    2    3    3    0    0 -0.14406239541E+02 -0.44172328827E+02  0.76968730791E+02  0.89921351182E+02  0.17115802905E+01 0.  0.
         22    1    3    3    0    0  0.14406239541E+02  0.44172328827E+02  0.74212569908E+02  0.87557066557E+02  0.00000000000E+00 0. -1.
         22    1    4    4    0    0 -0.11492538437E+02 -0.33400362985E+02  0.59365217864E+02  0.69078880849E+02  0.00000000000E+00 0. -1.
         22    1    4    4    0    0 -0.29137011042E+01 -0.10771965841E+02  0.17603512927E+02  0.20842470333E+02  0.00000000000E+00 0. -1.
<mgrwt>
<rscale>  0 0.92966677E+02</rscale>
<asrwt>0</asrwt>
<pdfrwt beam="1">  1        1 0.25281517E-01 0.92966677E+02</pdfrwt>
<pdfrwt beam="2">  1       -1 0.20228551E-02 0.92966677E+02</pdfrwt>
<totfact> 0.10822083E+05</totfact>
</mgrwt>
</event>
<event>
 7    1  0.2787125E-009  0.9041602E+02  0.7818608E-02  0.1301847E+00
         -1   -1    0    0    0  501 -0.00000000000E+00  0.00000000000E+00  0.10407383096E+03  0.10407383108E+03  0.50400000000E-02 0.  1.
          1   -1    0    0  501    0  0.00000000000E+00 -0.00000000000E+00 -0.19637637510E+02  0.19637638157E+02  0.50400000000E-02 0. -1.
         23    2    1    2    0    0 -0.35527136788E-14  0.00000000000E+00  0.84436193450E+02  0.12371146924E+03  0.90416021018E+02 0.  0.
    9000005    2    3    3    0    0  0.30822654418E+02 -0.32609554627E+02  0.46118640511E+02  0.64705927620E+02  0.68197498704E+01 0.  0.
         22    1    3    3    0    0 -0.30822654418E+02  0.32609554627E+02  0.38317552939E+02  0.59005541618E+02  0.00000000000E+00 0. -1.
         22    1    4    4    0    0  0.26385921039E+02 -0.27590630526E+02  0.42359470435E+02  0.57024419834E+02  0.00000000000E+00 0. -1.
         22    1    4    4    0    0  0.44367333789E+01 -0.50189241015E+01  0.37591700760E+01  0.76815077864E+01  0.00000000000E+00 0. -1.
<mgrwt>
<rscale>  0 0.90416021E+02</rscale>
<asrwt>0</asrwt>
<pdfrwt beam="2">  1        1 0.30211751E-02 0.90416021E+02</pdfrwt>
<pdfrwt beam="1">  1       -1 0.16011359E-01 0.90416021E+02</pdfrwt>
<totfact> 0.82524697E+04</totfact>
</mgrwt>
</event>
<event>
 7    1  0.2787125E-009  0.9061952E+02  0.7818608E-02  0.1301358E+00
         -1   -1    0    0    0  501 -0.00000000000E+00  0.00000000000E+00  0.18934331656E+03  0.18934331663E+03  0.50400000000E-02 0.  1.
          1   -1    0    0  501    0  0.00000000000E+00 -0.00000000000E+00 -0.10842601976E+02  0.10842603147E+02  0.50400000000E-02 0. -1.
         23    2    1    2    0    0  0.00000000000E+00 -0.35527136788E-14  0.17850071458E+03  0.20018591977E+03  0.90619519800E+02 0.  0.
    9000005    2    3    3    0    0 -0.41034937563E+02 -0.18971723216E+02  0.90682859219E+02  0.10141462787E+03  0.42134793449E+01 0.  0.
         22    1    3    3    0    0  0.41034937563E+02  0.18971723216E+02  0.87817855364E+02  0.98771291899E+02  0.00000000000E+00 0.  1.
         22    1    4    4    0    0 -0.80302790954E+01 -0.30249354799E+01  0.13985947372E+02  0.16408605696E+02  0.00000000000E+00 0.  1.
         22    1    4    4    0    0 -0.33004658468E+02 -0.15946787736E+02  0.76696911847E+02  0.85006022178E+02  0.00000000000E+00 0.  1.
<mgrwt>
<rscale>  0 0.90619520E+02</rscale>
<asrwt>0</asrwt>
<pdfrwt beam="2">  1        1 0.16680927E-02 0.90619520E+02</pdfrwt>
<pdfrwt beam="1">  1       -1 0.29129741E-01 0.90619520E+02</pdfrwt>
<totfact> 0.71632819E+04</totfact>
</mgrwt>
</event>
<event>
 7    1  0.2787125E-009  0.8866251E+02  0.7818608E-02  0.1306123E+00
          1   -1    0    0  501    0  0.00000000000E+00  0.00000000000E+00  0.45800569450E+02  0.45800569727E+02  0.50400000000E-02 0. -1.
         -1   -1    0    0    0  501 -0.00000000000E+00 -0.00000000000E+00 -0.42909078827E+02  0.42909079123E+02  0.50400000000E-02 0.  1.
         23    2    1    2    0    0  0.00000000000E+00  0.00000000000E+00  0.28914906235E+01  0.88709648850E+02  0.88662512265E+02 0.  0.
    9000005    2    3    3    0    0 -0.18104047720E+02  0.18761553913E+02 -0.33446726824E+02  0.43985846504E+02  0.11675560302E+02 0.  0.
         22    1    3    3    0    0  0.18104047720E+02 -0.18761553913E+02  0.36338217447E+02  0.44723802346E+02  0.00000000000E+00 0. -1.
         22    1    4    4    0    0 -0.15524511825E+02  0.17375693474E+02 -0.21565022231E+02  0.31748627922E+02  0.00000000000E+00 0. -1.
         22    1    4    4    0    0 -0.25795358952E+01  0.13858604387E+01 -0.11881704593E+02  0.12237218582E+02  0.00000000000E+00 0. -1.
<mgrwt>
<rscale>  0 0.88662512E+02</rscale>
<asrwt>0</asrwt>
<pdfrwt beam="1">  1        1 0.70462415E-02 0.88662512E+02</pdfrwt>
<pdfrwt beam="2">  1       -1 0.66013968E-02 0.88662512E+02</pdfrwt>
<totfact> 0.10006663E+05</totfact>
</mgrwt>
</event>
