<event>
 7    1  0.1247599E-009  0.9208268E+02  0.7818608E-02  0.1297885E+00
          3   -1    0    0  501    0  0.00000000000E+00  0.00000000000E+00  0.53383376154E+01  0.53392929771E+01  0.10100000000E+00 0. -1.
         -3   -1    0    0    0  501 -0.00000000000E+00 -0.00000000000E+00 -0.39705432708E+03  0.39705433993E+03  0.10100000000E+00 0.  1.
         23    2    1    2    0    0  0.00000000000E+00  0.00000000000E+00 -0.39171598947E+03  0.40239363291E+03  0.92082676974E+02 0.  0.
    9000005    2    3    3    0    0  0.16095959621E+02  0.41084435029E+02 -0.16751939455E+03  0.17389609705E+03  0.15168859629E+02 0.  0.
         22    1    3    3    0    0 -0.16095959621E+02 -0.41084435029E+02 -0.22419659492E+03  0.22849753585E+03  0.00000000000E+00 0.  1.
         22    1    4    4    0    0 -0.32170936755E+00  0.63023455443E+00 -0.20964723486E+02  0.20976661397E+02  0.00000000000E+00 0. -1.
         22    1    4    4    0    0  0.16417668988E+02  0.40454200474E+02 -0.14655467106E+03  0.15291943566E+03  0.00000000000E+00 0. -1.
<mgrwt>
<rscale>  0 0.92082677E+02</rscale>
<asrwt>0</asrwt>
<pdfrwt beam="1">  1        3 0.82135750E-03 0.92082677E+02</pdfrwt>
<pdfrwt beam="2">  1       -3 0.61085332E-01 0.92082677E+02</pdfrwt>
<totfact> 0.19991367E+04</totfact>
</mgrwt>
</event>
<event>
 7    1  0.1247599E-009  0.9373457E+02  0.7818608E-02  0.1294052E+00
          3   -1    0    0  501    0  0.00000000000E+00  0.00000000000E+00  0.16979277692E+03  0.16979280696E+03  0.10100000000E+00 0. -1.
         -3   -1    0    0    0  501 -0.00000000000E+00 -0.00000000000E+00 -0.12936379618E+02  0.12936773888E+02  0.10100000000E+00 0.  1.
         23    2    1    2    0    0 -0.22204460493E-15  0.00000000000E+00  0.15685639730E+03  0.18272958085E+03  0.93734573890E+02 0.  0.
    9000005    2    3    3    0    0  0.16528335740E+01  0.37811723431E+02  0.28506300025E+02  0.48915509246E+02  0.12151527314E+02 0.  0.
         22    1    3    3    0    0 -0.16528335740E+01 -0.37811723431E+02  0.12835009728E+03  0.13381407160E+03  0.00000000000E+00 0. -1.
         22    1    4    4    0    0  0.46422097472E+01  0.35844686231E+02  0.26449562630E+02  0.44788067671E+02  0.00000000000E+00 0. -1.
         22    1    4    4    0    0 -0.29893761731E+01  0.19670372000E+01  0.20567373948E+01  0.41274415758E+01  0.00000000000E+00 0. -1.
<mgrwt>
<rscale>  0 0.93734574E+02</rscale>
<asrwt>0</asrwt>
<pdfrwt beam="1">  1        3 0.26121999E-01 0.93734574E+02</pdfrwt>
<pdfrwt beam="2">  1       -3 0.19902448E-02 0.93734574E+02</pdfrwt>
<totfact> 0.27292159E+04</totfact>
</mgrwt>
</event>
<event>
 7    1  0.1247599E-009  0.9176353E+02  0.7818608E-02  0.1298636E+00
          3   -1    0    0  501    0  0.00000000000E+00  0.00000000000E+00  0.43151311409E+01  0.43163129825E+01  0.10100000000E+00 0. -1.
         -3   -1    0    0    0  501 -0.00000000000E+00 -0.00000000000E+00 -0.48778191514E+03  0.48778192559E+03  0.10100000000E+00 0.  1.
         23    2    1    2    0    0  0.00000000000E+00  0.00000000000E+00 -0.48346678399E+03  0.49209823857E+03  0.91763528605E+02 0.  0.
    9000005    2    3    3    0    0  0.13333270959E+01  0.11742748260E+02 -0.47911398184E+03  0.47950392301E+03  0.15301460596E+02 0.  0.
         22    1    3    3    0    0 -0.13333270959E+01 -0.11742748260E+02 -0.43528021592E+01  0.12594315562E+02  0.00000000000E+00 0. -1.
         22    1    4    4    0    0  0.31269121203E+01  0.51303437557E+01 -0.41146886336E+03  0.41151272583E+03  0.00000000000E+00 0.  1.
         22    1    4    4    0    0 -0.17935850245E+01  0.66124045042E+01 -0.67645118480E+02  0.67991197185E+02  0.00000000000E+00 0.  1.
<mgrwt>
<rscale>  0 0.91763529E+02</rscale>
<asrwt>0</asrwt>
<pdfrwt beam="1">  1        3 0.66395843E-03 0.91763529E+02</pdfrwt>
<pdfrwt beam="2">  1       -3 0.75043420E-01 0.91763529E+02</pdfrwt>
<totfact> 0.17777093E+04</totfact>
</mgrwt>
</event>
<event>
 7    1  0.1247599E-009  0.9240159E+02  0.7818608E-02  0.1297138E+00
          3   -1    0    0  501    0  0.00000000000E+00  0.00000000000E+00  0.32395305602E+01  0.32411046343E+01  0.10100000000E+00 0. -1.
         -3   -1    0    0    0  501 -0.00000000000E+00 -0.00000000000E+00 -0.65873426820E+03  0.65873427594E+03  0.10100000000E+00 0.  1.
         23    2    1    2    0    0  0.00000000000E+00  0.00000000000E+00 -0.65549473764E+03  0.66197538057E+03  0.92401587739E+02 0.  0.
    9000005    2    3    3    0    0  0.69724829459E+01  0.39362009320E+02 -0.48813763705E+03  0.48991032772E+03  0.11653034285E+02 0.  0.
         22    1    3    3    0    0 -0.69724829459E+01 -0.39362009320E+02 -0.16735710059E+03  0.17206505285E+03  0.00000000000E+00 0. -1.
         22    1    4    4    0    0  0.77299460909E+01  0.37519138753E+02 -0.48023400003E+03  0.48175941364E+03  0.00000000000E+00 0.  1.
         22    1    4    4    0    0 -0.75746314508E+00  0.18428705663E+01 -0.79036370126E+01  0.81509140817E+01  0.00000000000E+00 0.  1.
<mgrwt>
<rscale>  0 0.92401588E+02</rscale>
<asrwt>0</asrwt>
<pdfrwt beam="1">  1        3 0.49851152E-03 0.92401588E+02</pdfrwt>
<pdfrwt beam="2">  1       -3 0.10134375E+00 0.92401588E+02</pdfrwt>
<totfact> 0.14032857E+04</totfact>
</mgrwt>
</event>
<event>
 7    1  0.1273337E-009  0.9049798E+02  0.7818608E-02  0.1301650E+00
         -3   -1    0    0    0  501 -0.00000000000E+00  0.00000000000E+00  0.92969543729E+01  0.92975029772E+01  0.10100000000E+00 0.  1.
          3   -1    0    0  501    0  0.00000000000E+00 -0.00000000000E+00 -0.22022323294E+03  0.22022325610E+03  0.10100000000E+00 0. -1.
         23    2    1    2    0    0  0.35527136788E-14  0.00000000000E+00 -0.21092627856E+03  0.22952075907E+03  0.90497977090E+02 0.  0.
    9000005    2    3    3    0    0  0.28116480527E+02  0.22773645671E+02 -0.17159467926E+03  0.17607779772E+03  0.15794982925E+02 0.  0.
         22    1    3    3    0    0 -0.28116480527E+02 -0.22773645671E+02 -0.39331599303E+02  0.53442961353E+02  0.00000000000E+00 0.  1.
         22    1    4    4    0    0  0.49457950123E+01  0.11962172699E+02 -0.77379182160E+02  0.78454396280E+02  0.00000000000E+00 0.  1.
         22    1    4    4    0    0  0.23170685515E+02  0.10811472972E+02 -0.94215497100E+02  0.97623401441E+02  0.00000000000E+00 0.  1.
<mgrwt>
<rscale>  0 0.90497977E+02</rscale>
<asrwt>0</asrwt>
<pdfrwt beam="2">  1        3 0.33880538E-01 0.90497977E+02</pdfrwt>
<pdfrwt beam="1">  1       -3 0.14303448E-02 0.90497977E+02</pdfrwt>
<totfact> 0.27590080E+04</totfact>
</mgrwt>
</event>
<event>
 7    1  0.1247599E-009  0.8848586E+02  0.7818608E-02  0.1306560E+00
          3   -1    0    0  501    0  0.00000000000E+00  0.00000000000E+00  0.28040012447E+02  0.28040194348E+02  0.10100000000E+00 0. -1.
         -3   -1    0    0    0  501 -0.00000000000E+00 -0.00000000000E+00 -0.69808253432E+02  0.69808326496E+02  0.10100000000E+00 0.  1.
         23    2    1    2    0    0  0.00000000000E+00  0.00000000000E+00 -0.41768240984E+02  0.97848520844E+02  0.88485858059E+02 0.  0.
    9000005    2    3    3    0    0  0.20731480619E+02  0.31767391333E+02 -0.45840690520E+02  0.59696898519E+02  0.48362531542E+01 0.  0.
         22    1    3    3    0    0 -0.20731480619E+02 -0.31767391333E+02  0.40724495361E+01  0.38151622325E+02  0.00000000000E+00 0. -1.
         22    1    4    4    0    0  0.81618059784E+01  0.16461141631E+02 -0.20375992444E+02  0.27436569186E+02  0.00000000000E+00 0. -1.
         22    1    4    4    0    0  0.12569674641E+02  0.15306249703E+02 -0.25464698077E+02  0.32260329333E+02  0.00000000000E+00 0. -1.
<mgrwt>
<rscale>  0 0.88485858E+02</rscale>
<asrwt>0</asrwt>
<pdfrwt beam="1">  1        3 0.43138677E-02 0.88485858E+02</pdfrwt>
<pdfrwt beam="2">  1       -3 0.10739751E-01 0.88485858E+02</pdfrwt>
<totfact> 0.37782805E+04</totfact>
</mgrwt>
</event>
<event>
 7    1  0.1247599E-009  0.9053390E+02  0.7818608E-02  0.1301564E+00
         -3   -1    0    0    0  501 -0.00000000000E+00  0.00000000000E+00  0.36936028809E+02  0.36936166899E+02  0.10100000000E+00 0.  1.
          3   -1    0    0  501    0  0.00000000000E+00 -0.00000000000E+00 -0.55476619814E+02  0.55476711753E+02  0.10100000000E+00 0. -1.
         23    2    1    2    0    0 -0.35527136788E-14  0.00000000000E+00 -0.18540591004E+02  0.92412878652E+02  0.90533897663E+02 0.  0.
    9000005    2    3    3    0    0 -0.28322377409E+02  0.15054354185E+02 -0.40516984910E+02  0.53531616698E+02  0.13972017679E+02 0.  0.
         22    1    3    3    0    0  0.28322377409E+02 -0.15054354185E+02  0.21976393906E+02  0.38881261954E+02  0.00000000000E+00 0.  1.
         22    1    4    4    0    0 -0.14627501694E+02 -0.64044243326E-02 -0.16652717794E+02  0.22164766112E+02  0.00000000000E+00 0. -1.
         22    1    4    4    0    0 -0.13694875715E+02  0.15060758609E+02 -0.23864267116E+02  0.31366850586E+02  0.00000000000E+00 0. -1.
<mgrwt>
<rscale>  0 0.90533898E+02</rscale>
<asrwt>0</asrwt>
<pdfrwt beam="2">  1        3 0.85348823E-02 0.90533898E+02</pdfrwt>
<pdfrwt beam="1">  1       -3 0.56824836E-02 0.90533898E+02</pdfrwt>
<totfact> 0.35928905E+04</totfact>
</mgrwt>
</event>
<event>
 7    1  0.1247599E-009  0.9160919E+02  0.7818608E-02  0.1299001E+00
         -3   -1    0    0    0  501 -0.00000000000E+00  0.00000000000E+00  0.42007885263E+02  0.42008006681E+02  0.10100000000E+00 0.  1.
          3   -1    0    0  501    0  0.00000000000E+00 -0.00000000000E+00 -0.49944214590E+02  0.49944316714E+02  0.10100000000E+00 0. -1.
         23    2    1    2    0    0  0.00000000000E+00 -0.22204460493E-15 -0.79363293263E+01  0.91952323394E+02  0.91609194159E+02 0.  0.
    9000005    2    3    3    0    0 -0.36415746135E+02 -0.28172246247E+00  0.23255648877E+02  0.44003126964E+02  0.83225022559E+01 0.  0.
         22    1    3    3    0    0  0.36415746135E+02  0.28172246247E+00 -0.31191978204E+02  0.47949196431E+02  0.00000000000E+00 0. -1.
         22    1    4    4    0    0 -0.31240771841E+02 -0.31003019064E+01  0.18576387349E+02  0.36478484947E+02  0.00000000000E+00 0.  1.
         22    1    4    4    0    0 -0.51749742938E+01  0.28185794440E+01  0.46792615284E+01  0.75246420164E+01  0.00000000000E+00 0.  1.
<mgrwt>
<rscale>  0 0.91609194E+02</rscale>
<asrwt>0</asrwt>
<pdfrwt beam="2">  1        3 0.76837425E-02 0.91609194E+02</pdfrwt>
<pdfrwt beam="1">  1       -3 0.64627688E-02 0.91609194E+02</pdfrwt>
<totfact> 0.34826424E+04</totfact>
</mgrwt>
</event>
<event>
 7    1  0.1247599E-009  0.8990617E+02  0.7818608E-02  0.1303079E+00
          3   -1    0    0  501    0  0.00000000000E+00  0.00000000000E+00  0.54461266510E+01  0.54470631076E+01  0.10100000000E+00 0. -1.
         -3   -1    0    0    0  501 -0.00000000000E+00 -0.00000000000E+00 -0.37101618312E+03  0.37101619687E+03  0.10100000000E+00 0.  1.
         23    2    1    2    0    0  0.00000000000E+00  0.00000000000E+00 -0.36557005647E+03  0.37646325998E+03  0.89906172893E+02 0.  0.
    9000005    2    3    3    0    0  0.40315643164E+02 -0.17266931361E+02 -0.19279225413E+03  0.19820595442E+03  0.13901406869E+02 0.  0.
         22    1    3    3    0    0 -0.40315643164E+02  0.17266931361E+02 -0.17277780234E+03  0.17825730556E+03  0.00000000000E+00 0. -1.
         22    1    4    4    0    0  0.23704312376E+02 -0.55899303365E+01 -0.12835957920E+03  0.13064962043E+03  0.00000000000E+00 0.  1.
         22    1    4    4    0    0  0.16611330788E+02 -0.11677001025E+02 -0.64432674928E+02  0.67556333988E+02  0.00000000000E+00 0.  1.
<mgrwt>
<rscale>  0 0.89906173E+02</rscale>
<asrwt>0</asrwt>
<pdfrwt beam="1">  1        3 0.83793902E-03 0.89906173E+02</pdfrwt>
<pdfrwt beam="2">  1       -3 0.57079466E-01 0.89906173E+02</pdfrwt>
<totfact> 0.22147240E+04</totfact>
</mgrwt>
</event>
<event>
 7    1  0.1247599E-009  0.9139977E+02  0.7818608E-02  0.1299497E+00
          3   -1    0    0  501    0  0.00000000000E+00  0.00000000000E+00  0.23931360317E+02  0.23931573446E+02  0.10100000000E+00 0. -1.
         -3   -1    0    0    0  501 -0.00000000000E+00 -0.00000000000E+00 -0.87268946011E+02  0.87269004457E+02  0.10100000000E+00 0.  1.
         23    2    1    2    0    0  0.00000000000E+00  0.00000000000E+00 -0.63337585695E+02  0.11120057790E+03  0.91399774421E+02 0.  0.
    9000005    2    3    3    0    0  0.25414013749E+01  0.32513594320E+02  0.56528750218E+01  0.34890184073E+02  0.11035280338E+02 0.  0.
         22    1    3    3    0    0 -0.25414013749E+01 -0.32513594320E+02 -0.68990460716E+02  0.76310393829E+02  0.00000000000E+00 0.  1.
         22    1    4    4    0    0 -0.94189485933E+00  0.46558915386E+01  0.48723194266E+01  0.68047034131E+01  0.00000000000E+00 0. -1.
         22    1    4    4    0    0  0.34832962342E+01  0.27857702781E+02  0.78055559519E+00  0.28085480660E+02  0.00000000000E+00 0. -1.
<mgrwt>
<rscale>  0 0.91399774E+02</rscale>
<asrwt>0</asrwt>
<pdfrwt beam="1">  1        3 0.36817687E-02 0.91399774E+02</pdfrwt>
<pdfrwt beam="2">  1       -3 0.13426012E-01 0.91399774E+02</pdfrwt>
<totfact> 0.33636567E+04</totfact>
</mgrwt>
</event>
<event>
 7    1  0.1247599E-009  0.9460676E+02  0.7818608E-02  0.1292064E+00
          3   -1    0    0  501    0  0.00000000000E+00  0.00000000000E+00  0.13822890702E+02  0.13823259686E+02  0.10100000000E+00 0. -1.
         -3   -1    0    0    0  501 -0.00000000000E+00 -0.00000000000E+00 -0.16187456370E+03  0.16187459521E+03  0.10100000000E+00 0.  1.
         23    2    1    2    0    0  0.00000000000E+00 -0.71054273576E-14 -0.14805167300E+03  0.17569785490E+03  0.94606756298E+02 0.  0.
    9000005    2    3    3    0    0 -0.15917040529E+02  0.37165528933E+02 -0.33415012515E+02  0.54140491289E+02  0.13416445714E+02 0.  0.
         22    1    3    3    0    0  0.15917040529E+02 -0.37165528933E+02 -0.11463666049E+03  0.12155736361E+03  0.00000000000E+00 0.  1.
         22    1    4    4    0    0 -0.10731716780E+02  0.13701790048E+02 -0.79706270067E+01  0.19142614514E+02  0.00000000000E+00 0. -1.
         22    1    4    4    0    0 -0.51853237486E+01  0.23463738885E+02 -0.25444385509E+02  0.34997876775E+02  0.00000000000E+00 0. -1.
<mgrwt>
<rscale>  0 0.94606756E+02</rscale>
<asrwt>0</asrwt>
<pdfrwt beam="1">  1        3 0.21266295E-02 0.94606756E+02</pdfrwt>
<pdfrwt beam="2">  1       -3 0.24903808E-01 0.94606756E+02</pdfrwt>
<totfact> 0.26964305E+04</totfact>
</mgrwt>
</event>
<event>
 7    1  0.1247599E-009  0.9435887E+02  0.7818608E-02  0.1292627E+00
         -3   -1    0    0    0  501 -0.00000000000E+00  0.00000000000E+00  0.31852118731E+02  0.31852278862E+02  0.10100000000E+00 0.  1.
          3   -1    0    0  501    0  0.00000000000E+00 -0.00000000000E+00 -0.69881918301E+02  0.69881991288E+02  0.10100000000E+00 0. -1.
         23    2    1    2    0    0  0.00000000000E+00  0.44408920985E-15 -0.38029799569E+02  0.10173427015E+03  0.94358868516E+02 0.  0.
    9000005    2    3    3    0    0 -0.35004801057E+02  0.39556453701E+01 -0.52371303033E+02  0.63699260633E+02  0.85941373387E+01 0.  0.
         22    1    3    3    0    0  0.35004801057E+02 -0.39556453701E+01  0.14341503463E+02  0.38035009516E+02  0.00000000000E+00 0.  1.
         22    1    4    4    0    0 -0.16756387656E+02  0.40736107854E+01 -0.18959906707E+02  0.25629063472E+02  0.00000000000E+00 0. -1.
         22    1    4    4    0    0 -0.18248413401E+02 -0.11796541529E+00 -0.33411396326E+02  0.38070197162E+02  0.00000000000E+00 0. -1.
<mgrwt>
<rscale>  0 0.94358869E+02</rscale>
<asrwt>0</asrwt>
<pdfrwt beam="2">  1        3 0.10751082E-01 0.94358869E+02</pdfrwt>
<pdfrwt beam="1">  1       -3 0.49003439E-02 0.94358869E+02</pdfrwt>
<totfact> 0.31453676E+04</totfact>
</mgrwt>
</event>
<event>
 7    1  0.1247599E-009  0.9156055E+02  0.7818608E-02  0.1299116E+00
         -3   -1    0    0    0  501 -0.00000000000E+00  0.00000000000E+00  0.11370113122E+02  0.11370561702E+02  0.10100000000E+00 0.  1.
          3   -1    0    0  501    0  0.00000000000E+00 -0.00000000000E+00 -0.18432420110E+03  0.18432422878E+03  0.10100000000E+00 0. -1.
         23    2    1    2    0    0 -0.22204460493E-15  0.00000000000E+00 -0.17295408798E+03  0.19569479048E+03  0.91560550840E+02 0.  0.
    9000005    2    3    3    0    0 -0.16104685585E+01  0.25397203981E+02 -0.16735524679E+03  0.16963795641E+03  0.11029326656E+02 0.  0.
         22    1    3    3    0    0  0.16104685585E+01 -0.25397203981E+02 -0.55988411908E+01  0.26056834070E+02  0.00000000000E+00 0.  1.
         22    1    4    4    0    0 -0.11287612610E+01  0.11608590113E+02 -0.11131200736E+03  0.11192138513E+03  0.00000000000E+00 0. -1.
         22    1    4    4    0    0 -0.48170729753E+00  0.13788613869E+02 -0.56043239431E+02  0.57716571280E+02  0.00000000000E+00 0. -1.
<mgrwt>
<rscale>  0 0.91560551E+02</rscale>
<asrwt>0</asrwt>
<pdfrwt beam="2">  1        3 0.28357604E-01 0.91560551E+02</pdfrwt>
<pdfrwt beam="1">  1       -3 0.17492849E-02 0.91560551E+02</pdfrwt>
<totfact> 0.28398424E+04</totfact>
</mgrwt>
</event>
<event>
 7    1  0.1247599E-009  0.9138194E+02  0.7818608E-02  0.1299539E+00
         -3   -1    0    0    0  501 -0.00000000000E+00  0.00000000000E+00  0.40604252908E+02  0.40604378523E+02  0.10100000000E+00 0.  1.
          3   -1    0    0  501    0  0.00000000000E+00 -0.00000000000E+00 -0.51414675196E+02  0.51414774399E+02  0.10100000000E+00 0. -1.
         23    2    1    2    0    0  0.00000000000E+00  0.00000000000E+00 -0.10810422288E+02  0.92019152922E+02  0.91381941731E+02 0.  0.
    9000005    2    3    3    0    0 -0.14563645513E+02 -0.25132262967E+02  0.29433629151E+02  0.42387367857E+02  0.93069875014E+01 0.  0.
         22    1    3    3    0    0  0.14563645513E+02  0.25132262967E+02 -0.40244051440E+02  0.49631785065E+02  0.00000000000E+00 0. -1.
         22    1    4    4    0    0  0.12863528573E+01 -0.13868963629E+01  0.25296821934E+01  0.31587144845E+01  0.00000000000E+00 0.  1.
         22    1    4    4    0    0 -0.15849998370E+02 -0.23745366604E+02  0.26903946958E+02  0.39228653372E+02  0.00000000000E+00 0.  1.
<mgrwt>
<rscale>  0 0.91381942E+02</rscale>
<asrwt>0</asrwt>
<pdfrwt beam="2">  1        3 0.79099673E-02 0.91381942E+02</pdfrwt>
<pdfrwt beam="1">  1       -3 0.62468254E-02 0.91381942E+02</pdfrwt>
<totfact> 0.35058506E+04</totfact>
</mgrwt>
</event>
<event>
 7    1  0.1247599E-009  0.9374798E+02  0.7818608E-02  0.1294021E+00
          3   -1    0    0  501    0  0.00000000000E+00  0.00000000000E+00  0.94890218303E+02  0.94890272055E+02  0.10100000000E+00 0. -1.
         -3   -1    0    0    0  501 -0.00000000000E+00 -0.00000000000E+00 -0.23154702375E+02  0.23154922653E+02  0.10100000000E+00 0.  1.
         23    2    1    2    0    0  0.00000000000E+00  0.00000000000E+00  0.71735515928E+02  0.11804519471E+03  0.93747979968E+02 0.  0.
    9000005    2    3    3    0    0  0.28125040615E+02 -0.35527861557E+02  0.50659241962E+02  0.68070639375E+02  0.37424981351E+01 0.  0.
         22    1    3    3    0    0 -0.28125040615E+02  0.35527861557E+02  0.21076273967E+02  0.49974555333E+02  0.00000000000E+00 0.  1.
         22    1    4    4    0    0  0.25309824322E+02 -0.29948542897E+02  0.44092770261E+02  0.59005718520E+02  0.00000000000E+00 0.  1.
         22    1    4    4    0    0  0.28152162937E+01 -0.55793186605E+01  0.65664717007E+01  0.90649208541E+01  0.00000000000E+00 0.  1.
<mgrwt>
<rscale>  0 0.93747980E+02</rscale>
<asrwt>0</asrwt>
<pdfrwt beam="1">  1        3 0.14598516E-01 0.93747980E+02</pdfrwt>
<pdfrwt beam="2">  1       -3 0.35622830E-02 0.93747980E+02</pdfrwt>
<totfact> 0.30944508E+04</totfact>
</mgrwt>
</event>
<event>
 7    1  0.1247599E-009  0.9399924E+02  0.7818608E-02  0.1293446E+00
         -3   -1    0    0    0  501 -0.00000000000E+00  0.00000000000E+00  0.15285491882E+03  0.15285495219E+03  0.10100000000E+00 0.  1.
          3   -1    0    0  501    0  0.00000000000E+00 -0.00000000000E+00 -0.14451168271E+02  0.14451521214E+02  0.10100000000E+00 0. -1.
         23    2    1    2    0    0  0.00000000000E+00  0.00000000000E+00  0.13840375055E+03  0.16730647340E+03  0.93999244019E+02 0.  0.
    9000005    2    3    3    0    0  0.17319355063E+02  0.18823450922E+02  0.13780308196E+01  0.27913753965E+02  0.11090370918E+02 0.  0.
         22    1    3    3    0    0 -0.17319355063E+02 -0.18823450922E+02  0.13702571973E+03  0.13939271944E+03  0.00000000000E+00 0.  1.
         22    1    4    4    0    0  0.14464275123E+02  0.14144137070E+02 -0.35536653262E+01  0.20540214350E+02  0.00000000000E+00 0.  1.
         22    1    4    4    0    0  0.28550799395E+01  0.46793138514E+01  0.49316961458E+01  0.73735396151E+01  0.00000000000E+00 0.  1.
<mgrwt>
<rscale>  0 0.93999244E+02</rscale>
<asrwt>0</asrwt>
<pdfrwt beam="2">  1        3 0.22232863E-02 0.93999244E+02</pdfrwt>
<pdfrwt beam="1">  1       -3 0.23516172E-01 0.93999244E+02</pdfrwt>
<totfact> 0.27877179E+04</totfact>
</mgrwt>
</event>
<event>
 7    1  0.1247599E-009  0.9265144E+02  0.7818608E-02  0.1296555E+00
         -3   -1    0    0    0  501 -0.00000000000E+00  0.00000000000E+00  0.72002066310E+02  0.72002137148E+02  0.10100000000E+00 0.  1.
          3   -1    0    0  501    0  0.00000000000E+00 -0.00000000000E+00 -0.29805531596E+02  0.29805702721E+02  0.10100000000E+00 0. -1.
         23    2    1    2    0    0  0.00000000000E+00  0.44408920985E-15  0.42196534714E+02  0.10180783987E+03  0.92651436669E+02 0.  0.
    9000005    2    3    3    0    0 -0.33205916006E+02 -0.23180880720E+01 -0.12420876860E+02  0.37846382434E+02  0.13040862368E+02 0.  0.
         22    1    3    3    0    0  0.33205916006E+02  0.23180880720E+01  0.54617411574E+02  0.63961457434E+02  0.00000000000E+00 0.  1.
         22    1    4    4    0    0 -0.92715933731E+01  0.31456898783E+01 -0.85391783864E+01  0.12991357743E+02  0.00000000000E+00 0. -1.
         22    1    4    4    0    0 -0.23934322633E+02 -0.54637779503E+01 -0.38816984736E+01  0.24855024692E+02  0.00000000000E+00 0. -1.
<mgrwt>
<rscale>  0 0.92651437E+02</rscale>
<asrwt>0</asrwt>
<pdfrwt beam="2">  1        3 0.45854851E-02 0.92651437E+02</pdfrwt>
<pdfrwt beam="1">  1       -3 0.11077259E-01 0.92651437E+02</pdfrwt>
<totfact> 0.33059596E+04</totfact>
</mgrwt>
</event>
<event>
 7    1  0.1247599E-009  0.8987079E+02  0.7818608E-02  0.1303165E+00
          3   -1    0    0  501    0  0.00000000000E+00  0.00000000000E+00  0.14180971401E+03  0.14180974998E+03  0.10100000000E+00 0. -1.
         -3   -1    0    0    0  501 -0.00000000000E+00 -0.00000000000E+00 -0.14238508565E+02  0.14238866780E+02  0.10100000000E+00 0.  1.
         23    2    1    2    0    0 -0.35527136788E-14 -0.35527136788E-14  0.12757120545E+03  0.15604861676E+03  0.89870786874E+02 0.  0.
    9000005    2    3    3    0    0 -0.25191492888E+02 -0.31186551799E+02  0.30276543530E+02  0.50818090938E+02  0.76548645601E+01 0.  0.
         22    1    3    3    0    0  0.25191492888E+02  0.31186551799E+02  0.97294661918E+02  0.10523052582E+03  0.00000000000E+00 0. -1.
         22    1    4    4    0    0 -0.12819481263E+02 -0.17703453951E+02  0.11911312019E+02  0.24892383085E+02  0.00000000000E+00 0.  1.
         22    1    4    4    0    0 -0.12372011625E+02 -0.13483097848E+02  0.18365231511E+02  0.25925707853E+02  0.00000000000E+00 0.  1.
<mgrwt>
<rscale>  0 0.89870787E+02</rscale>
<asrwt>0</asrwt>
<pdfrwt beam="1">  1        3 0.21816909E-01 0.89870787E+02</pdfrwt>
<pdfrwt beam="2">  1       -3 0.21905702E-02 0.89870787E+02</pdfrwt>
<totfact> 0.32170587E+04</totfact>
</mgrwt>
</event>
<event>
 7    1  0.1247599E-009  0.8953222E+02  0.7818608E-02  0.1303988E+00
         -3   -1    0    0    0  501 -0.00000000000E+00  0.00000000000E+00  0.10423534856E+02  0.10424024170E+02  0.10100000000E+00 0.  1.
          3   -1    0    0  501    0  0.00000000000E+00 -0.00000000000E+00 -0.19225266085E+03  0.19225268738E+03  0.10100000000E+00 0. -1.
         23    2    1    2    0    0  0.35527136788E-14 -0.35527136788E-14 -0.18182912599E+03  0.20267671155E+03  0.89532219592E+02 0.  0.
    9000005    2    3    3    0    0  0.31152485882E+02 -0.26352727613E+02 -0.59083647567E+02  0.73326813586E+02  0.14866087297E+02 0.  0.
         22    1    3    3    0    0 -0.31152485882E+02  0.26352727613E+02 -0.12274547842E+03  0.12934989796E+03  0.00000000000E+00 0.  1.
         22    1    4    4    0    0  0.31018228237E+02 -0.20350082910E+02 -0.47407794459E+02  0.60197635609E+02  0.00000000000E+00 0.  1.
         22    1    4    4    0    0  0.13425764485E+00 -0.60026447024E+01 -0.11675853109E+02  0.13129177977E+02  0.00000000000E+00 0.  1.
<mgrwt>
<rscale>  0 0.89532220E+02</rscale>
<asrwt>0</asrwt>
<pdfrwt beam="2">  1        3 0.29577370E-01 0.89532220E+02</pdfrwt>
<pdfrwt beam="1">  1       -3 0.16036606E-02 0.89532220E+02</pdfrwt>
<totfact> 0.29784537E+04</totfact>
</mgrwt>
</event>
<event>
 7    1  0.1247599E-009  0.8971764E+02  0.7818608E-02  0.1303537E+00
          3   -1    0    0  501    0  0.00000000000E+00  0.00000000000E+00  0.15624959220E+02  0.15625285650E+02  0.10100000000E+00 0. -1.
         -3   -1    0    0    0  501 -0.00000000000E+00 -0.00000000000E+00 -0.12878672402E+03  0.12878676362E+03  0.10100000000E+00 0.  1.
         23    2    1    2    0    0  0.00000000000E+00  0.00000000000E+00 -0.11316176480E+03  0.14441204927E+03  0.89717640198E+02 0.  0.
    9000005    2    3    3    0    0 -0.17213889564E+02 -0.28844580924E+02 -0.10346466248E+03  0.10944976050E+03  0.12082460396E+02 0.  0.
         22    1    3    3    0    0  0.17213889564E+02  0.28844580924E+02 -0.96971023161E+01  0.34962288769E+02  0.00000000000E+00 0. -1.
         22    1    4    4    0    0 -0.13423694334E+02 -0.28684971263E+02 -0.95769854115E+02  0.10087065036E+03  0.00000000000E+00 0.  1.
         22    1    4    4    0    0 -0.37901952305E+01 -0.15960966067E+00 -0.76948083651E+01  0.85791101465E+01  0.00000000000E+00 0.  1.
<mgrwt>
<rscale>  0 0.89717640E+02</rscale>
<asrwt>0</asrwt>
<pdfrwt beam="1">  1        3 0.24038681E-02 0.89717640E+02</pdfrwt>
<pdfrwt beam="2">  1       -3 0.19813370E-01 0.89717640E+02</pdfrwt>
<totfact> 0.33064631E+04</totfact>
</mgrwt>
</event>
<event>
 7    1  0.1247599E-009  0.1073727E+03  0.7818608E-02  0.1265514E+00
         -3   -1    0    0    0  501 -0.00000000000E+00  0.00000000000E+00  0.13846840715E+02  0.13847209061E+02  0.10100000000E+00 0.  1.
          3   -1    0    0  501    0  0.00000000000E+00 -0.00000000000E+00 -0.20814734494E+03  0.20814736945E+03  0.10100000000E+00 0. -1.
         23    2    1    2    0    0  0.71054273576E-14  0.88817841970E-15 -0.19430050423E+03  0.22199457851E+03  0.10737274768E+03 0.  0.
    9000005    2    3    3    0    0  0.43262887380E+02  0.71168761365E+01 -0.37622511416E+02  0.59297557079E+02  0.13357378482E+02 0.  0.
         22    1    3    3    0    0 -0.43262887380E+02 -0.71168761365E+01 -0.15667799281E+03  0.16269702143E+03  0.00000000000E+00 0. -1.
         22    1    4    4    0    0  0.76520509434E+01 -0.26437740236E+01 -0.28654209262E+01  0.85880185033E+01  0.00000000000E+00 0. -1.
         22    1    4    4    0    0  0.35610836437E+02  0.97606501601E+01 -0.34757090490E+02  0.50709538576E+02  0.00000000000E+00 0. -1.
<mgrwt>
<rscale>  0 0.10737275E+03</rscale>
<asrwt>0</asrwt>
<pdfrwt beam="2">  1        3 0.32022697E-01 0.10737275E+03</pdfrwt>
<pdfrwt beam="1">  1       -3 0.21303136E-02 0.10737275E+03</pdfrwt>
<totfact> 0.17557818E+04</totfact>
</mgrwt>
</event>
<event>
 6    1  0.1247599E-009  0.1433949E+03  0.7818608E-02  0.1208833E+00
         -3   -1    0    0    0  501 -0.00000000000E+00  0.00000000000E+00  0.81714915435E+02  0.81714977853E+02  0.10100000000E+00 0.  1.
          3   -1    0    0  501    0  0.00000000000E+00 -0.00000000000E+00 -0.62907876243E+02  0.62907957322E+02  0.10100000000E+00 0. -1.
    9000005    2    1    2    0    0  0.32357258639E+02 -0.37959410687E+02  0.60768946668E+02  0.79440800158E+02  0.11404683437E+02 0.  0.
         22    1    1    2    0    0 -0.32357258639E+02  0.37959410687E+02 -0.41961907476E+02  0.65182135017E+02  0.00000000000E+00 0. -1.
         22    1    3    3    0    0  0.51880129085E+01 -0.83180546913E+01  0.59898883452E+01  0.11488440894E+02  0.00000000000E+00 0.  1.
         22    1    3    3    0    0  0.27169245730E+02 -0.29641355996E+02  0.54779058323E+02  0.67952359264E+02  0.00000000000E+00 0.  1.
<mgrwt>
<rscale>  0 0.14339487E+03</rscale>
<asrwt>0</asrwt>
<pdfrwt beam="2">  1        3 0.96781458E-02 0.14339487E+03</pdfrwt>
<pdfrwt beam="1">  1       -3 0.12571537E-01 0.14339487E+03</pdfrwt>
<totfact> 0.89560505E+03</totfact>
</mgrwt>
</event>
<event>
 7    1  0.1905848E-009  0.9601673E+02  0.7818608E-02  0.1288902E+00
          3   -1    0    0  501    0  0.00000000000E+00  0.00000000000E+00  0.96290072108E+02  0.96290125078E+02  0.10100000000E+00 0. -1.
         -3   -1    0    0    0  501 -0.00000000000E+00 -0.00000000000E+00 -0.23935872451E+02  0.23936085540E+02  0.10100000000E+00 0.  1.
         23    2    1    2    0    0  0.00000000000E+00  0.00000000000E+00  0.72354199657E+02  0.12022621062E+03  0.96016725166E+02 0.  0.
    9000005    2    3    3    0    0  0.30842342293E+02 -0.29933861029E+02  0.12586194099E+02  0.46608953112E+02  0.12911084932E+02 0.  0.
         22    1    3    3    0    0 -0.30842342293E+02  0.29933861029E+02  0.59768005559E+02  0.73617257506E+02  0.00000000000E+00 0. -1.
         22    1    4    4    0    0  0.31147622023E+02 -0.28254017279E+02  0.95472624472E+01  0.43123242809E+02  0.00000000000E+00 0.  1.
         22    1    4    4    0    0 -0.30527973016E+00 -0.16798437503E+01  0.30389316516E+01  0.34857103038E+01  0.00000000000E+00 0.  1.
<mgrwt>
<rscale>  0 0.96016725E+02</rscale>
<asrwt>0</asrwt>
<pdfrwt beam="1">  1        3 0.14813878E-01 0.96016725E+02</pdfrwt>
<pdfrwt beam="2">  1       -3 0.36824623E-02 0.96016725E+02</pdfrwt>
<totfact> 0.28858158E+04</totfact>
</mgrwt>
</event>
<event>
 7    1  0.1247599E-009  0.9255965E+02  0.7818608E-02  0.1296769E+00
          3   -1    0    0  501    0  0.00000000000E+00  0.00000000000E+00  0.14022266416E+03  0.14022270054E+03  0.10100000000E+00 0. -1.
         -3   -1    0    0    0  501 -0.00000000000E+00 -0.00000000000E+00 -0.15274231617E+02  0.15274565541E+02  0.10100000000E+00 0.  1.
         23    2    1    2    0    0  0.00000000000E+00  0.00000000000E+00  0.12494843255E+03  0.15549726608E+03  0.92559650831E+02 0.  0.
    9000005    2    3    3    0    0 -0.31175736796E+02 -0.30015281746E+02  0.42652267917E+02  0.62516072196E+02  0.14703728143E+02 0.  0.
         22    1    3    3    0    0  0.31175736796E+02  0.30015281746E+02  0.82296164629E+02  0.92981193882E+02  0.00000000000E+00 0. -1.
         22    1    4    4    0    0 -0.17417053694E+02 -0.15897498900E+02  0.33018594800E+02  0.40574768431E+02  0.00000000000E+00 0.  1.
         22    1    4    4    0    0 -0.13758683102E+02 -0.14117782846E+02  0.96336731163E+01  0.21941303765E+02  0.00000000000E+00 0.  1.
<mgrwt>
<rscale>  0 0.92559651E+02</rscale>
<asrwt>0</asrwt>
<pdfrwt beam="1">  1        3 0.21572746E-01 0.92559651E+02</pdfrwt>
<pdfrwt beam="2">  1       -3 0.23499103E-02 0.92559651E+02</pdfrwt>
<totfact> 0.29734474E+04</totfact>
</mgrwt>
</event>
<event>
 7    1  0.1247599E-009  0.9208827E+02  0.7818608E-02  0.1297872E+00
          3   -1    0    0  501    0  0.00000000000E+00  0.00000000000E+00  0.23655002789E+01  0.23676555006E+01  0.10100000000E+00 0. -1.
         -3   -1    0    0    0  501 -0.00000000000E+00 -0.00000000000E+00 -0.89583247994E+03  0.89583248563E+03  0.10100000000E+00 0.  1.
         23    2    1    2    0    0  0.00000000000E+00  0.00000000000E+00 -0.89346697966E+03  0.89820014113E+03  0.92088271721E+02 0.  0.
    9000005    2    3    3    0    0 -0.34832182545E+02  0.20342236118E+02 -0.65626833373E+03  0.65759614046E+03  0.10838384277E+02 0.  0.
         22    1    3    3    0    0  0.34832182545E+02 -0.20342236118E+02 -0.23719864593E+03  0.24060400067E+03  0.00000000000E+00 0. -1.
         22    1    4    4    0    0 -0.31022077079E+02  0.20634358301E+02 -0.55084688699E+03  0.55210545996E+03  0.00000000000E+00 0.  1.
         22    1    4    4    0    0 -0.38101054664E+01 -0.29212218283E+00 -0.10542144674E+03  0.10549068050E+03  0.00000000000E+00 0.  1.
<mgrwt>
<rscale>  0 0.92088272E+02</rscale>
<asrwt>0</asrwt>
<pdfrwt beam="1">  1        3 0.36409006E-03 0.92088272E+02</pdfrwt>
<pdfrwt beam="2">  1       -3 0.13782028E+00 0.92088272E+02</pdfrwt>
<totfact> 0.10821279E+04</totfact>
</mgrwt>
</event>
<event>
 7    1  0.1247599E-009  0.9021260E+02  0.7818608E-02  0.1302338E+00
         -3   -1    0    0    0  501 -0.00000000000E+00  0.00000000000E+00  0.14678617872E+03  0.14678621347E+03  0.10100000000E+00 0.  1.
          3   -1    0    0  501    0  0.00000000000E+00 -0.00000000000E+00 -0.13860610253E+02  0.13860978233E+02  0.10100000000E+00 0. -1.
         23    2    1    2    0    0  0.00000000000E+00  0.00000000000E+00  0.13292556847E+03  0.16064719170E+03  0.90212601388E+02 0.  0.
    9000005    2    3    3    0    0 -0.44095960183E+02 -0.71014868078E+00  0.64577554867E+02  0.79305880065E+02  0.13198636467E+02 0.  0.
         22    1    3    3    0    0  0.44095960183E+02  0.71014868078E+00  0.68348013602E+02  0.81341311638E+02  0.00000000000E+00 0.  1.
         22    1    4    4    0    0 -0.26667727609E+01 -0.15638759371E+01  0.70787533756E+00  0.31715094827E+01  0.00000000000E+00 0. -1.
         22    1    4    4    0    0 -0.41429187422E+02  0.85372725631E+00  0.63869679530E+02  0.76134370582E+02  0.00000000000E+00 0. -1.
<mgrwt>
<rscale>  0 0.90212601E+02</rscale>
<asrwt>0</asrwt>
<pdfrwt beam="2">  1        3 0.21324326E-02 0.90212601E+02</pdfrwt>
<pdfrwt beam="1">  1       -3 0.22582520E-01 0.90212601E+02</pdfrwt>
<totfact> 0.31562280E+04</totfact>
</mgrwt>
</event>
<event>
 7    1  0.1247599E-009  0.8897640E+02  0.7818608E-02  0.1305350E+00
          3   -1    0    0  501    0  0.00000000000E+00  0.00000000000E+00  0.51892718870E+02  0.51892817160E+02  0.10100000000E+00 0. -1.
         -3   -1    0    0    0  501 -0.00000000000E+00 -0.00000000000E+00 -0.38140019908E+02  0.38140153639E+02  0.10100000000E+00 0.  1.
         23    2    1    2    0    0  0.00000000000E+00  0.00000000000E+00  0.13752698962E+02  0.90032970798E+02  0.88976396320E+02 0.  0.
    9000005    2    3    3    0    0  0.25275513284E+02  0.17198412216E+02 -0.25539388653E+02  0.40248383788E+02  0.57476143090E+01 0.  0.
         22    1    3    3    0    0 -0.25275513284E+02 -0.17198412216E+02  0.39292087616E+02  0.49784587010E+02  0.00000000000E+00 0. -1.
         22    1    4    4    0    0  0.86009849506E+00 -0.45969869002E+00 -0.83894116479E+00  0.12864348350E+01  0.00000000000E+00 0. -1.
         22    1    4    4    0    0  0.24415414789E+02  0.17658110906E+02 -0.24700447489E+02  0.38961948953E+02  0.00000000000E+00 0. -1.
<mgrwt>
<rscale>  0 0.88976396E+02</rscale>
<asrwt>0</asrwt>
<pdfrwt beam="1">  1        3 0.79835131E-02 0.88976396E+02</pdfrwt>
<pdfrwt beam="2">  1       -3 0.58677132E-02 0.88976396E+02</pdfrwt>
<totfact> 0.37858271E+04</totfact>
</mgrwt>
</event>
<event>
 7    1  0.1247599E-009  0.9031746E+02  0.7818608E-02  0.1302085E+00
          3   -1    0    0  501    0  0.00000000000E+00  0.00000000000E+00  0.42116614891E+03  0.42116616102E+03  0.10100000000E+00 0. -1.
         -3   -1    0    0    0  501 -0.00000000000E+00 -0.00000000000E+00 -0.48415193575E+01  0.48425727345E+01  0.10100000000E+00 0.  1.
         23    2    1    2    0    0 -0.35527136788E-14  0.35527136788E-14  0.41632462956E+03  0.42600873376E+03  0.90317462672E+02 0.  0.
    9000005    2    3    3    0    0 -0.23300655871E+02  0.16405965488E+02  0.37214303452E+03  0.37343412385E+03  0.12269084823E+02 0.  0.
         22    1    3    3    0    0  0.23300655871E+02 -0.16405965488E+02  0.44181595034E+02  0.52574609912E+02  0.00000000000E+00 0.  1.
         22    1    4    4    0    0 -0.23384427396E+02  0.11781352415E+02  0.29865320221E+03  0.29979887741E+03  0.00000000000E+00 0. -1.
         22    1    4    4    0    0  0.83771524602E-01  0.46246130729E+01  0.73489832316E+02  0.73635246435E+02  0.00000000000E+00 0. -1.
<mgrwt>
<rscale>  0 0.90317463E+02</rscale>
<asrwt>0</asrwt>
<pdfrwt beam="1">  1        3 0.64794892E-01 0.90317463E+02</pdfrwt>
<pdfrwt beam="2">  1       -3 0.74493089E-03 0.90317463E+02</pdfrwt>
<totfact> 0.20360986E+04</totfact>
</mgrwt>
</event>
<event>
 7    1  0.1247599E-009  0.9199783E+02  0.7818608E-02  0.1298085E+00
         -3   -1    0    0    0  501 -0.00000000000E+00  0.00000000000E+00  0.52629126251E+02  0.52629223165E+02  0.10100000000E+00 0.  1.
          3   -1    0    0  501    0  0.00000000000E+00 -0.00000000000E+00 -0.40203776004E+02  0.40203902870E+02  0.10100000000E+00 0. -1.
         23    2    1    2    0    0  0.00000000000E+00  0.00000000000E+00  0.12425350247E+02  0.92833126035E+02  0.91997825848E+02 0.  0.
    9000005    2    3    3    0    0  0.19682455256E+02 -0.37147031385E+02 -0.96329364484E+01  0.45358195834E+02  0.14045336560E+02 0.  0.
         22    1    3    3    0    0 -0.19682455256E+02  0.37147031385E+02  0.22058286696E+02  0.47474930201E+02  0.00000000000E+00 0.  1.
         22    1    4    4    0    0  0.21747007232E+02 -0.34061026700E+02 -0.75823062696E+01  0.41116629626E+02  0.00000000000E+00 0.  1.
         22    1    4    4    0    0 -0.20645519753E+01 -0.30860046846E+01 -0.20506301788E+01  0.42415662086E+01  0.00000000000E+00 0.  1.
<mgrwt>
<rscale>  0 0.91997826E+02</rscale>
<asrwt>0</asrwt>
<pdfrwt beam="2">  1        3 0.61852135E-02 0.91997826E+02</pdfrwt>
<pdfrwt beam="1">  1       -3 0.80968058E-02 0.91997826E+02</pdfrwt>
<totfact> 0.34361125E+04</totfact>
</mgrwt>
</event>
<event>
 7    1  0.1247599E-009  0.8457327E+02  0.7818608E-02  0.1316552E+00
         -3   -1    0    0    0  501 -0.00000000000E+00  0.00000000000E+00  0.97698446973E+02  0.97698499179E+02  0.10100000000E+00 0.  1.
          3   -1    0    0  501    0  0.00000000000E+00 -0.00000000000E+00 -0.18302649120E+02  0.18302927793E+02  0.10100000000E+00 0. -1.
         23    2    1    2    0    0  0.00000000000E+00  0.00000000000E+00  0.79395797853E+02  0.11600142697E+03  0.84573272036E+02 0.  0.
    9000005    2    3    3    0    0 -0.18240436814E+02 -0.33854535624E+02  0.61708174552E+02  0.73673007021E+02  0.11873080458E+02 0.  0.
         22    1    3    3    0    0  0.18240436814E+02  0.33854535624E+02  0.17687623302E+02  0.42328419951E+02  0.00000000000E+00 0. -1.
         22    1    4    4    0    0 -0.85150859665E+01 -0.79034418554E+01  0.25956140430E+02  0.28437515858E+02  0.00000000000E+00 0. -1.
         22    1    4    4    0    0 -0.97253508477E+01 -0.25951093769E+02  0.35752034122E+02  0.45235491163E+02  0.00000000000E+00 0. -1.
<mgrwt>
<rscale>  0 0.84573272E+02</rscale>
<asrwt>0</asrwt>
<pdfrwt beam="2">  1        3 0.28158176E-02 0.84573272E+02</pdfrwt>
<pdfrwt beam="1">  1       -3 0.15030556E-01 0.84573272E+02</pdfrwt>
<totfact> 0.41072478E+04</totfact>
</mgrwt>
</event>
<event>
 7    1  0.1247599E-009  0.8988140E+02  0.7818608E-02  0.1303139E+00
          3   -1    0    0  501    0  0.00000000000E+00  0.00000000000E+00  0.75838165374E+02  0.75838232629E+02  0.10100000000E+00 0. -1.
         -3   -1    0    0    0  501 -0.00000000000E+00 -0.00000000000E+00 -0.26631094471E+02  0.26631285995E+02  0.10100000000E+00 0.  1.
         23    2    1    2    0    0  0.00000000000E+00  0.00000000000E+00  0.49207070902E+02  0.10246951862E+03  0.89881401970E+02 0.  0.
    9000005    2    3    3    0    0  0.21431214142E+02  0.17713157974E+02 -0.15501024839E+02  0.32040898308E+02  0.36447892030E+01 0.  0.
         22    1    3    3    0    0 -0.21431214142E+02 -0.17713157974E+02  0.64708095741E+02  0.70428620315E+02  0.00000000000E+00 0. -1.
         22    1    4    4    0    0  0.19282416401E+02  0.16413242912E+02 -0.15141904448E+02  0.29503955590E+02  0.00000000000E+00 0.  1.
         22    1    4    4    0    0  0.21487977406E+01  0.12999150628E+01 -0.35912039058E+00  0.25369427182E+01  0.00000000000E+00 0.  1.
<mgrwt>
<rscale>  0 0.89881402E+02</rscale>
<asrwt>0</asrwt>
<pdfrwt beam="1">  1        3 0.11667430E-01 0.89881402E+02</pdfrwt>
<pdfrwt beam="2">  1       -3 0.40971114E-02 0.89881402E+02</pdfrwt>
<totfact> 0.35855225E+04</totfact>
</mgrwt>
</event>
<event>
 7    1  0.1247599E-009  0.9031717E+02  0.7818608E-02  0.1302085E+00
          3   -1    0    0  501    0  0.00000000000E+00  0.00000000000E+00  0.54253922326E+02  0.54254016337E+02  0.10100000000E+00 0. -1.
         -3   -1    0    0    0  501 -0.00000000000E+00 -0.00000000000E+00 -0.37587832357E+02  0.37587968052E+02  0.10100000000E+00 0.  1.
         23    2    1    2    0    0  0.00000000000E+00  0.00000000000E+00  0.16666089969E+02  0.91841984389E+02  0.90317171909E+02 0.  0.
    9000005    2    3    3    0    0 -0.10229322890E+02 -0.34698728626E+02  0.35794911317E+02  0.50920686496E+02  0.17319994230E+01 0.  0.
         22    1    3    3    0    0  0.10229322890E+02  0.34698728626E+02 -0.19128821348E+02  0.40921297893E+02  0.00000000000E+00 0. -1.
         22    1    4    4    0    0 -0.80606620827E+01 -0.29142557138E+02  0.29336363800E+02  0.42129385834E+02  0.00000000000E+00 0.  1.
         22    1    4    4    0    0 -0.21686608078E+01 -0.55561714883E+01  0.64585475173E+01  0.87913006626E+01  0.00000000000E+00 0.  1.
<mgrwt>
<rscale>  0 0.90317172E+02</rscale>
<asrwt>0</asrwt>
<pdfrwt beam="1">  1        3 0.83467749E-02 0.90317172E+02</pdfrwt>
<pdfrwt beam="2">  1       -3 0.57827611E-02 0.90317172E+02</pdfrwt>
<totfact> 0.36208579E+04</totfact>
</mgrwt>
</event>
<event>
 7    1  0.1247599E-009  0.8969415E+02  0.7818608E-02  0.1303594E+00
         -3   -1    0    0    0  501 -0.00000000000E+00  0.00000000000E+00  0.10961606931E+03  0.10961611584E+03  0.10100000000E+00 0.  1.
          3   -1    0    0  501    0  0.00000000000E+00 -0.00000000000E+00 -0.18348033718E+02  0.18348311702E+02  0.10100000000E+00 0. -1.
         23    2    1    2    0    0  0.00000000000E+00  0.00000000000E+00  0.91268035589E+02  0.12796442754E+03  0.89694149170E+02 0.  0.
    9000005    2    3    3    0    0 -0.24895600354E+02  0.16901608037E+01 -0.47697650779E+01  0.28737885136E+02  0.13433831273E+02 0.  0.
         22    1    3    3    0    0  0.24895600354E+02 -0.16901608037E+01  0.96037800667E+02  0.99226542404E+02  0.00000000000E+00 0.  1.
         22    1    4    4    0    0 -0.26046544402E+02  0.43717837565E-01 -0.54620075545E+01  0.26613115433E+02  0.00000000000E+00 0.  1.
         22    1    4    4    0    0  0.11509440482E+01  0.16464429662E+01  0.69224247662E+00  0.21247697026E+01  0.00000000000E+00 0.  1.
<mgrwt>
<rscale>  0 0.89694149E+02</rscale>
<asrwt>0</asrwt>
<pdfrwt beam="2">  1        3 0.28227994E-02 0.89694149E+02</pdfrwt>
<pdfrwt beam="1">  1       -3 0.16864035E-01 0.89694149E+02</pdfrwt>
<totfact> 0.34196496E+04</totfact>
</mgrwt>
</event>
<event>
 7    1  0.1247599E-009  0.9389751E+02  0.7818608E-02  0.1293679E+00
         -3   -1    0    0    0  501 -0.00000000000E+00  0.00000000000E+00  0.67587955063E+01  0.67595501105E+01  0.10100000000E+00 0.  1.
          3   -1    0    0  501    0  0.00000000000E+00 -0.00000000000E+00 -0.32610207369E+03  0.32610208933E+03  0.10100000000E+00 0. -1.
         23    2    1    2    0    0  0.00000000000E+00  0.00000000000E+00 -0.31934327818E+03  0.33286163944E+03  0.93897506306E+02 0.  0.
    9000005    2    3    3    0    0 -0.26910863520E+02 -0.35252121100E+02 -0.21216176282E+03  0.21686688157E+03  0.71919470540E+01 0.  0.
         22    1    3    3    0    0  0.26910863520E+02  0.35252121100E+02 -0.10718151536E+03  0.11599475787E+03  0.00000000000E+00 0.  1.
         22    1    4    4    0    0 -0.10399230102E+02 -0.14613270598E+02 -0.69479091631E+02  0.71756782524E+02  0.00000000000E+00 0.  1.
         22    1    4    4    0    0 -0.16511633418E+02 -0.20638850502E+02 -0.14268267119E+03  0.14511009905E+03  0.00000000000E+00 0.  1.
<mgrwt>
<rscale>  0 0.93897506E+02</rscale>
<asrwt>0</asrwt>
<pdfrwt beam="2">  1        3 0.50169597E-01 0.93897506E+02</pdfrwt>
<pdfrwt beam="1">  1       -3 0.10398742E-02 0.93897506E+02</pdfrwt>
<totfact> 0.21079241E+04</totfact>
</mgrwt>
</event>
<event>
 7    1  0.1247599E-009  0.8937951E+02  0.7818608E-02  0.1304361E+00
          3   -1    0    0  501    0  0.00000000000E+00  0.00000000000E+00  0.86830744905E+02  0.86830803646E+02  0.10100000000E+00 0. -1.
         -3   -1    0    0    0  501 -0.00000000000E+00 -0.00000000000E+00 -0.23000595718E+02  0.23000817472E+02  0.10100000000E+00 0.  1.
         23    2    1    2    0    0  0.00000000000E+00  0.00000000000E+00  0.63830149187E+02  0.10983162112E+03  0.89379511366E+02 0.  0.
    9000005    2    3    3    0    0 -0.31951454606E+02  0.21842967825E+02  0.58295532866E+02  0.70733760912E+02  0.10338524354E+02 0.  0.
         22    1    3    3    0    0  0.31951454606E+02 -0.21842967825E+02  0.55346163216E+01  0.39097860206E+02  0.00000000000E+00 0.  1.
         22    1    4    4    0    0 -0.90625156172E+01  0.10292713252E+02  0.26950574364E+02  0.30239090495E+02  0.00000000000E+00 0.  1.
         22    1    4    4    0    0 -0.22888938989E+02  0.11550254573E+02  0.31344958502E+02  0.40494670417E+02  0.00000000000E+00 0.  1.
<mgrwt>
<rscale>  0 0.89379511E+02</rscale>
<asrwt>0</asrwt>
<pdfrwt beam="1">  1        3 0.13358598E-01 0.89379511E+02</pdfrwt>
<pdfrwt beam="2">  1       -3 0.35385747E-02 0.89379511E+02</pdfrwt>
<totfact> 0.35840054E+04</totfact>
</mgrwt>
</event>
<event>
 7    1  0.1247599E-009  0.9215438E+02  0.7818608E-02  0.1297717E+00
          3   -1    0    0  501    0  0.00000000000E+00  0.00000000000E+00  0.97823847390E+02  0.97823899530E+02  0.10100000000E+00 0. -1.
         -3   -1    0    0    0  501 -0.00000000000E+00 -0.00000000000E+00 -0.21703198255E+02  0.21703433265E+02  0.10100000000E+00 0.  1.
         23    2    1    2    0    0  0.00000000000E+00  0.00000000000E+00  0.76120649135E+02  0.11952733280E+03  0.92154381666E+02 0.  0.
    9000005    2    3    3    0    0 -0.40782662579E+02 -0.18742570032E+02  0.41024865706E+02  0.62551693150E+02  0.14668510875E+02 0.  0.
         22    1    3    3    0    0  0.40782662579E+02  0.18742570032E+02  0.35095783430E+02  0.56975639645E+02  0.00000000000E+00 0.  1.
         22    1    4    4    0    0 -0.60660173377E+01  0.24231897281E+01  0.64309990878E+01  0.91665786457E+01  0.00000000000E+00 0.  1.
         22    1    4    4    0    0 -0.34716645241E+02 -0.21165759761E+02  0.34593866618E+02  0.53385114504E+02  0.00000000000E+00 0.  1.
<mgrwt>
<rscale>  0 0.92154382E+02</rscale>
<asrwt>0</asrwt>
<pdfrwt beam="1">  1        3 0.15049845E-01 0.92154382E+02</pdfrwt>
<pdfrwt beam="2">  1       -3 0.33389756E-02 0.92154382E+02</pdfrwt>
<totfact> 0.32326477E+04</totfact>
</mgrwt>
</event>
<event>
 7    1  0.1247599E-009  0.9166537E+02  0.7818608E-02  0.1298868E+00
          3   -1    0    0  501    0  0.00000000000E+00  0.00000000000E+00  0.24450816399E+02  0.24451025001E+02  0.10100000000E+00 0. -1.
         -3   -1    0    0    0  501 -0.00000000000E+00 -0.00000000000E+00 -0.85912071645E+02  0.85912131014E+02  0.10100000000E+00 0.  1.
         23    2    1    2    0    0  0.00000000000E+00  0.00000000000E+00 -0.61461255246E+02  0.11036315602E+03  0.91665371374E+02 0.  0.
    9000005    2    3    3    0    0 -0.38906748974E+02 -0.23416365905E+02 -0.33894617755E+02  0.57240836690E+02  0.80998126053E+01 0.  0.
         22    1    3    3    0    0  0.38906748974E+02  0.23416365905E+02 -0.27566637491E+02  0.53122319326E+02  0.00000000000E+00 0.  1.
         22    1    4    4    0    0 -0.29308511282E+02 -0.18675148358E+02 -0.29797649176E+02  0.45778268821E+02  0.00000000000E+00 0.  1.
         22    1    4    4    0    0 -0.95982376921E+01 -0.47412175468E+01 -0.40969685787E+01  0.11462567869E+02  0.00000000000E+00 0.  1.
<mgrwt>
<rscale>  0 0.91665371E+02</rscale>
<asrwt>0</asrwt>
<pdfrwt beam="1">  1        3 0.37616847E-02 0.91665371E+02</pdfrwt>
<pdfrwt beam="2">  1       -3 0.13217262E-01 0.91665371E+02</pdfrwt>
<totfact> 0.33430407E+04</totfact>
</mgrwt>
</event>
<event>
 7    1  0.1247599E-009  0.9286507E+02  0.7818608E-02  0.1296058E+00
         -3   -1    0    0    0  501 -0.00000000000E+00  0.00000000000E+00  0.10422837322E+02  0.10423326668E+02  0.10100000000E+00 0.  1.
          3   -1    0    0  501    0  0.00000000000E+00 -0.00000000000E+00 -0.20684621718E+03  0.20684624184E+03  0.10100000000E+00 0. -1.
         23    2    1    2    0    0  0.35527136788E-14 -0.35527136788E-14 -0.19642337986E+03  0.21726956851E+03  0.92865070097E+02 0.  0.
    9000005    2    3    3    0    0  0.29772172433E+02 -0.25521505397E+02 -0.15579881175E+03  0.16080643874E+03  0.69073517564E+01 0.  0.
         22    1    3    3    0    0 -0.29772172433E+02  0.25521505397E+02 -0.40624568107E+02  0.56463129766E+02  0.00000000000E+00 0.  1.
         22    1    4    4    0    0  0.40929428842E+01 -0.87071709202E+00 -0.14374806771E+02  0.14971486212E+02  0.00000000000E+00 0.  1.
         22    1    4    4    0    0  0.25679229549E+02 -0.24650788305E+02 -0.14142400498E+03  0.14583495253E+03  0.00000000000E+00 0.  1.
<mgrwt>
<rscale>  0 0.92865070E+02</rscale>
<asrwt>0</asrwt>
<pdfrwt beam="2">  1        3 0.31822532E-01 0.92865070E+02</pdfrwt>
<pdfrwt beam="1">  1       -3 0.16035531E-02 0.92865070E+02</pdfrwt>
<totfact> 0.26293528E+04</totfact>
</mgrwt>
</event>
<event>
 7    1  0.1247599E-009  0.9133261E+02  0.7818608E-02  0.1299656E+00
         -3   -1    0    0    0  501 -0.00000000000E+00  0.00000000000E+00  0.22994942669E+03  0.22994944887E+03  0.10100000000E+00 0.  1.
          3   -1    0    0  501    0  0.00000000000E+00 -0.00000000000E+00 -0.90686964693E+01  0.90692588811E+01  0.10100000000E+00 0. -1.
         23    2    1    2    0    0 -0.22204460493E-15  0.00000000000E+00  0.22088073022E+03  0.23901870776E+03  0.91332610128E+02 0.  0.
    9000005    2    3    3    0    0 -0.18671148047E+01  0.37605973485E+02  0.17521925774E+03  0.17983538723E+03  0.14875579196E+02 0.  0.
         22    1    3    3    0    0  0.18671148047E+01 -0.37605973485E+02  0.45661472482E+02  0.59183320528E+02  0.00000000000E+00 0. -1.
         22    1    4    4    0    0  0.52197547598E+01  0.20500957902E+02  0.75302581507E+02  0.78217733899E+02  0.00000000000E+00 0.  1.
         22    1    4    4    0    0 -0.70868695644E+01  0.17105015583E+02  0.99916676235E+02  0.10161765333E+03  0.00000000000E+00 0.  1.
<mgrwt>
<rscale>  0 0.91332610E+02</rscale>
<asrwt>0</asrwt>
<pdfrwt beam="2">  1        3 0.13952290E-02 0.91332610E+02</pdfrwt>
<pdfrwt beam="1">  1       -3 0.35376880E-01 0.91332610E+02</pdfrwt>
<totfact> 0.26473690E+04</totfact>
</mgrwt>
</event>
<event>
 7    1  0.1247599E-009  0.9218484E+02  0.7818608E-02  0.1297645E+00
         -3   -1    0    0    0  501 -0.00000000000E+00  0.00000000000E+00  0.11773018742E+02  0.11773451970E+02  0.10100000000E+00 0.  1.
          3   -1    0    0  501    0  0.00000000000E+00 -0.00000000000E+00 -0.18045218128E+03  0.18045220955E+03  0.10100000000E+00 0. -1.
         23    2    1    2    0    0  0.00000000000E+00  0.00000000000E+00 -0.16867916254E+03  0.19222566152E+03  0.92184841869E+02 0.  0.
    9000005    2    3    3    0    0 -0.25212608416E+02  0.31811384744E+02 -0.40032942564E+02  0.57327589861E+02  0.60146692702E+01 0.  0.
         22    1    3    3    0    0  0.25212608416E+02 -0.31811384744E+02 -0.12864621998E+03  0.13489807166E+03  0.00000000000E+00 0. -1.
         22    1    4    4    0    0 -0.11054925273E+02  0.18103520309E+02 -0.22899666212E+02  0.31214476337E+02  0.00000000000E+00 0.  1.
         22    1    4    4    0    0 -0.14157683143E+02  0.13707864435E+02 -0.17133276353E+02  0.26113113524E+02  0.00000000000E+00 0.  1.
<mgrwt>
<rscale>  0 0.92184842E+02</rscale>
<asrwt>0</asrwt>
<pdfrwt beam="2">  1        3 0.27761908E-01 0.92184842E+02</pdfrwt>
<pdfrwt beam="1">  1       -3 0.18112693E-02 0.92184842E+02</pdfrwt>
<totfact> 0.28058554E+04</totfact>
</mgrwt>
</event>
<event>
 7    1  0.1247599E-009  0.9069827E+02  0.7818608E-02  0.1301169E+00
         -3   -1    0    0    0  501 -0.00000000000E+00  0.00000000000E+00  0.51913441237E+02  0.51913539487E+02  0.10100000000E+00 0.  1.
          3   -1    0    0  501    0  0.00000000000E+00 -0.00000000000E+00 -0.39614666625E+02  0.39614795377E+02  0.10100000000E+00 0. -1.
         23    2    1    2    0    0  0.00000000000E+00  0.00000000000E+00  0.12298774613E+02  0.91528334865E+02  0.90698270249E+02 0.  0.
    9000005    2    3    3    0    0  0.39260470190E+02 -0.19997288017E+02  0.12954796904E+02  0.47463536978E+02  0.11986848297E+02 0.  0.
         22    1    3    3    0    0 -0.39260470190E+02  0.19997288017E+02 -0.65602229102E+00  0.44064797887E+02  0.00000000000E+00 0. -1.
         22    1    4    4    0    0  0.11459715889E+02 -0.24138190671E+01 -0.95233748263E+00  0.11749832230E+02  0.00000000000E+00 0.  1.
         22    1    4    4    0    0  0.27800754300E+02 -0.17583468950E+02  0.13907134386E+02  0.35713704748E+02  0.00000000000E+00 0.  1.
<mgrwt>
<rscale>  0 0.90698270E+02</rscale>
<asrwt>0</asrwt>
<pdfrwt beam="2">  1        3 0.60945815E-02 0.90698270E+02</pdfrwt>
<pdfrwt beam="1">  1       -3 0.79867008E-02 0.90698270E+02</pdfrwt>
<totfact> 0.35821827E+04</totfact>
</mgrwt>
</event>
<event>
 7    1  0.1247599E-009  0.8884248E+02  0.7818608E-02  0.1305679E+00
         -3   -1    0    0    0  501 -0.00000000000E+00  0.00000000000E+00  0.13216705696E+03  0.13216709555E+03  0.10100000000E+00 0.  1.
          3   -1    0    0  501    0  0.00000000000E+00 -0.00000000000E+00 -0.14929729643E+02  0.14930071273E+02  0.10100000000E+00 0. -1.
         23    2    1    2    0    0  0.27755575616E-16  0.35527136788E-14  0.11723732732E+03  0.14709716682E+03  0.88842476165E+02 0.  0.
    9000005    2    3    3    0    0 -0.20735545006E+00  0.21638066918E+02 -0.43135712283E+01  0.23635148886E+02  0.84713888979E+01 0.  0.
         22    1    3    3    0    0  0.20735545006E+00 -0.21638066918E+02  0.12155089854E+03  0.12346201794E+03  0.00000000000E+00 0.  1.
         22    1    4    4    0    0  0.76676543511E+00  0.10849547640E+02  0.20554219022E+01  0.11069117961E+02  0.00000000000E+00 0.  1.
         22    1    4    4    0    0 -0.97412088517E+00  0.10788519278E+02 -0.63689931305E+01  0.12566030925E+02  0.00000000000E+00 0.  1.
<mgrwt>
<rscale>  0 0.88842476E+02</rscale>
<asrwt>0</asrwt>
<pdfrwt beam="2">  1        3 0.22969108E-02 0.88842476E+02</pdfrwt>
<pdfrwt beam="1">  1       -3 0.20333422E-01 0.88842476E+02</pdfrwt>
<totfact> 0.33771367E+04</totfact>
</mgrwt>
</event>
<event>
 7    1  0.1247599E-009  0.9369587E+02  0.7818608E-02  0.1294141E+00
          3   -1    0    0  501    0  0.00000000000E+00  0.00000000000E+00  0.21953713010E+01  0.21976933701E+01  0.10100000000E+00 0.  1.
         -3   -1    0    0    0  501 -0.00000000000E+00 -0.00000000000E+00 -0.99917662273E+03  0.99917662783E+03  0.10100000000E+00 0. -1.
         23    2    1    2    0    0  0.00000000000E+00  0.00000000000E+00 -0.99698125143E+03  0.10013743212E+04  0.93695866864E+02 0.  0.
    9000005    2    3    3    0    0 -0.20540319808E+01 -0.35989571583E+02 -0.81660859214E+03  0.81743475360E+03  0.71074139510E+01 0.  0.
         22    1    3    3    0    0  0.20540319808E+01  0.35989571583E+02 -0.18037265929E+03  0.18393956760E+03  0.00000000000E+00 0.  1.
         22    1    4    4    0    0 -0.37520139545E+01 -0.25974134864E+02 -0.53552358923E+03  0.53616625026E+03  0.00000000000E+00 0.  1.
         22    1    4    4    0    0  0.16979819737E+01 -0.10015436719E+02 -0.28108500291E+03  0.28126850335E+03  0.00000000000E+00 0.  1.
<mgrwt>
<rscale>  0 0.93695867E+02</rscale>
<asrwt>0</asrwt>
<pdfrwt beam="1">  1        3 0.33792924E-03 0.93695867E+02</pdfrwt>
<pdfrwt beam="2">  1       -3 0.15371930E+00 0.93695867E+02</pdfrwt>
<totfact> 0.92680667E+03</totfact>
</mgrwt>
</event>
<event>
 7    1  0.1247599E-009  0.9074751E+02  0.7818608E-02  0.1301052E+00
         -3   -1    0    0    0  501 -0.00000000000E+00  0.00000000000E+00  0.71654021802E+02  0.71654092984E+02  0.10100000000E+00 0.  1.
          3   -1    0    0  501    0  0.00000000000E+00 -0.00000000000E+00 -0.28732024450E+02  0.28732201969E+02  0.10100000000E+00 0. -1.
         23    2    1    2    0    0  0.00000000000E+00  0.00000000000E+00  0.42921997351E+02  0.10038629495E+03  0.90747508824E+02 0.  0.
    9000005    2    3    3    0    0 -0.14926589515E+02  0.37404255893E+02  0.44002430954E+02  0.60099215508E+02  0.73362348242E+01 0.  0.
         22    1    3    3    0    0  0.14926589515E+02 -0.37404255893E+02 -0.10804336021E+01  0.40287079445E+02  0.00000000000E+00 0. -1.
         22    1    4    4    0    0 -0.20036164918E+00  0.44235587749E+01  0.77431508479E+01  0.89198880082E+01  0.00000000000E+00 0.  1.
         22    1    4    4    0    0 -0.14726227866E+02  0.32980697118E+02  0.36259280106E+02  0.51179327500E+02  0.00000000000E+00 0.  1.
<mgrwt>
<rscale>  0 0.90747509E+02</rscale>
<asrwt>0</asrwt>
<pdfrwt beam="2">  1        3 0.44203307E-02 0.90747509E+02</pdfrwt>
<pdfrwt beam="1">  1       -3 0.11023715E-01 0.90747509E+02</pdfrwt>
<totfact> 0.35091361E+04</totfact>
</mgrwt>
</event>
<event>
 7    1  0.1247599E-009  0.8916862E+02  0.7818608E-02  0.1304878E+00
          3   -1    0    0  501    0  0.00000000000E+00  0.00000000000E+00  0.13200119979E+02  0.13200506372E+02  0.10100000000E+00 0. -1.
         -3   -1    0    0    0  501 -0.00000000000E+00 -0.00000000000E+00 -0.15058396290E+03  0.15058399678E+03  0.10100000000E+00 0.  1.
         23    2    1    2    0    0  0.00000000000E+00  0.00000000000E+00 -0.13738384293E+03  0.16378450315E+03  0.89168622141E+02 0.  0.
    9000005    2    3    3    0    0  0.22947224703E+02 -0.35389285265E+02 -0.91316176810E+02  0.10132486422E+03  0.12210951216E+02 0.  0.
         22    1    3    3    0    0 -0.22947224703E+02  0.35389285265E+02 -0.46067666115E+02  0.62459638924E+02  0.00000000000E+00 0.  1.
         22    1    4    4    0    0 -0.17653551745E+00 -0.29810248130E+01 -0.21661435908E+01  0.36891532606E+01  0.00000000000E+00 0. -1.
         22    1    4    4    0    0  0.23123760221E+02 -0.32408260453E+02 -0.89150033219E+02  0.97635710963E+02  0.00000000000E+00 0. -1.
<mgrwt>
<rscale>  0 0.89168622E+02</rscale>
<asrwt>0</asrwt>
<pdfrwt beam="1">  1        3 0.20308201E-02 0.89168622E+02</pdfrwt>
<pdfrwt beam="2">  1       -3 0.23166795E-01 0.89168622E+02</pdfrwt>
<totfact> 0.32372969E+04</totfact>
</mgrwt>
</event>
<event>
 7    1  0.1247599E-009  0.8884762E+02  0.7818608E-02  0.1305667E+00
          3   -1    0    0  501    0  0.00000000000E+00  0.00000000000E+00  0.39025324961E+02  0.39025455658E+02  0.10100000000E+00 0. -1.
         -3   -1    0    0    0  501 -0.00000000000E+00 -0.00000000000E+00 -0.50568815346E+02  0.50568916209E+02  0.10100000000E+00 0.  1.
         23    2    1    2    0    0  0.00000000000E+00  0.00000000000E+00 -0.11543490385E+02  0.89594371866E+02  0.88847618425E+02 0.  0.
    9000005    2    3    3    0    0  0.24789056788E+02 -0.36255368054E+02 -0.11632852945E+02  0.45674478483E+02  0.46782120358E+01 0.  0.
         22    1    3    3    0    0 -0.24789056788E+02  0.36255368054E+02  0.89362559206E-01  0.43919893384E+02  0.00000000000E+00 0. -1.
         22    1    4    4    0    0  0.13887980506E+01 -0.45852965826E+01 -0.12787024053E+01  0.49587079585E+01  0.00000000000E+00 0. -1.
         22    1    4    4    0    0  0.23400258737E+02 -0.31670071471E+02 -0.10354150539E+02  0.40715770524E+02  0.00000000000E+00 0. -1.
<mgrwt>
<rscale>  0 0.88847618E+02</rscale>
<asrwt>0</asrwt>
<pdfrwt beam="1">  1        3 0.60039139E-02 0.88847618E+02</pdfrwt>
<pdfrwt beam="2">  1       -3 0.77798356E-02 0.88847618E+02</pdfrwt>
<totfact> 0.38044505E+04</totfact>
</mgrwt>
</event>
<event>
 7    1  0.1247599E-009  0.9261530E+02  0.7818608E-02  0.1296639E+00
         -3   -1    0    0    0  501 -0.00000000000E+00  0.00000000000E+00  0.10081547767E+02  0.10082053678E+02  0.10100000000E+00 0.  1.
          3   -1    0    0  501    0  0.00000000000E+00 -0.00000000000E+00 -0.21269944835E+03  0.21269947233E+03  0.10100000000E+00 0. -1.
         23    2    1    2    0    0  0.00000000000E+00  0.00000000000E+00 -0.20261790058E+03  0.22278152601E+03  0.92615304857E+02 0.  0.
    9000005    2    3    3    0    0  0.44026730968E+02  0.36920575258E+01 -0.68903344209E+02  0.81956929737E+02  0.41573020523E+01 0.  0.
         22    1    3    3    0    0 -0.44026730968E+02 -0.36920575258E+01 -0.13371455637E+03  0.14082459627E+03  0.00000000000E+00 0. -1.
         22    1    4    4    0    0  0.17379366945E+02  0.25899950071E+01 -0.30535250534E+02  0.35229987152E+02  0.00000000000E+00 0.  1.
         22    1    4    4    0    0  0.26647364023E+02  0.11020625188E+01 -0.38368093674E+02  0.46726942585E+02  0.00000000000E+00 0.  1.
<mgrwt>
<rscale>  0 0.92615305E+02</rscale>
<asrwt>0</asrwt>
<pdfrwt beam="2">  1        3 0.32723030E-01 0.92615305E+02</pdfrwt>
<pdfrwt beam="1">  1       -3 0.15510483E-02 0.92615305E+02</pdfrwt>
<totfact> 0.26229557E+04</totfact>
</mgrwt>
</event>
<event>
 7    1  0.1247599E-009  0.9246642E+02  0.7818608E-02  0.1296986E+00
          3   -1    0    0  501    0  0.00000000000E+00  0.00000000000E+00  0.72133378384E+02  0.72133449093E+02  0.10100000000E+00 0. -1.
         -3   -1    0    0    0  501 -0.00000000000E+00 -0.00000000000E+00 -0.29632568001E+02  0.29632740125E+02  0.10100000000E+00 0.  1.
         23    2    1    2    0    0  0.00000000000E+00  0.00000000000E+00  0.42500810383E+02  0.10176618922E+03  0.92466417605E+02 0.  0.
    9000005    2    3    3    0    0 -0.19241227536E+02  0.40585910541E+02  0.16398309358E+02  0.49816391034E+02  0.13975954147E+02 0.  0.
         22    1    3    3    0    0  0.19241227536E+02 -0.40585910541E+02  0.26102501025E+02  0.51949798183E+02  0.00000000000E+00 0. -1.
         22    1    4    4    0    0 -0.92268178179E+01  0.65386112453E+01  0.18425707795E+01  0.11457865034E+02  0.00000000000E+00 0.  1.
         22    1    4    4    0    0 -0.10014409718E+02  0.34047299296E+02  0.14555738578E+02  0.38358526000E+02  0.00000000000E+00 0.  1.
<mgrwt>
<rscale>  0 0.92466418E+02</rscale>
<asrwt>0</asrwt>
<pdfrwt beam="1">  1        3 0.11097461E-01 0.92466418E+02</pdfrwt>
<pdfrwt beam="2">  1       -3 0.45588753E-02 0.92466418E+02</pdfrwt>
<totfact> 0.33242207E+04</totfact>
</mgrwt>
</event>
<event>
 7    1  0.1247599E-009  0.9178521E+02  0.7818608E-02  0.1298585E+00
         -3   -1    0    0    0  501 -0.00000000000E+00  0.00000000000E+00  0.48545049785E+03  0.48545050835E+03  0.10100000000E+00 0.  1.
          3   -1    0    0  501    0  0.00000000000E+00 -0.00000000000E+00 -0.43379105582E+01  0.43390861953E+01  0.10100000000E+00 0. -1.
         23    2    1    2    0    0  0.71054273576E-14 -0.88817841970E-15  0.48111258729E+03  0.48978959455E+03  0.91785212757E+02 0.  0.
    9000005    2    3    3    0    0  0.35002158526E+02 -0.79393094997E+01  0.38987523145E+03  0.39174654871E+03  0.13209034478E+02 0.  0.
         22    1    3    3    0    0 -0.35002158526E+02  0.79393094997E+01  0.91237355844E+02  0.98043045844E+02  0.00000000000E+00 0. -1.
         22    1    4    4    0    0  0.30703208949E+02 -0.20775677377E+01  0.29824120426E+03  0.29982464749E+03  0.00000000000E+00 0.  1.
         22    1    4    4    0    0  0.42989495779E+01 -0.58617417620E+01  0.91634027188E+02  0.91921901213E+02  0.00000000000E+00 0.  1.
<mgrwt>
<rscale>  0 0.91785213E+02</rscale>
<asrwt>0</asrwt>
<pdfrwt beam="2">  1        3 0.66746183E-03 0.91785213E+02</pdfrwt>
<pdfrwt beam="1">  1       -3 0.74684813E-01 0.91785213E+02</pdfrwt>
<totfact> 0.17821894E+04</totfact>
</mgrwt>
</event>
<event>
 7    1  0.1247599E-009  0.9269573E+02  0.7818608E-02  0.1296452E+00
          3   -1    0    0  501    0  0.00000000000E+00  0.00000000000E+00  0.60815997310E+01  0.60824383505E+01  0.10100000000E+00 0. -1.
         -3   -1    0    0    0  501 -0.00000000000E+00 -0.00000000000E+00 -0.35319180326E+03  0.35319181770E+03  0.10100000000E+00 0.  1.
         23    2    1    2    0    0  0.00000000000E+00  0.44408920985E-15 -0.34711020353E+03  0.35927425605E+03  0.92695726264E+02 0.  0.
    9000005    2    3    3    0    0 -0.34531115116E+02 -0.37252287032E+01 -0.29031693309E+03  0.29270285974E+03  0.13592910633E+02 0.  0.
         22    1    3    3    0    0  0.34531115116E+02  0.37252287032E+01 -0.56793270438E+02  0.66571396313E+02  0.00000000000E+00 0. -1.
         22    1    4    4    0    0 -0.39293313598E+01 -0.24151367610E+01 -0.83800536383E+02  0.83927364004E+02  0.00000000000E+00 0. -1.
         22    1    4    4    0    0 -0.30601783757E+02 -0.13100919422E+01 -0.20651639671E+03  0.20877549574E+03  0.00000000000E+00 0. -1.
<mgrwt>
<rscale>  0 0.92695726E+02</rscale>
<asrwt>0</asrwt>
<pdfrwt beam="1">  1        3 0.93569662E-03 0.92695726E+02</pdfrwt>
<pdfrwt beam="2">  1       -3 0.54337250E-01 0.92695726E+02</pdfrwt>
<totfact> 0.20943865E+04</totfact>
</mgrwt>
</event>
<event>
 7    1  0.1247599E-009  0.9084864E+02  0.7818608E-02  0.1300810E+00
          3   -1    0    0  501    0  0.00000000000E+00  0.00000000000E+00  0.99281824286E+01  0.99286961549E+01  0.10100000000E+00 0. -1.
         -3   -1    0    0    0  501 -0.00000000000E+00 -0.00000000000E+00 -0.20782357985E+03  0.20782360440E+03  0.10100000000E+00 0.  1.
         23    2    1    2    0    0  0.71054273576E-14  0.00000000000E+00 -0.19789539742E+03  0.21775230055E+03  0.90848643761E+02 0.  0.
    9000005    2    3    3    0    0  0.44025994355E+02  0.10395385982E+02 -0.10446003098E+03  0.11394228209E+03  0.49591681349E+01 0.  0.
         22    1    3    3    0    0 -0.44025994355E+02 -0.10395385982E+02 -0.93435366450E+02  0.10381001846E+03  0.00000000000E+00 0.  1.
         22    1    4    4    0    0  0.38059240499E+02  0.10464273889E+02 -0.88504837178E+02  0.96907755207E+02  0.00000000000E+00 0.  1.
         22    1    4    4    0    0  0.59667538562E+01 -0.68887907485E-01 -0.15955193797E+02  0.17034526886E+02  0.00000000000E+00 0.  1.
<mgrwt>
<rscale>  0 0.90848644E+02</rscale>
<asrwt>0</asrwt>
<pdfrwt beam="1">  1        3 0.15274542E-02 0.90848644E+02</pdfrwt>
<pdfrwt beam="2">  1       -3 0.31972897E-01 0.90848644E+02</pdfrwt>
<totfact> 0.27873285E+04</totfact>
</mgrwt>
</event>
<event>
 7    1  0.1247599E-009  0.9174940E+02  0.7818608E-02  0.1298670E+00
          3   -1    0    0  501    0  0.00000000000E+00  0.00000000000E+00  0.47201178614E+02  0.47201286672E+02  0.10100000000E+00 0. -1.
         -3   -1    0    0    0  501 -0.00000000000E+00 -0.00000000000E+00 -0.44585281132E+02  0.44585395531E+02  0.10100000000E+00 0.  1.
         23    2    1    2    0    0  0.00000000000E+00 -0.35527136788E-14  0.26158974815E+01  0.91786682203E+02  0.91749398419E+02 0.  0.
    9000005    2    3    3    0    0  0.19772781269E+02  0.30897570262E+02  0.27470950349E+02  0.47476453359E+02  0.12399104131E+02 0.  0.
         22    1    3    3    0    0 -0.19772781269E+02 -0.30897570262E+02 -0.24855052868E+02  0.44310228844E+02  0.00000000000E+00 0.  1.
         22    1    4    4    0    0  0.68862069176E+01  0.29708648634E+01  0.85183813110E+01  0.11349392226E+02  0.00000000000E+00 0.  1.
         22    1    4    4    0    0  0.12886574351E+02  0.27926705398E+02  0.18952569038E+02  0.36127061132E+02  0.00000000000E+00 0.  1.
<mgrwt>
<rscale>  0 0.91749398E+02</rscale>
<asrwt>0</asrwt>
<pdfrwt beam="1">  1        3 0.72617369E-02 0.91749398E+02</pdfrwt>
<pdfrwt beam="2">  1       -3 0.68592911E-02 0.91749398E+02</pdfrwt>
<totfact> 0.34693588E+04</totfact>
</mgrwt>
</event>
<event>
 7    1  0.1247599E-009  0.8812924E+02  0.7818608E-02  0.1307446E+00
          3   -1    0    0  501    0  0.00000000000E+00  0.00000000000E+00  0.33063551781E+01  0.33078974537E+01  0.10100000000E+00 0. -1.
         -3   -1    0    0    0  501 -0.00000000000E+00 -0.00000000000E+00 -0.58712170817E+03  0.58712171686E+03  0.10100000000E+00 0.  1.
         23    2    1    2    0    0  0.00000000000E+00  0.00000000000E+00 -0.58381535299E+03  0.59042961431E+03  0.88129240700E+02 0.  0.
    9000005    2    3    3    0    0 -0.17808089364E+02  0.86471086081E+01 -0.55558423750E+03  0.55594923705E+03  0.37160040500E+01 0.  0.
         22    1    3    3    0    0  0.17808089364E+02 -0.86471086081E+01 -0.28231115496E+02  0.34480377263E+02  0.00000000000E+00 0. -1.
         22    1    4    4    0    0 -0.14834148529E+02  0.62219424489E+01 -0.41246092067E+03  0.41277448517E+03  0.00000000000E+00 0. -1.
         22    1    4    4    0    0 -0.29739408344E+01  0.24251661592E+01 -0.14312331683E+03  0.14317475188E+03  0.00000000000E+00 0. -1.
<mgrwt>
<rscale>  0 0.88129241E+02</rscale>
<asrwt>0</asrwt>
<pdfrwt beam="1">  1        3 0.50878980E-03 0.88129241E+02</pdfrwt>
<pdfrwt beam="2">  1       -3 0.90326453E-01 0.88129241E+02</pdfrwt>
<totfact> 0.17393630E+04</totfact>
</mgrwt>
</event>
<event>
 7    1  0.1606755E-009  0.9238214E+02  0.7818608E-02  0.1297183E+00
          3   -1    0    0  501    0  0.00000000000E+00  0.00000000000E+00  0.24556876365E+02  0.24557084065E+02  0.10100000000E+00 0. -1.
         -3   -1    0    0    0  501 -0.00000000000E+00 -0.00000000000E+00 -0.86884013363E+02  0.86884072067E+02  0.10100000000E+00 0.  1.
         23    2    1    2    0    0  0.00000000000E+00  0.35527136788E-14 -0.62327136998E+02  0.11144115613E+03  0.92382137201E+02 0.  0.
    9000005    2    3    3    0    0 -0.16270399480E+02 -0.27677452856E+02  0.60950511445E+01  0.35860979327E+02  0.14767968512E+02 0.  0.
         22    1    3    3    0    0  0.16270399480E+02  0.27677452856E+02 -0.68422188142E+02  0.75580176806E+02  0.00000000000E+00 0.  1.
         22    1    4    4    0    0 -0.46819327720E+01 -0.28547824047E+01 -0.38684979799E+01  0.67108534241E+01  0.00000000000E+00 0.  1.
         22    1    4    4    0    0 -0.11588466708E+02 -0.24822670452E+02  0.99635491244E+01  0.29150125903E+02  0.00000000000E+00 0.  1.
<mgrwt>
<rscale>  0 0.92382137E+02</rscale>
<asrwt>0</asrwt>
<pdfrwt beam="1">  1        3 0.37780015E-02 0.92382137E+02</pdfrwt>
<pdfrwt beam="2">  1       -3 0.13366792E-01 0.92382137E+02</pdfrwt>
<totfact> 0.32654402E+04</totfact>
</mgrwt>
</event>
<event>
 7    1  0.1247599E-009  0.9230117E+02  0.7818608E-02  0.1297373E+00
         -3   -1    0    0    0  501 -0.00000000000E+00  0.00000000000E+00  0.12786001793E+03  0.12786005782E+03  0.10100000000E+00 0.  1.
          3   -1    0    0  501    0  0.00000000000E+00 -0.00000000000E+00 -0.16657681851E+02  0.16657988044E+02  0.10100000000E+00 0. -1.
         23    2    1    2    0    0  0.71054273576E-14 -0.55511151231E-16  0.11120233608E+03  0.14451804587E+03  0.92301170260E+02 0.  0.
    9000005    2    3    3    0    0  0.44416720029E+02  0.49234766240E+00  0.46757109153E+02  0.66247523331E+02  0.15146605782E+02 0.  0.
         22    1    3    3    0    0 -0.44416720029E+02 -0.49234766240E+00  0.64445226928E+02  0.78270522537E+02  0.00000000000E+00 0. -1.
         22    1    4    4    0    0  0.41979694611E+02  0.38173891781E+01  0.45291261963E+02  0.61872171693E+02  0.00000000000E+00 0. -1.
         22    1    4    4    0    0  0.24370254179E+01 -0.33250415157E+01  0.14658471903E+01  0.43753516377E+01  0.00000000000E+00 0. -1.
<mgrwt>
<rscale>  0 0.92301170E+02</rscale>
<asrwt>0</asrwt>
<pdfrwt beam="2">  1        3 0.25627469E-02 0.92301170E+02</pdfrwt>
<pdfrwt beam="1">  1       -3 0.19670799E-01 0.92301170E+02</pdfrwt>
<totfact> 0.30611134E+04</totfact>
</mgrwt>
</event>
<event>
 7    1  0.1247599E-009  0.9302499E+02  0.7818608E-02  0.1295687E+00
         -3   -1    0    0    0  501 -0.00000000000E+00  0.00000000000E+00  0.24541342788E+03  0.24541344866E+03  0.10100000000E+00 0.  1.
          3   -1    0    0  501    0  0.00000000000E+00 -0.00000000000E+00 -0.88150684792E+01  0.88156470717E+01  0.10100000000E+00 0. -1.
         23    2    1    2    0    0  0.00000000000E+00  0.00000000000E+00  0.23659835940E+03  0.25422909573E+03  0.93024993668E+02 0.  0.
    9000005    2    3    3    0    0  0.33381036372E+02 -0.29421480440E+02  0.14931752599E+03  0.15626042227E+03  0.11902894530E+02 0.  0.
         22    1    3    3    0    0 -0.33381036372E+02  0.29421480440E+02  0.87280833408E+02  0.97968673467E+02  0.00000000000E+00 0.  1.
         22    1    4    4    0    0  0.50086999229E+00 -0.44959165476E+01  0.10310522594E+02  0.11259263409E+02  0.00000000000E+00 0. -1.
         22    1    4    4    0    0  0.32880166379E+02 -0.24925563892E+02  0.13900700340E+03  0.14500115886E+03  0.00000000000E+00 0. -1.
<mgrwt>
<rscale>  0 0.93024994E+02</rscale>
<asrwt>0</asrwt>
<pdfrwt beam="2">  1        3 0.13562106E-02 0.93024994E+02</pdfrwt>
<pdfrwt beam="1">  1       -3 0.37755954E-01 0.93024994E+02</pdfrwt>
<totfact> 0.24547754E+04</totfact>
</mgrwt>
</event>
<event>
 7    1  0.1247599E-009  0.9162287E+02  0.7818608E-02  0.1298969E+00
          3   -1    0    0  501    0  0.00000000000E+00  0.00000000000E+00  0.59350880301E+01  0.59359473486E+01  0.10100000000E+00 0. -1.
         -3   -1    0    0    0  501 -0.00000000000E+00 -0.00000000000E+00 -0.35358036872E+03  0.35358038315E+03  0.10100000000E+00 0.  1.
         23    2    1    2    0    0  0.00000000000E+00 -0.35527136788E-14 -0.34764528069E+03  0.35951633050E+03  0.91622872177E+02 0.  0.
    9000005    2    3    3    0    0 -0.11687061283E+01  0.24144085052E+02 -0.32554767538E+03  0.32676565299E+03  0.14498286329E+02 0.  0.
         22    1    3    3    0    0  0.11687061283E+01 -0.24144085052E+02 -0.22097605309E+02  0.32750677510E+02  0.00000000000E+00 0. -1.
         22    1    4    4    0    0 -0.28756735047E+01  0.13386254952E+02 -0.25640212864E+03  0.25676742958E+03  0.00000000000E+00 0. -1.
         22    1    4    4    0    0  0.17069673764E+01  0.10757830100E+02 -0.69145546741E+02  0.69998223408E+02  0.00000000000E+00 0. -1.
<mgrwt>
<rscale>  0 0.91622872E+02</rscale>
<asrwt>0</asrwt>
<pdfrwt beam="1">  1        3 0.91315795E-03 0.91622872E+02</pdfrwt>
<pdfrwt beam="2">  1       -3 0.54397031E-01 0.91622872E+02</pdfrwt>
<totfact> 0.21600765E+04</totfact>
</mgrwt>
</event>
<event>
 7    1  0.1247599E-009  0.1108276E+03  0.7818608E-02  0.1259045E+00
          3   -1    0    0  501    0  0.00000000000E+00  0.00000000000E+00  0.74059440716E+02  0.74059509586E+02  0.10100000000E+00 0. -1.
         -3   -1    0    0    0  501 -0.00000000000E+00 -0.00000000000E+00 -0.41462311865E+02  0.41462434880E+02  0.10100000000E+00 0.  1.
         23    2    1    2    0    0  0.00000000000E+00  0.00000000000E+00  0.32597128852E+02  0.11552194447E+03  0.11082755453E+03 0.  0.
    9000005    2    3    3    0    0 -0.20557682590E+02 -0.46024645978E+02  0.39550992941E+02  0.64637343882E+02  0.85333950251E+01 0.  0.
         22    1    3    3    0    0  0.20557682590E+02  0.46024645978E+02 -0.69538640897E+01  0.50884600584E+02  0.00000000000E+00 0. -1.
         22    1    4    4    0    0 -0.16605462079E+02 -0.28766204936E+02  0.28500722586E+02  0.43766735144E+02  0.00000000000E+00 0.  1.
         22    1    4    4    0    0 -0.39522205108E+01 -0.17258441042E+02  0.11050270355E+02  0.20870608738E+02  0.00000000000E+00 0.  1.
<mgrwt>
<rscale>  0 0.11082755E+03</rscale>
<asrwt>0</asrwt>
<pdfrwt beam="1">  1        3 0.11393775E-01 0.11082755E+03</pdfrwt>
<pdfrwt beam="2">  1       -3 0.63788320E-02 0.11082755E+03</pdfrwt>
<totfact> 0.19616129E+04</totfact>
</mgrwt>
</event>
<event>
 7    1  0.1247599E-009  0.9615297E+02  0.7818608E-02  0.1288600E+00
         -3   -1    0    0    0  501 -0.00000000000E+00  0.00000000000E+00  0.14141663483E+03  0.14141667090E+03  0.10100000000E+00 0.  1.
          3   -1    0    0  501    0  0.00000000000E+00 -0.00000000000E+00 -0.16344051915E+02  0.16344363983E+02  0.10100000000E+00 0. -1.
         23    2    1    2    0    0  0.00000000000E+00  0.00000000000E+00  0.12507258292E+03  0.15776103488E+03  0.96152967345E+02 0.  0.
    9000005    2    3    3    0    0  0.16386036883E+02  0.40915590135E+02  0.92473641025E+02  0.10294061229E+03  0.10139410886E+02 0.  0.
         22    1    3    3    0    0 -0.16386036883E+02 -0.40915590135E+02  0.32598941892E+02  0.54820422593E+02  0.00000000000E+00 0.  1.
         22    1    4    4    0    0  0.48700230420E+00  0.96245634674E+01  0.26737311768E+02  0.28420999873E+02  0.00000000000E+00 0. -1.
         22    1    4    4    0    0  0.15899034579E+02  0.31291026667E+02  0.65736329256E+02  0.74519612415E+02  0.00000000000E+00 0. -1.
<mgrwt>
<rscale>  0 0.96152967E+02</rscale>
<asrwt>0</asrwt>
<pdfrwt beam="2">  1        3 0.25144962E-02 0.96152967E+02</pdfrwt>
<pdfrwt beam="1">  1       -3 0.21756433E-01 0.96152967E+02</pdfrwt>
<totfact> 0.26691449E+04</totfact>
</mgrwt>
</event>
<event>
 7    1  0.1247599E-009  0.8961910E+02  0.7818608E-02  0.1303777E+00
         -3   -1    0    0    0  501 -0.00000000000E+00  0.00000000000E+00  0.49043570935E+02  0.49043674934E+02  0.10100000000E+00 0.  1.
          3   -1    0    0  501    0  0.00000000000E+00 -0.00000000000E+00 -0.40940851362E+02  0.40940975944E+02  0.10100000000E+00 0. -1.
         23    2    1    2    0    0  0.00000000000E+00  0.71054273576E-14  0.81027195728E+01  0.89984650878E+02  0.89619101363E+02 0.  0.
    9000005    2    3    3    0    0 -0.14055264452E+01 -0.40375585825E+02 -0.12006566892E+02  0.44856535058E+02  0.15355378655E+02 0.  0.
         22    1    3    3    0    0  0.14055264452E+01  0.40375585825E+02  0.20109286465E+02  0.45128115819E+02  0.00000000000E+00 0. -1.
         22    1    4    4    0    0 -0.42952160391E+01 -0.22479599886E+01 -0.25559109372E+00  0.48546402277E+01  0.00000000000E+00 0.  1.
         22    1    4    4    0    0  0.28896895939E+01 -0.38127625836E+02 -0.11750975798E+02  0.40001894831E+02  0.00000000000E+00 0.  1.
<mgrwt>
<rscale>  0 0.89619101E+02</rscale>
<asrwt>0</asrwt>
<pdfrwt beam="2">  1        3 0.62986101E-02 0.89619101E+02</pdfrwt>
<pdfrwt beam="1">  1       -3 0.75451823E-02 0.89619101E+02</pdfrwt>
<totfact> 0.37130384E+04</totfact>
</mgrwt>
</event>
<event>
 7    1  0.1247599E-009  0.9065120E+02  0.7818608E-02  0.1301282E+00
         -3   -1    0    0    0  501 -0.00000000000E+00  0.00000000000E+00  0.32743473147E+03  0.32743474704E+03  0.10100000000E+00 0.  1.
          3   -1    0    0  501    0  0.00000000000E+00 -0.00000000000E+00 -0.62738361469E+01  0.62746490737E+01  0.10100000000E+00 0. -1.
         23    2    1    2    0    0  0.00000000000E+00 -0.17763568394E-14  0.32116089532E+03  0.33370939612E+03  0.90651201727E+02 0.  0.
    9000005    2    3    3    0    0  0.42905710976E+02  0.14291968387E+02  0.16208839196E+03  0.16833339508E+03  0.42807354079E+01 0.  0.
         22    1    3    3    0    0 -0.42905710976E+02 -0.14291968387E+02  0.15907250336E+03  0.16537600104E+03  0.00000000000E+00 0.  1.
         22    1    4    4    0    0  0.20297259829E+02  0.51708807767E+01  0.80526161849E+02  0.83205645883E+02  0.00000000000E+00 0.  1.
         22    1    4    4    0    0  0.22608451146E+02  0.91210876099E+01  0.81562230108E+02  0.85127749193E+02  0.00000000000E+00 0.  1.
<mgrwt>
<rscale>  0 0.90651202E+02</rscale>
<asrwt>0</asrwt>
<pdfrwt beam="2">  1        3 0.96526936E-03 0.90651202E+02</pdfrwt>
<pdfrwt beam="1">  1       -3 0.50374634E-01 0.90651202E+02</pdfrwt>
<totfact> 0.23128349E+04</totfact>
</mgrwt>
</event>
<event>
 7    1  0.1247599E-009  0.9115112E+02  0.7818608E-02  0.1300088E+00
          3   -1    0    0  501    0  0.00000000000E+00  0.00000000000E+00  0.74737446884E+01  0.74744271130E+01  0.10100000000E+00 0. -1.
         -3   -1    0    0    0  501 -0.00000000000E+00 -0.00000000000E+00 -0.27791041092E+03  0.27791042927E+03  0.10100000000E+00 0.  1.
         23    2    1    2    0    0  0.00000000000E+00 -0.71054273576E-14 -0.27043666623E+03  0.28538485638E+03  0.91151115253E+02 0.  0.
    9000005    2    3    3    0    0 -0.24580747318E+02 -0.36242291007E+02 -0.10376914057E+03  0.11306021826E+03  0.98418301916E+01 0.  0.
         22    1    3    3    0    0  0.24580747318E+02  0.36242291007E+02 -0.16666752565E+03  0.17232463812E+03  0.00000000000E+00 0.  1.
         22    1    4    4    0    0 -0.88241155390E+01 -0.17681985849E+02 -0.36264775084E+02  0.41299534507E+02  0.00000000000E+00 0. -1.
         22    1    4    4    0    0 -0.15756631779E+02 -0.18560305159E+02 -0.67504365490E+02  0.71760683754E+02  0.00000000000E+00 0. -1.
<mgrwt>
<rscale>  0 0.91151115E+02</rscale>
<asrwt>0</asrwt>
<pdfrwt beam="1">  1        3 0.11498610E-02 0.91151115E+02</pdfrwt>
<pdfrwt beam="2">  1       -3 0.42755494E-01 0.91151115E+02</pdfrwt>
<totfact> 0.24619857E+04</totfact>
</mgrwt>
</event>
<event>
 7    1  0.1247599E-009  0.9153517E+02  0.7818608E-02  0.1299176E+00
         -3   -1    0    0    0  501 -0.00000000000E+00  0.00000000000E+00  0.31286682272E+03  0.31286683903E+03  0.10100000000E+00 0.  1.
          3   -1    0    0  501    0  0.00000000000E+00 -0.00000000000E+00 -0.66946938488E+01  0.66954556775E+01  0.10100000000E+00 0. -1.
         23    2    1    2    0    0 -0.71054273576E-14  0.17763568394E-14  0.30617212888E+03  0.31956229470E+03  0.91535171910E+02 0.  0.
    9000005    2    3    3    0    0  0.42836711440E+02 -0.93730071239E+01  0.18908161563E+03  0.19453019722E+03  0.12934571937E+02 0.  0.
         22    1    3    3    0    0 -0.42836711440E+02  0.93730071239E+01  0.11709051324E+03  0.12503209748E+03  0.00000000000E+00 0. -1.
         22    1    4    4    0    0  0.76219834499E+01  0.24664975550E+00  0.56589769087E+02  0.57101290994E+02  0.00000000000E+00 0. -1.
         22    1    4    4    0    0  0.35214727990E+02 -0.96196568794E+01  0.13249184655E+03  0.13742890623E+03  0.00000000000E+00 0. -1.
<mgrwt>
<rscale>  0 0.91535172E+02</rscale>
<asrwt>0</asrwt>
<pdfrwt beam="2">  1        3 0.10300130E-02 0.91535172E+02</pdfrwt>
<pdfrwt beam="1">  1       -3 0.48133408E-01 0.91535172E+02</pdfrwt>
<totfact> 0.23040500E+04</totfact>
</mgrwt>
</event>
<event>
 7    1  0.1285808E-009  0.9266394E+02  0.7818608E-02  0.1296526E+00
          3   -1    0    0  501    0  0.00000000000E+00  0.00000000000E+00  0.70708544899E+03  0.70708545621E+03  0.10100000000E+00 0. -1.
         -3   -1    0    0    0  501 -0.00000000000E+00 -0.00000000000E+00 -0.30350681052E+01  0.30367481626E+01  0.10100000000E+00 0.  1.
         23    2    1    2    0    0  0.00000000000E+00  0.00000000000E+00  0.70405038089E+03  0.71012220437E+03  0.92663942878E+02 0.  0.
    9000005    2    3    3    0    0  0.55574953776E+01 -0.38617371152E+02  0.53724068011E+03  0.53881060703E+03  0.12928061432E+02 0.  0.
         22    1    3    3    0    0 -0.55574953776E+01  0.38617371152E+02  0.16680970078E+03  0.17131159734E+03  0.00000000000E+00 0.  1.
         22    1    4    4    0    0 -0.17349351235E+01 -0.16290853009E+02  0.15912263325E+03  0.15996379060E+03  0.00000000000E+00 0.  1.
         22    1    4    4    0    0  0.72924305011E+01 -0.22326518144E+02  0.37811804686E+03  0.37884681642E+03  0.00000000000E+00 0.  1.
<mgrwt>
<rscale>  0 0.92663943E+02</rscale>
<asrwt>0</asrwt>
<pdfrwt beam="1">  1        3 0.10878258E+00 0.92663943E+02</pdfrwt>
<pdfrwt beam="2">  1       -3 0.46706301E-03 0.92663943E+02</pdfrwt>
<totfact> 0.13173376E+04</totfact>
</mgrwt>
</event>
<event>
 7    1  0.1247599E-009  0.9064358E+02  0.7818608E-02  0.1301301E+00
          3   -1    0    0  501    0  0.00000000000E+00  0.00000000000E+00  0.15234527830E+03  0.15234531178E+03  0.10100000000E+00 0. -1.
         -3   -1    0    0    0  501 -0.00000000000E+00 -0.00000000000E+00 -0.13482732520E+02  0.13483110814E+02  0.10100000000E+00 0.  1.
         23    2    1    2    0    0  0.00000000000E+00  0.00000000000E+00  0.13886254578E+03  0.16582842259E+03  0.90643582892E+02 0.  0.
    9000005    2    3    3    0    0 -0.10201068572E+02 -0.18548839240E+02  0.14258894135E+03  0.14433406842E+03  0.72523013557E+01 0.  0.
         22    1    3    3    0    0  0.10201068572E+02  0.18548839240E+02 -0.37263955727E+01  0.21494354169E+02  0.00000000000E+00 0.  1.
         22    1    4    4    0    0 -0.83055369700E+01 -0.85083862256E+01  0.65437700886E+02  0.66509151835E+02  0.00000000000E+00 0.  1.
         22    1    4    4    0    0 -0.18955316024E+01 -0.10040453014E+02  0.77151240466E+02  0.77824916590E+02  0.00000000000E+00 0.  1.
<mgrwt>
<rscale>  0 0.90643583E+02</rscale>
<asrwt>0</asrwt>
<pdfrwt beam="1">  1        3 0.23437766E-01 0.90643583E+02</pdfrwt>
<pdfrwt beam="2">  1       -3 0.20742983E-02 0.90643583E+02</pdfrwt>
<totfact> 0.30850954E+04</totfact>
</mgrwt>
</event>
<event>
 7    1  0.1247599E-009  0.9135582E+02  0.7818608E-02  0.1299601E+00
          3   -1    0    0  501    0  0.00000000000E+00  0.00000000000E+00  0.56091231020E+02  0.56091321953E+02  0.10100000000E+00 0. -1.
         -3   -1    0    0    0  501 -0.00000000000E+00 -0.00000000000E+00 -0.37197627962E+02  0.37197765081E+02  0.10100000000E+00 0.  1.
         23    2    1    2    0    0  0.00000000000E+00  0.00000000000E+00  0.18893603059E+02  0.93289087033E+02  0.91355818222E+02 0.  0.
    9000005    2    3    3    0    0 -0.22782856286E+02  0.35490715274E+02  0.24387888372E+02  0.50758667539E+02  0.14248642739E+02 0.  0.
         22    1    3    3    0    0  0.22782856286E+02 -0.35490715274E+02 -0.54942853135E+01  0.42530419494E+02  0.00000000000E+00 0.  1.
         22    1    4    4    0    0 -0.20664761898E+02  0.25469743313E+02  0.23753760728E+02  0.40496683289E+02  0.00000000000E+00 0.  1.
         22    1    4    4    0    0 -0.21180943884E+01  0.10020971961E+02  0.63412764459E+00  0.10261984250E+02  0.00000000000E+00 0.  1.
<mgrwt>
<rscale>  0 0.91355818E+02</rscale>
<asrwt>0</asrwt>
<pdfrwt beam="1">  1        3 0.86294377E-02 0.91355818E+02</pdfrwt>
<pdfrwt beam="2">  1       -3 0.57227295E-02 0.91355818E+02</pdfrwt>
<totfact> 0.34989244E+04</totfact>
</mgrwt>
</event>
<event>
 7    1  0.1247599E-009  0.9159131E+02  0.7818608E-02  0.1299043E+00
         -3   -1    0    0    0  501 -0.00000000000E+00  0.00000000000E+00  0.70732876526E+01  0.70740087091E+01  0.10100000000E+00 0.  1.
          3   -1    0    0  501    0  0.00000000000E+00 -0.00000000000E+00 -0.29648591599E+03  0.29648593320E+03  0.10100000000E+00 0. -1.
         23    2    1    2    0    0  0.17763568394E-14  0.00000000000E+00 -0.28941262834E+03  0.30355994191E+03  0.91591314471E+02 0.  0.
    9000005    2    3    3    0    0 -0.11261595766E+02 -0.33542610888E+02 -0.23840180652E+03  0.24147907346E+03  0.14993041102E+02 0.  0.
         22    1    3    3    0    0  0.11261595766E+02  0.33542610888E+02 -0.51010821820E+02  0.62080868447E+02  0.00000000000E+00 0.  1.
         22    1    4    4    0    0 -0.43289077566E+01 -0.10065442809E+02 -0.36800256713E+02  0.38396763867E+02  0.00000000000E+00 0.  1.
         22    1    4    4    0    0 -0.69326880098E+01 -0.23477168079E+02 -0.20160154981E+03  0.20308230959E+03  0.00000000000E+00 0.  1.
<mgrwt>
<rscale>  0 0.91591314E+02</rscale>
<asrwt>0</asrwt>
<pdfrwt beam="2">  1        3 0.45613265E-01 0.91591314E+02</pdfrwt>
<pdfrwt beam="1">  1       -3 0.10882551E-02 0.91591314E+02</pdfrwt>
<totfact> 0.23604618E+04</totfact>
</mgrwt>
</event>
<event>
 6    1  0.1475518E-009  0.6020851E+03  0.7818608E-02  0.9901089E-01
          3   -1    0    0  501    0  0.00000000000E+00  0.00000000000E+00  0.75022644542E+03  0.75022645221E+03  0.10100000000E+00 0. -1.
         -3   -1    0    0    0  501 -0.00000000000E+00 -0.00000000000E+00 -0.12079900754E+03  0.12079904977E+03  0.10100000000E+00 0.  1.
    9000005    2    1    2    0    0 -0.26445186709E+03 -0.79818839901E+02  0.14235531310E+03  0.31107452918E+03  0.14017500607E+02 0.  0.
         22    1    1    2    0    0  0.26445186709E+03  0.79818839901E+02  0.48707212477E+03  0.55995097280E+03  0.00000000000E+00 0. -1.
         22    1    3    3    0    0 -0.10306516596E+03 -0.37382250727E+02  0.60171502939E+02  0.12506186817E+03  0.00000000000E+00 0.  1.
         22    1    3    3    0    0 -0.16138670113E+03 -0.42436589174E+02  0.82183810160E+02  0.18601266101E+03  0.00000000000E+00 0.  1.
<mgrwt>
<rscale>  0 0.60208515E+03</rscale>
<asrwt>0</asrwt>
<pdfrwt beam="1">  1        3 0.11541946E+00 0.60208515E+03</pdfrwt>
<pdfrwt beam="2">  1       -3 0.18584467E-01 0.60208515E+03</pdfrwt>
<totfact> 0.42946136E+01</totfact>
</mgrwt>
</event>
<event>
 7    1  0.1247599E-009  0.9138238E+02  0.7818608E-02  0.1299538E+00
          3   -1    0    0  501    0  0.00000000000E+00  0.00000000000E+00  0.51741926221E+02  0.51742024796E+02  0.10100000000E+00 0. -1.
         -3   -1    0    0    0  501 -0.00000000000E+00 -0.00000000000E+00 -0.40347833549E+02  0.40347959962E+02  0.10100000000E+00 0.  1.
         23    2    1    2    0    0  0.00000000000E+00  0.00000000000E+00  0.11394092672E+02  0.92089984758E+02  0.91382383121E+02 0.  0.
    9000005    2    3    3    0    0 -0.80340535582E+01 -0.37941331828E+02 -0.17190556688E+02  0.43911432928E+02  0.11340547829E+02 0.  0.
         22    1    3    3    0    0  0.80340535582E+01  0.37941331828E+02  0.28584649360E+02  0.48178551831E+02  0.00000000000E+00 0. -1.
         22    1    4    4    0    0 -0.31599581996E+00 -0.12422108659E+02 -0.45749885817E+00  0.12434546317E+02  0.00000000000E+00 0.  1.
         22    1    4    4    0    0 -0.77180577382E+01 -0.25519223169E+02 -0.16733057830E+02  0.31476886611E+02  0.00000000000E+00 0.  1.
<mgrwt>
<rscale>  0 0.91382383E+02</rscale>
<asrwt>0</asrwt>
<pdfrwt beam="1">  1        3 0.79603136E-02 0.91382383E+02</pdfrwt>
<pdfrwt beam="2">  1       -3 0.62073763E-02 0.91382383E+02</pdfrwt>
<totfact> 0.35052695E+04</totfact>
</mgrwt>
</event>
<event>
 7    1  0.1247599E-009  0.1040536E+03  0.7818608E-02  0.1271996E+00
         -3   -1    0    0    0  501 -0.00000000000E+00  0.00000000000E+00  0.27030888318E+01  0.27049750891E+01  0.10100000000E+00 0.  1.
          3   -1    0    0  501    0  0.00000000000E+00 -0.00000000000E+00 -0.10010167700E+04  0.10010167751E+04  0.10100000000E+00 0. -1.
         23    2    1    2    0    0  0.00000000000E+00  0.00000000000E+00 -0.99831368121E+03  0.10037217502E+04  0.10405357171E+03 0.  0.
    9000005    2    3    3    0    0  0.20350467888E+02 -0.28398545951E+02 -0.87066532484E+03  0.87137855304E+03  0.46750270548E+01 0.  0.
         22    1    3    3    0    0 -0.20350467888E+02  0.28398545951E+02 -0.12764835637E+03  0.13234319718E+03  0.00000000000E+00 0.  1.
         22    1    4    4    0    0  0.14556562721E+01 -0.85705786041E+00 -0.27381294857E+02  0.27433351808E+02  0.00000000000E+00 0.  1.
         22    1    4    4    0    0  0.18894811616E+02 -0.27541488090E+02 -0.84328402998E+03  0.84394520124E+03  0.00000000000E+00 0.  1.
<mgrwt>
<rscale>  0 0.10405357E+03</rscale>
<asrwt>0</asrwt>
<pdfrwt beam="2">  1        3 0.15400243E+00 0.10405357E+03</pdfrwt>
<pdfrwt beam="1">  1       -3 0.41600611E-03 0.10405357E+03</pdfrwt>
<totfact> 0.70088539E+03</totfact>
</mgrwt>
</event>
<event>
 7    1  0.1247599E-009  0.9136178E+02  0.7818608E-02  0.1299587E+00
         -3   -1    0    0    0  501 -0.00000000000E+00  0.00000000000E+00  0.49269277007E+01  0.49279628213E+01  0.10100000000E+00 0.  1.
          3   -1    0    0  501    0  0.00000000000E+00 -0.00000000000E+00 -0.42349298948E+03  0.42349300152E+03  0.10100000000E+00 0. -1.
         23    2    1    2    0    0  0.00000000000E+00  0.00000000000E+00 -0.41856606178E+03  0.42842096434E+03  0.91361778753E+02 0.  0.
    9000005    2    3    3    0    0  0.34706210812E+02  0.28272841036E+02 -0.23685938120E+03  0.24128146457E+03  0.10512091754E+02 0.  0.
         22    1    3    3    0    0 -0.34706210812E+02 -0.28272841036E+02 -0.18170668058E+03  0.18713949978E+03  0.00000000000E+00 0.  1.
         22    1    4    4    0    0  0.22018315792E+02  0.12057094884E+02 -0.11653435346E+03  0.11920753040E+03  0.00000000000E+00 0. -1.
         22    1    4    4    0    0  0.12687895021E+02  0.16215746152E+02 -0.12032502774E+03  0.12207393417E+03  0.00000000000E+00 0. -1.
<mgrwt>
<rscale>  0 0.91361779E+02</rscale>
<asrwt>0</asrwt>
<pdfrwt beam="2">  1        3 0.65152820E-01 0.91361779E+02</pdfrwt>
<pdfrwt beam="1">  1       -3 0.75806976E-03 0.91361779E+02</pdfrwt>
<totfact> 0.19677430E+04</totfact>
</mgrwt>
</event>
<event>
 7    1  0.1247599E-009  0.8923220E+02  0.7818608E-02  0.1304722E+00
          3   -1    0    0  501    0  0.00000000000E+00  0.00000000000E+00  0.33289331853E+03  0.33289333385E+03  0.10100000000E+00 0. -1.
         -3   -1    0    0    0  501 -0.00000000000E+00 -0.00000000000E+00 -0.59792411466E+01  0.59800941204E+01  0.10100000000E+00 0.  1.
         23    2    1    2    0    0  0.17763568394E-14  0.71054273576E-14  0.32691407739E+03  0.33887342797E+03  0.89232203795E+02 0.  0.
    9000005    2    3    3    0    0 -0.12405041164E+02 -0.42088689253E+02  0.17163687243E+03  0.17751558593E+03  0.11279382180E+02 0.  0.
         22    1    3    3    0    0  0.12405041164E+02  0.42088689253E+02  0.15527720496E+03  0.16135784204E+03  0.00000000000E+00 0. -1.
         22    1    4    4    0    0 -0.64286869390E+01 -0.36473373730E+02  0.13657412926E+03  0.14150663514E+03  0.00000000000E+00 0.  1.
         22    1    4    4    0    0 -0.59763542252E+01 -0.56153155230E+01  0.35062743170E+02  0.36008950788E+02  0.00000000000E+00 0.  1.
<mgrwt>
<rscale>  0 0.89232204E+02</rscale>
<asrwt>0</asrwt>
<pdfrwt beam="1">  1        3 0.51214414E-01 0.89232204E+02</pdfrwt>
<pdfrwt beam="2">  1       -3 0.91995022E-03 0.89232204E+02</pdfrwt>
<totfact> 0.23942089E+04</totfact>
</mgrwt>
</event>
<event>
 7    1  0.1247599E-009  0.9184302E+02  0.7818608E-02  0.1298449E+00
         -3   -1    0    0    0  501 -0.00000000000E+00  0.00000000000E+00  0.35322776801E+02  0.35322921197E+02  0.10100000000E+00 0.  1.
          3   -1    0    0  501    0  0.00000000000E+00 -0.00000000000E+00 -0.59700129172E+02  0.59700214607E+02  0.10100000000E+00 0. -1.
         23    2    1    2    0    0  0.35527136788E-14 -0.35527136788E-14 -0.24377352371E+02  0.95023135804E+02  0.91843023848E+02 0.  0.
    9000005    2    3    3    0    0  0.29662169878E+02 -0.17131295403E+02 -0.42366217100E+02  0.56333022619E+02  0.14324366719E+02 0.  0.
         22    1    3    3    0    0 -0.29662169878E+02  0.17131295403E+02  0.17988864729E+02  0.38690113186E+02  0.00000000000E+00 0.  1.
         22    1    4    4    0    0  0.27093846862E+02 -0.16737837461E+02 -0.30189189803E+02  0.43881874636E+02  0.00000000000E+00 0. -1.
         22    1    4    4    0    0  0.25683230164E+01 -0.39345794116E+00 -0.12177027298E+02  0.12451147982E+02  0.00000000000E+00 0. -1.
<mgrwt>
<rscale>  0 0.91843024E+02</rscale>
<asrwt>0</asrwt>
<pdfrwt beam="2">  1        3 0.91846529E-02 0.91843024E+02</pdfrwt>
<pdfrwt beam="1">  1       -3 0.54342910E-02 0.91843024E+02</pdfrwt>
<totfact> 0.34355472E+04</totfact>
</mgrwt>
</event>
<event>
 7    1  0.1247599E-009  0.1051586E+03  0.7818608E-02  0.1269807E+00
          3   -1    0    0  501    0  0.00000000000E+00  0.00000000000E+00  0.14509857218E+01  0.14544966706E+01  0.10100000000E+00 0. -1.
         -3   -1    0    0    0  501 -0.00000000000E+00 -0.00000000000E+00 -0.19030070918E+04  0.19030070945E+04  0.10100000000E+00 0.  1.
         23    2    1    2    0    0  0.00000000000E+00  0.00000000000E+00 -0.19015561061E+04  0.19044615911E+04  0.10515858313E+03 0.  0.
    9000005    2    3    3    0    0 -0.22616686542E+02 -0.15955452521E+02 -0.17570507436E+04  0.17573293691E+04  0.14598116515E+02 0.  0.
         22    1    3    3    0    0  0.22616686542E+02  0.15955452521E+02 -0.14450536249E+03  0.14713222205E+03  0.00000000000E+00 0. -1.
         22    1    4    4    0    0 -0.22370680513E+01  0.35014651334E-01 -0.29608278934E+02  0.29692690699E+02  0.00000000000E+00 0. -1.
         22    1    4    4    0    0 -0.20379618491E+02 -0.15990467173E+02 -0.17274424646E+04  0.17276366784E+04  0.00000000000E+00 0. -1.
<mgrwt>
<rscale>  0 0.10515858E+03</rscale>
<asrwt>0</asrwt>
<pdfrwt beam="1">  1        3 0.22350037E-03 0.10515858E+03</pdfrwt>
<pdfrwt beam="2">  1       -3 0.29276860E+00 0.10515858E+03</pdfrwt>
<totfact> 0.27209854E+03</totfact>
</mgrwt>
</event>
<event>
 7    1  0.1247599E-009  0.9061310E+02  0.7818608E-02  0.1301374E+00
         -3   -1    0    0    0  501 -0.00000000000E+00  0.00000000000E+00  0.73831849394E+02  0.73831918477E+02  0.10100000000E+00 0.  1.
          3   -1    0    0  501    0  0.00000000000E+00 -0.00000000000E+00 -0.27801966249E+02  0.27802149706E+02  0.10100000000E+00 0. -1.
         23    2    1    2    0    0  0.00000000000E+00  0.00000000000E+00  0.46029883146E+02  0.10163406818E+03  0.90613098794E+02 0.  0.
    9000005    2    3    3    0    0  0.18497167819E+02 -0.32249195465E+02  0.49909859908E+02  0.64254795248E+02  0.15985267309E+02 0.  0.
         22    1    3    3    0    0 -0.18497167819E+02  0.32249195465E+02 -0.38799767622E+01  0.37379272935E+02  0.00000000000E+00 0. -1.
         22    1    4    4    0    0  0.11102919786E+02 -0.69366799734E+01  0.23695686630E+02  0.27071718115E+02  0.00000000000E+00 0. -1.
         22    1    4    4    0    0  0.73942480334E+01 -0.25312515491E+02  0.26214173278E+02  0.37183077133E+02  0.00000000000E+00 0. -1.
<mgrwt>
<rscale>  0 0.90613099E+02</rscale>
<asrwt>0</asrwt>
<pdfrwt beam="2">  1        3 0.42772451E-02 0.90613099E+02</pdfrwt>
<pdfrwt beam="1">  1       -3 0.11358765E-01 0.90613099E+02</pdfrwt>
<totfact> 0.35139295E+04</totfact>
</mgrwt>
</event>
<event>
 7    1  0.1247599E-009  0.8998268E+02  0.7818608E-02  0.1302894E+00
          3   -1    0    0  501    0  0.00000000000E+00  0.00000000000E+00  0.23083485241E+02  0.23083706199E+02  0.10100000000E+00 0. -1.
         -3   -1    0    0    0  501 -0.00000000000E+00 -0.00000000000E+00 -0.87690626700E+02  0.87690684865E+02  0.10100000000E+00 0.  1.
         23    2    1    2    0    0  0.88817841970E-15  0.00000000000E+00 -0.64607141459E+02  0.11077439106E+03  0.89982681601E+02 0.  0.
    9000005    2    3    3    0    0  0.74471591277E+01  0.39260124898E+02 -0.56793769660E+02  0.70057485914E+02  0.92575090814E+01 0.  0.
         22    1    3    3    0    0 -0.74471591277E+01 -0.39260124898E+02 -0.78133717990E+01  0.40716905149E+02  0.00000000000E+00 0. -1.
         22    1    4    4    0    0  0.53144000306E+00  0.23450107859E+02 -0.36878381129E+02  0.43705891843E+02  0.00000000000E+00 0. -1.
         22    1    4    4    0    0  0.69157191247E+01  0.15810017038E+02 -0.19915388531E+02  0.26351594071E+02  0.00000000000E+00 0. -1.
<mgrwt>
<rscale>  0 0.89982682E+02</rscale>
<asrwt>0</asrwt>
<pdfrwt beam="1">  1        3 0.35513269E-02 0.89982682E+02</pdfrwt>
<pdfrwt beam="2">  1       -3 0.13490887E-01 0.89982682E+02</pdfrwt>
<totfact> 0.35125160E+04</totfact>
</mgrwt>
</event>
<event>
 7    1  0.1247599E-009  0.9086329E+02  0.7818608E-02  0.1300774E+00
         -3   -1    0    0    0  501 -0.00000000000E+00  0.00000000000E+00  0.11031238244E+03  0.11031242868E+03  0.10100000000E+00 0.  1.
          3   -1    0    0  501    0  0.00000000000E+00 -0.00000000000E+00 -0.18710626428E+02  0.18710899025E+02  0.10100000000E+00 0. -1.
         23    2    1    2    0    0  0.00000000000E+00  0.88817841970E-15  0.91601756014E+02  0.12902332770E+03  0.90863289545E+02 0.  0.
    9000005    2    3    3    0    0  0.43889461859E+02  0.60884302874E+01  0.38874415712E+02  0.60150065395E+02  0.11977325430E+02 0.  0.
         22    1    3    3    0    0 -0.43889461859E+02 -0.60884302874E+01  0.52727340302E+02  0.68873262309E+02  0.00000000000E+00 0.  1.
         22    1    4    4    0    0  0.19706866534E+02  0.18695213724E+01  0.25217546952E+02  0.32059013912E+02  0.00000000000E+00 0.  1.
         22    1    4    4    0    0  0.24182595325E+02  0.42189089150E+01  0.13656868760E+02  0.28091051483E+02  0.00000000000E+00 0.  1.
<mgrwt>
<rscale>  0 0.90863290E+02</rscale>
<asrwt>0</asrwt>
<pdfrwt beam="2">  1        3 0.28785824E-02 0.90863290E+02</pdfrwt>
<pdfrwt beam="1">  1       -3 0.16971160E-01 0.90863290E+02</pdfrwt>
<totfact> 0.32948270E+04</totfact>
</mgrwt>
</event>
<event>
 7    1  0.1247599E-009  0.9183441E+02  0.7818608E-02  0.1298469E+00
         -3   -1    0    0    0  501 -0.00000000000E+00  0.00000000000E+00  0.12873216071E+03  0.12873220033E+03  0.10100000000E+00 0.  1.
          3   -1    0    0  501    0  0.00000000000E+00 -0.00000000000E+00 -0.16377914376E+02  0.16378225799E+02  0.10100000000E+00 0. -1.
         23    2    1    2    0    0 -0.35527136788E-14 -0.88817841970E-15  0.11235424634E+03  0.14511042613E+03  0.91834411320E+02 0.  0.
    9000005    2    3    3    0    0 -0.30501114682E+02  0.72508316323E+01  0.10859277978E+03  0.11353446713E+03  0.10714049149E+02 0.  0.
         22    1    3    3    0    0  0.30501114682E+02 -0.72508316323E+01  0.37614665511E+01  0.31575959001E+02  0.00000000000E+00 0. -1.
         22    1    4    4    0    0 -0.20569996240E+02  0.94237928382E+01  0.66998071073E+02  0.70715444877E+02  0.00000000000E+00 0.  1.
         22    1    4    4    0    0 -0.99311184423E+01 -0.21729612058E+01  0.41594708712E+02  0.42819022253E+02  0.00000000000E+00 0.  1.
<mgrwt>
<rscale>  0 0.91834411E+02</rscale>
<asrwt>0</asrwt>
<pdfrwt beam="2">  1        3 0.25197062E-02 0.91834411E+02</pdfrwt>
<pdfrwt beam="1">  1       -3 0.19804974E-01 0.91834411E+02</pdfrwt>
<totfact> 0.30999414E+04</totfact>
</mgrwt>
</event>
<event>
 7    1  0.1247599E-009  0.9133221E+02  0.7818608E-02  0.1299657E+00
          3   -1    0    0  501    0  0.00000000000E+00  0.00000000000E+00  0.15975713949E+02  0.15976033212E+02  0.10100000000E+00 0. -1.
         -3   -1    0    0    0  501 -0.00000000000E+00 -0.00000000000E+00 -0.13053357572E+03  0.13053361479E+03  0.10100000000E+00 0.  1.
         23    2    1    2    0    0  0.00000000000E+00  0.00000000000E+00 -0.11455786177E+03  0.14650964801E+03  0.91332213732E+02 0.  0.
    9000005    2    3    3    0    0 -0.32585438971E+02 -0.29437103550E+02 -0.47593960933E+02  0.66431449264E+02  0.14818854059E+02 0.  0.
         22    1    3    3    0    0  0.32585438971E+02  0.29437103550E+02 -0.66963900838E+02  0.80078198742E+02  0.00000000000E+00 0.  1.
         22    1    4    4    0    0 -0.96749082524E+01 -0.12092722796E+02 -0.26831386500E+02  0.30980011230E+02  0.00000000000E+00 0.  1.
         22    1    4    4    0    0 -0.22910530719E+02 -0.17344380754E+02 -0.20762574433E+02  0.35451438034E+02  0.00000000000E+00 0.  1.
<mgrwt>
<rscale>  0 0.91332214E+02</rscale>
<asrwt>0</asrwt>
<pdfrwt beam="1">  1        3 0.24578298E-02 0.91332214E+02</pdfrwt>
<pdfrwt beam="2">  1       -3 0.20082115E-01 0.91332214E+02</pdfrwt>
<totfact> 0.31377801E+04</totfact>
</mgrwt>
</event>
<event>
 7    1  0.1247599E-009  0.9022585E+02  0.7818608E-02  0.1302306E+00
          3   -1    0    0  501    0  0.00000000000E+00  0.00000000000E+00  0.29797498146E+02  0.29797669317E+02  0.10100000000E+00 0. -1.
         -3   -1    0    0    0  501 -0.00000000000E+00 -0.00000000000E+00 -0.68299820341E+02  0.68299895019E+02  0.10100000000E+00 0.  1.
         23    2    1    2    0    0  0.00000000000E+00  0.00000000000E+00 -0.38502322195E+02  0.98097564336E+02  0.90225846155E+02 0.  0.
    9000005    2    3    3    0    0  0.28087995733E+01  0.22930317071E+02  0.20625843175E+02  0.34616632269E+02  0.15465995828E+02 0.  0.
         22    1    3    3    0    0 -0.28087995733E+01 -0.22930317071E+02 -0.59128165371E+02  0.63480932067E+02  0.00000000000E+00 0.  1.
         22    1    4    4    0    0 -0.16377707139E+01  0.76172630372E+01  0.16344068586E+02  0.18106174832E+02  0.00000000000E+00 0.  1.
         22    1    4    4    0    0  0.44465702871E+01  0.15313054034E+02  0.42817745892E+01  0.16510457438E+02  0.00000000000E+00 0.  1.
<mgrwt>
<rscale>  0 0.90225846E+02</rscale>
<asrwt>0</asrwt>
<pdfrwt beam="1">  1        3 0.45842494E-02 0.90225846E+02</pdfrwt>
<pdfrwt beam="2">  1       -3 0.10507684E-01 0.90225846E+02</pdfrwt>
<totfact> 0.35820122E+04</totfact>
</mgrwt>
</event>
<event>
 7    1  0.1247599E-009  0.9344435E+02  0.7818608E-02  0.1294719E+00
         -3   -1    0    0    0  501 -0.00000000000E+00  0.00000000000E+00  0.93391816543E+02  0.93391871157E+02  0.10100000000E+00 0.  1.
          3   -1    0    0  501    0  0.00000000000E+00 -0.00000000000E+00 -0.23374060055E+02  0.23374278266E+02  0.10100000000E+00 0. -1.
         23    2    1    2    0    0  0.00000000000E+00  0.00000000000E+00  0.70017756488E+02  0.11676614942E+03  0.93444354711E+02 0.  0.
    9000005    2    3    3    0    0 -0.43723088123E+02 -0.83046015728E+01  0.22873814206E+02  0.51933857035E+02  0.13901053483E+02 0.  0.
         22    1    3    3    0    0  0.43723088123E+02  0.83046015728E+01  0.47143942282E+02  0.64832292387E+02  0.00000000000E+00 0.  1.
         22    1    4    4    0    0 -0.19549228226E+02 -0.89506205161E+01  0.56078723073E+01  0.22220129695E+02  0.00000000000E+00 0.  1.
         22    1    4    4    0    0 -0.24173859898E+02  0.64601894336E+00  0.17265941898E+02  0.29713727340E+02  0.00000000000E+00 0.  1.
<mgrwt>
<rscale>  0 0.93444355E+02</rscale>
<asrwt>0</asrwt>
<pdfrwt beam="2">  1        3 0.35960302E-02 0.93444355E+02</pdfrwt>
<pdfrwt beam="1">  1       -3 0.14367993E-01 0.93444355E+02</pdfrwt>
<totfact> 0.31303595E+04</totfact>
</mgrwt>
</event>
<event>
 7    1  0.1247599E-009  0.9718576E+02  0.7818608E-02  0.1286328E+00
         -3   -1    0    0    0  501 -0.00000000000E+00  0.00000000000E+00  0.10291323571E+02  0.10291819171E+02  0.10100000000E+00 0. -1.
          3   -1    0    0  501    0  0.00000000000E+00 -0.00000000000E+00 -0.22943654445E+03  0.22943656669E+03  0.10100000000E+00 0.  1.
         23    2    1    2    0    0  0.35527136788E-14  0.00000000000E+00 -0.21914522088E+03  0.23972838586E+03  0.97185755896E+02 0.  0.
    9000005    2    3    3    0    0  0.19869014680E+02  0.12105095757E+02 -0.21441277579E+03  0.21598586863E+03  0.11651005917E+02 0.  0.
         22    1    3    3    0    0 -0.19869014680E+02 -0.12105095757E+02 -0.47324450940E+01  0.23742517225E+02  0.00000000000E+00 0. -1.
         22    1    4    4    0    0  0.18847298943E+01 -0.66719053473E+00 -0.45865332673E+01  0.50033626089E+01  0.00000000000E+00 0. -1.
         22    1    4    4    0    0  0.17984284785E+02  0.12772286292E+02 -0.20982624252E+03  0.21098250602E+03  0.00000000000E+00 0. -1.
<mgrwt>
<rscale>  0 0.97185756E+02</rscale>
<asrwt>0</asrwt>
<pdfrwt beam="2">  1        3 0.35297966E-01 0.97185756E+02</pdfrwt>
<pdfrwt beam="1">  1       -3 0.15833205E-02 0.97185756E+02</pdfrwt>
<totfact> 0.22354557E+04</totfact>
</mgrwt>
</event>
<event>
 7    1  0.1247599E-009  0.8820727E+02  0.7818608E-02  0.1307252E+00
         -3   -1    0    0    0  501 -0.00000000000E+00  0.00000000000E+00  0.49652942076E+02  0.49653044799E+02  0.10100000000E+00 0.  1.
          3   -1    0    0  501    0  0.00000000000E+00 -0.00000000000E+00 -0.39174324035E+02  0.39174454235E+02  0.10100000000E+00 0. -1.
         23    2    1    2    0    0  0.16653345369E-15  0.00000000000E+00  0.10478618041E+02  0.88827499034E+02  0.88207273785E+02 0.  0.
    9000005    2    3    3    0    0 -0.16949392866E+00 -0.20309052313E+02  0.43406396524E+02  0.50139969649E+02  0.14744997902E+02 0.  0.
         22    1    3    3    0    0  0.16949392866E+00  0.20309052313E+02 -0.32927778483E+02  0.38687529385E+02  0.00000000000E+00 0. -1.
         22    1    4    4    0    0  0.58629887655E+01 -0.10500497777E+02  0.30806764662E+02  0.33071012077E+02  0.00000000000E+00 0.  1.
         22    1    4    4    0    0 -0.60324826942E+01 -0.98085545365E+01  0.12599631862E+02  0.17068957572E+02  0.00000000000E+00 0.  1.
<mgrwt>
<rscale>  0 0.88207274E+02</rscale>
<asrwt>0</asrwt>
<pdfrwt beam="2">  1        3 0.60268371E-02 0.88207274E+02</pdfrwt>
<pdfrwt beam="1">  1       -3 0.76389320E-02 0.88207274E+02</pdfrwt>
<totfact> 0.38863487E+04</totfact>
</mgrwt>
</event>
<event>
 7    1  0.1247599E-009  0.9166440E+02  0.7818608E-02  0.1298870E+00
          3   -1    0    0  501    0  0.00000000000E+00  0.00000000000E+00  0.77120319310E+01  0.77126932718E+01  0.10100000000E+00 0. -1.
         -3   -1    0    0    0  501 -0.00000000000E+00 -0.00000000000E+00 -0.27236597801E+03  0.27236599674E+03  0.10100000000E+00 0.  1.
         23    2    1    2    0    0  0.00000000000E+00  0.00000000000E+00 -0.26465394608E+03  0.28007869001E+03  0.91664395605E+02 0.  0.
    9000005    2    3    3    0    0 -0.41028079950E+02 -0.20313989486E+02 -0.12877673202E+03  0.13669605921E+03  0.25306879623E+01 0.  0.
         22    1    3    3    0    0  0.41028079950E+02  0.20313989486E+02 -0.13587721406E+03  0.14338263080E+03  0.00000000000E+00 0.  1.
         22    1    4    4    0    0 -0.31128263385E+02 -0.15046797797E+02 -0.10024282948E+03  0.10603772804E+03  0.00000000000E+00 0. -1.
         22    1    4    4    0    0 -0.98998165656E+01 -0.52671916882E+01 -0.28533902538E+02  0.30658331173E+02  0.00000000000E+00 0. -1.
<mgrwt>
<rscale>  0 0.91664396E+02</rscale>
<asrwt>0</asrwt>
<pdfrwt beam="1">  1        3 0.11865190E-02 0.91664396E+02</pdfrwt>
<pdfrwt beam="2">  1       -3 0.41902503E-01 0.91664396E+02</pdfrwt>
<totfact> 0.24463047E+04</totfact>
</mgrwt>
</event>
<event>
 7    1  0.1247599E-009  0.9215886E+02  0.7818608E-02  0.1297706E+00
          3   -1    0    0  501    0  0.00000000000E+00  0.00000000000E+00  0.21966867558E+02  0.21967099747E+02  0.10100000000E+00 0. -1.
         -3   -1    0    0    0  501 -0.00000000000E+00 -0.00000000000E+00 -0.96659073095E+02  0.96659125863E+02  0.10100000000E+00 0.  1.
         23    2    1    2    0    0  0.00000000000E+00  0.00000000000E+00 -0.74692205538E+02  0.11862622561E+03  0.92158861942E+02 0.  0.
    9000005    2    3    3    0    0 -0.27863024137E+02  0.17485026050E+02  0.32053350735E+01  0.34067955267E+02  0.82629990390E+01 0.  0.
         22    1    3    3    0    0  0.27863024137E+02 -0.17485026050E+02 -0.77897540611E+02  0.84558270342E+02  0.00000000000E+00 0.  1.
         22    1    4    4    0    0 -0.17333400806E+02  0.88291226077E+01  0.55685401963E+01  0.20233853549E+02  0.00000000000E+00 0. -1.
         22    1    4    4    0    0 -0.10529623331E+02  0.86559034424E+01 -0.23632051228E+01  0.13834101718E+02  0.00000000000E+00 0. -1.
<mgrwt>
<rscale>  0 0.92158862E+02</rscale>
<asrwt>0</asrwt>
<pdfrwt beam="1">  1        3 0.33795401E-02 0.92158862E+02</pdfrwt>
<pdfrwt beam="2">  1       -3 0.14870648E-01 0.92158862E+02</pdfrwt>
<totfact> 0.32383847E+04</totfact>
</mgrwt>
</event>
<event>
 7    1  0.1247599E-009  0.8940299E+02  0.7818608E-02  0.1304304E+00
         -3   -1    0    0    0  501 -0.00000000000E+00  0.00000000000E+00  0.31939990292E+02  0.31940149982E+02  0.10100000000E+00 0.  1.
          3   -1    0    0  501    0  0.00000000000E+00 -0.00000000000E+00 -0.62561454437E+02  0.62561535964E+02  0.10100000000E+00 0. -1.
         23    2    1    2    0    0  0.00000000000E+00  0.00000000000E+00 -0.30621464144E+02  0.94501685946E+02  0.89402989773E+02 0.  0.
    9000005    2    3    3    0    0  0.33147674280E+02  0.15364287012E+02  0.90541768477E+01  0.40566668438E+02  0.15127684694E+02 0.  0.
         22    1    3    3    0    0 -0.33147674280E+02 -0.15364287012E+02 -0.39675640992E+02  0.53935017509E+02  0.00000000000E+00 0. -1.
         22    1    4    4    0    0  0.33617972806E+02  0.14199274365E+02  0.11118735851E+02  0.38149885648E+02  0.00000000000E+00 0. -1.
         22    1    4    4    0    0 -0.47029852571E+00  0.11650126467E+01 -0.20645590038E+01  0.24167827892E+01  0.00000000000E+00 0. -1.
<mgrwt>
<rscale>  0 0.89402990E+02</rscale>
<asrwt>0</asrwt>
<pdfrwt beam="2">  1        3 0.96248577E-02 0.89402990E+02</pdfrwt>
<pdfrwt beam="1">  1       -3 0.49138632E-02 0.89402990E+02</pdfrwt>
<totfact> 0.37007087E+04</totfact>
</mgrwt>
</event>
<event>
 7    1  0.1247599E-009  0.8803915E+02  0.7818608E-02  0.1307671E+00
          3   -1    0    0  501    0  0.00000000000E+00  0.00000000000E+00  0.40741261916E+02  0.40741387108E+02  0.10100000000E+00 0. -1.
         -3   -1    0    0    0  501 -0.00000000000E+00 -0.00000000000E+00 -0.47561433931E+02  0.47561541171E+02  0.10100000000E+00 0.  1.
         23    2    1    2    0    0  0.71054273576E-14 -0.17763568394E-14 -0.68201720150E+01  0.88302928279E+02  0.88039152633E+02 0.  0.
    9000005    2    3    3    0    0 -0.35950629453E+02  0.12974829777E+02 -0.24712164871E+02  0.46102011534E+02  0.73423708038E+01 0.  0.
         22    1    3    3    0    0  0.35950629453E+02 -0.12974829777E+02  0.17891992856E+02  0.42200916745E+02  0.00000000000E+00 0. -1.
         22    1    4    4    0    0 -0.13140796594E+02  0.12181118639E+01 -0.96236204167E+01  0.16333352429E+02  0.00000000000E+00 0.  1.
         22    1    4    4    0    0 -0.22809832858E+02  0.11756717914E+02 -0.15088544455E+02  0.29768659104E+02  0.00000000000E+00 0.  1.
<mgrwt>
<rscale>  0 0.88039153E+02</rscale>
<asrwt>0</asrwt>
<pdfrwt beam="1">  1        3 0.62679043E-02 0.88039153E+02</pdfrwt>
<pdfrwt beam="2">  1       -3 0.73171616E-02 0.88039153E+02</pdfrwt>
<totfact> 0.39110039E+04</totfact>
</mgrwt>
</event>
<event>
 7    1  0.1247599E-009  0.9095566E+02  0.7818608E-02  0.1300554E+00
          3   -1    0    0  501    0  0.00000000000E+00  0.00000000000E+00  0.23386766968E+03  0.23386769149E+03  0.10100000000E+00 0. -1.
         -3   -1    0    0    0  501 -0.00000000000E+00 -0.00000000000E+00 -0.88432936498E+01  0.88438703957E+01  0.10100000000E+00 0.  1.
         23    2    1    2    0    0  0.00000000000E+00 -0.17763568394E-14  0.22502437603E+03  0.24271156188E+03  0.90955662083E+02 0.  0.
    9000005    2    3    3    0    0 -0.37813217712E+02  0.10645481174E+02  0.54350023086E+02  0.67574756913E+02  0.83220826248E+01 0.  0.
         22    1    3    3    0    0  0.37813217712E+02 -0.10645481174E+02  0.17067435294E+03  0.17513680497E+03  0.00000000000E+00 0. -1.
         22    1    4    4    0    0 -0.28332187239E+02  0.98468626721E+01  0.46003341150E+02  0.54917947296E+02  0.00000000000E+00 0.  1.
         22    1    4    4    0    0 -0.94810304724E+01  0.79861850140E+00  0.83466819365E+01  0.12656809617E+02  0.00000000000E+00 0.  1.
<mgrwt>
<rscale>  0 0.90955662E+02</rscale>
<asrwt>0</asrwt>
<pdfrwt beam="1">  1        3 0.35979683E-01 0.90955662E+02</pdfrwt>
<pdfrwt beam="2">  1       -3 0.13605529E-02 0.90955662E+02</pdfrwt>
<totfact> 0.26604350E+04</totfact>
</mgrwt>
</event>
<event>
 7    1  0.1247599E-009  0.9258038E+02  0.7818608E-02  0.1296721E+00
          3   -1    0    0  501    0  0.00000000000E+00  0.00000000000E+00  0.15434304728E+01  0.15467315942E+01  0.10100000000E+00 0.  1.
         -3   -1    0    0    0  501 -0.00000000000E+00 -0.00000000000E+00 -0.13868376979E+04  0.13868377016E+04  0.10100000000E+00 0. -1.
         23    2    1    2    0    0  0.00000000000E+00  0.00000000000E+00 -0.13852942674E+04  0.13883844331E+04  0.92580380791E+02 0.  0.
    9000005    2    3    3    0    0 -0.66403134518E+01 -0.22209379245E+02 -0.12902712195E+04  0.12905747714E+04  0.15686635665E+02 0.  0.
         22    1    3    3    0    0  0.66403134518E+01  0.22209379245E+02 -0.95023047922E+02  0.97809661719E+02  0.00000000000E+00 0.  1.
         22    1    4    4    0    0  0.33686282064E+01 -0.31759715868E+01 -0.46628065109E+03  0.46630363502E+03  0.00000000000E+00 0.  1.
         22    1    4    4    0    0 -0.10008941658E+02 -0.19033407658E+02 -0.82399056838E+03  0.82427113640E+03  0.00000000000E+00 0.  1.
<mgrwt>
<rscale>  0 0.92580381E+02</rscale>
<asrwt>0</asrwt>
<pdfrwt beam="1">  1        3 0.23770617E-03 0.92580381E+02</pdfrwt>
<pdfrwt beam="2">  1       -3 0.21335890E+00 0.92580381E+02</pdfrwt>
<totfact> 0.64977740E+03</totfact>
</mgrwt>
</event>
<event>
 7    1  0.1247599E-009  0.9584556E+02  0.7818608E-02  0.1289283E+00
         -3   -1    0    0    0  501 -0.00000000000E+00  0.00000000000E+00  0.10842633865E+03  0.10842638569E+03  0.10100000000E+00 0.  1.
          3   -1    0    0  501    0  0.00000000000E+00 -0.00000000000E+00 -0.21180964404E+02  0.21181205208E+02  0.10100000000E+00 0. -1.
         23    2    1    2    0    0  0.71054273576E-14 -0.17763568394E-14  0.87245374242E+02  0.12960759090E+03  0.95845564796E+02 0.  0.
    9000005    2    3    3    0    0  0.42968034992E+02 -0.82508425477E+01  0.21410106747E+02  0.50559435445E+02  0.13547524047E+02 0.  0.
         22    1    3    3    0    0 -0.42968034992E+02  0.82508425477E+01  0.65835267495E+02  0.79048155450E+02  0.00000000000E+00 0.  1.
         22    1    4    4    0    0  0.44011727433E+01  0.15084820025E+00 -0.18138413540E+01  0.47626775194E+01  0.00000000000E+00 0.  1.
         22    1    4    4    0    0  0.38566862249E+02 -0.84016907479E+01  0.23223948101E+02  0.45796757926E+02  0.00000000000E+00 0.  1.
<mgrwt>
<rscale>  0 0.95845565E+02</rscale>
<asrwt>0</asrwt>
<pdfrwt beam="2">  1        3 0.32586321E-02 0.95845565E+02</pdfrwt>
<pdfrwt beam="1">  1       -3 0.16680997E-01 0.95845565E+02</pdfrwt>
<totfact> 0.28454924E+04</totfact>
</mgrwt>
</event>
<event>
 7    1  0.1247599E-009  0.1009239E+03  0.7818608E-02  0.1278365E+00
          3   -1    0    0  501    0  0.00000000000E+00  0.00000000000E+00  0.25541723982E+02  0.25541923674E+02  0.10100000000E+00 0. -1.
         -3   -1    0    0    0  501 -0.00000000000E+00 -0.00000000000E+00 -0.99695466035E+02  0.99695517196E+02  0.10100000000E+00 0.  1.
         23    2    1    2    0    0  0.00000000000E+00 -0.35527136788E-14 -0.74153742053E+02  0.12523744087E+03  0.10092392747E+03 0.  0.
    9000005    2    3    3    0    0  0.17233407161E+02  0.29982534472E+02  0.79184414125E+01  0.36176866009E+02  0.70796344619E+01 0.  0.
         22    1    3    3    0    0 -0.17233407161E+02 -0.29982534472E+02 -0.82072183466E+02  0.89060574861E+02  0.00000000000E+00 0.  1.
         22    1    4    4    0    0  0.12518994323E+02  0.15608211091E+02  0.62258969977E+01  0.20954790998E+02  0.00000000000E+00 0. -1.
         22    1    4    4    0    0  0.47144128376E+01  0.14374323381E+02  0.16925444148E+01  0.15222075012E+02  0.00000000000E+00 0. -1.
<mgrwt>
<rscale>  0 0.10092393E+03</rscale>
<asrwt>0</asrwt>
<pdfrwt beam="1">  1        3 0.39295154E-02 0.10092393E+03</pdfrwt>
<pdfrwt beam="2">  1       -3 0.15337783E-01 0.10092393E+03</pdfrwt>
<totfact> 0.24918510E+04</totfact>
</mgrwt>
</event>
<event>
 7    1  0.1247599E-009  0.9149240E+02  0.7818608E-02  0.1299277E+00
         -3   -1    0    0    0  501 -0.00000000000E+00  0.00000000000E+00  0.17910776057E+03  0.17910778905E+03  0.10100000000E+00 0.  1.
          3   -1    0    0  501    0  0.00000000000E+00 -0.00000000000E+00 -0.11683861932E+02  0.11684298466E+02  0.10100000000E+00 0. -1.
         23    2    1    2    0    0 -0.71054273576E-14  0.17763568394E-14  0.16742389864E+03  0.19079208751E+03  0.91492397621E+02 0.  0.
    9000005    2    3    3    0    0  0.38953367330E+02 -0.12082396733E+02  0.49381876728E+02  0.65903064481E+02  0.15533673798E+02 0.  0.
         22    1    3    3    0    0 -0.38953367330E+02  0.12082396733E+02  0.11804202191E+03  0.12488902303E+03  0.00000000000E+00 0.  1.
         22    1    4    4    0    0  0.38362093896E+02 -0.87343569903E+01  0.40835091258E+02  0.56704884430E+02  0.00000000000E+00 0. -1.
         22    1    4    4    0    0  0.59127343413E+00 -0.33480397428E+01  0.85467854701E+01  0.91981800518E+01  0.00000000000E+00 0. -1.
<mgrwt>
<rscale>  0 0.91492398E+02</rscale>
<asrwt>0</asrwt>
<pdfrwt beam="2">  1        3 0.17975531E-02 0.91492398E+02</pdfrwt>
<pdfrwt beam="1">  1       -3 0.27555074E-01 0.91492398E+02</pdfrwt>
<totfact> 0.28711499E+04</totfact>
</mgrwt>
</event>
<event>
 7    1  0.1247599E-009  0.9143799E+02  0.7818608E-02  0.1299406E+00
         -3   -1    0    0    0  501 -0.00000000000E+00  0.00000000000E+00  0.57789985124E+02  0.57790073383E+02  0.10100000000E+00 0.  1.
          3   -1    0    0  501    0  0.00000000000E+00 -0.00000000000E+00 -0.36169171401E+02  0.36169312419E+02  0.10100000000E+00 0. -1.
         23    2    1    2    0    0  0.00000000000E+00  0.00000000000E+00  0.21620813723E+02  0.93959385802E+02  0.91437993166E+02 0.  0.
    9000005    2    3    3    0    0  0.82740707640E+00  0.15553236799E+02 -0.32993968599E+02  0.37167113217E+02  0.70855178761E+01 0.  0.
         22    1    3    3    0    0 -0.82740707640E+00 -0.15553236799E+02  0.54614782321E+02  0.56792272585E+02  0.00000000000E+00 0.  1.
         22    1    4    4    0    0 -0.10202237661E+01  0.14410406001E+02 -0.31073237576E+02  0.34267283976E+02  0.00000000000E+00 0.  1.
         22    1    4    4    0    0  0.18476308425E+01  0.11428307989E+01 -0.19207310229E+01  0.28998292411E+01  0.00000000000E+00 0.  1.
<mgrwt>
<rscale>  0 0.91437993E+02</rscale>
<asrwt>0</asrwt>
<pdfrwt beam="2">  1        3 0.55645055E-02 0.91437993E+02</pdfrwt>
<pdfrwt beam="1">  1       -3 0.88907846E-02 0.91437993E+02</pdfrwt>
<totfact> 0.34853665E+04</totfact>
</mgrwt>
</event>
<event>
 7    1  0.1247599E-009  0.1213431E+03  0.7818608E-02  0.1240898E+00
         -3   -1    0    0    0  501 -0.00000000000E+00  0.00000000000E+00  0.55245815625E+02  0.55245907949E+02  0.10100000000E+00 0.  1.
          3   -1    0    0  501    0  0.00000000000E+00 -0.00000000000E+00 -0.66629920540E+02  0.66629997090E+02  0.10100000000E+00 0. -1.
         23    2    1    2    0    0 -0.17763568394E-14 -0.17763568394E-14 -0.11384104915E+02  0.12187590504E+03  0.12134306072E+03 0.  0.
    9000005    2    3    3    0    0 -0.15851272891E+02 -0.10046829193E+02  0.51851589530E+02  0.55914138226E+02  0.92521288201E+01 0.  0.
         22    1    3    3    0    0  0.15851272891E+02  0.10046829193E+02 -0.63235694445E+02  0.65961766812E+02  0.00000000000E+00 0. -1.
         22    1    4    4    0    0 -0.12589988500E+02 -0.11506901962E+02  0.38824294158E+02  0.42405688534E+02  0.00000000000E+00 0.  1.
         22    1    4    4    0    0 -0.32612843909E+01  0.14600727694E+01  0.13027295372E+02  0.13508449692E+02  0.00000000000E+00 0.  1.
<mgrwt>
<rscale>  0 0.12134306E+03</rscale>
<asrwt>0</asrwt>
<pdfrwt beam="2">  1        3 0.10250770E-01 0.12134306E+03</pdfrwt>
<pdfrwt beam="1">  1       -3 0.84993693E-02 0.12134306E+03</pdfrwt>
<totfact> 0.15026491E+04</totfact>
</mgrwt>
</event>
<event>
 6    1  0.1247599E-009  0.1367259E+03  0.7818608E-02  0.1217804E+00
          3   -1    0    0  501    0  0.00000000000E+00  0.00000000000E+00  0.23251708637E+01  0.23273634322E+01  0.10100000000E+00 0. -1.
         -3   -1    0    0    0  501 -0.00000000000E+00 -0.00000000000E+00 -0.20090070919E+04  0.20090070945E+04  0.10100000000E+00 0.  1.
    9000005    2    1    2    0    0  0.11796022605E+02  0.19909395326E+02 -0.19491889813E+04  0.19493589120E+04  0.11267326278E+02 0.  0.
         22    1    1    2    0    0 -0.11796022605E+02 -0.19909395326E+02 -0.57492939736E+02  0.61975545911E+02  0.00000000000E+00 0. -1.
         22    1    3    3    0    0  0.61851583971E+01  0.18091245431E+02 -0.16577754811E+04  0.16578857304E+04  0.00000000000E+00 0. -1.
         22    1    3    3    0    0  0.56108642081E+01  0.18181498954E+01 -0.29141350030E+03  0.29147318165E+03  0.00000000000E+00 0. -1.
<mgrwt>
<rscale>  0 0.13672589E+03</rscale>
<asrwt>0</asrwt>
<pdfrwt beam="1">  1        3 0.35788906E-03 0.13672589E+03</pdfrwt>
<pdfrwt beam="2">  1       -3 0.30907679E+00 0.13672589E+03</pdfrwt>
<totfact> 0.11728872E+03</totfact>
</mgrwt>
</event>
<event>
 7    1  0.1247599E-009  0.9114421E+02  0.7818608E-02  0.1300104E+00
         -3   -1    0    0    0  501 -0.00000000000E+00  0.00000000000E+00  0.41742197543E+03  0.41742198765E+03  0.10100000000E+00 0.  1.
          3   -1    0    0  501    0  0.00000000000E+00 -0.00000000000E+00 -0.49748161790E+01  0.49758413374E+01  0.10100000000E+00 0. -1.
         23    2    1    2    0    0 -0.17763568394E-14  0.17763568394E-14  0.41244715925E+03  0.42239782899E+03  0.91144208583E+02 0.  0.
    9000005    2    3    3    0    0 -0.14729151154E+02 -0.89862056125E+01  0.40134825359E+03  0.40188233504E+03  0.11458218596E+02 0.  0.
         22    1    3    3    0    0  0.14729151154E+02  0.89862056125E+01  0.11098905666E+02  0.20515493950E+02  0.00000000000E+00 0. -1.
         22    1    4    4    0    0 -0.92198904995E+01  0.62172284730E+00  0.14429420577E+03  0.14458980164E+03  0.00000000000E+00 0. -1.
         22    1    4    4    0    0 -0.55092606547E+01 -0.96079284598E+01  0.25705404782E+03  0.25729253340E+03  0.00000000000E+00 0. -1.
<mgrwt>
<rscale>  0 0.91144209E+02</rscale>
<asrwt>0</asrwt>
<pdfrwt beam="2">  1        3 0.76543596E-03 0.91144209E+02</pdfrwt>
<pdfrwt beam="1">  1       -3 0.64218859E-01 0.91144209E+02</pdfrwt>
<totfact> 0.19958935E+04</totfact>
</mgrwt>
</event>
<event>
 7    1  0.1247599E-009  0.9238878E+02  0.7818608E-02  0.1297168E+00
          3   -1    0    0  501    0  0.00000000000E+00  0.00000000000E+00  0.52236701118E+02  0.52236798760E+02  0.10100000000E+00 0. -1.
         -3   -1    0    0    0  501 -0.00000000000E+00 -0.00000000000E+00 -0.40850803800E+02  0.40850928657E+02  0.10100000000E+00 0.  1.
         23    2    1    2    0    0  0.00000000000E+00 -0.35527136788E-14  0.11385897317E+02  0.93087727416E+02  0.92388778203E+02 0.  0.
    9000005    2    3    3    0    0 -0.19450314799E+02 -0.26522316319E+02 -0.26428354670E+02  0.42971206566E+02  0.81436266157E+01 0.  0.
         22    1    3    3    0    0  0.19450314799E+02  0.26522316319E+02  0.37814251988E+02  0.50116520850E+02  0.00000000000E+00 0. -1.
         22    1    4    4    0    0 -0.43167565228E+01 -0.12564702195E+02 -0.98524387439E+01  0.16540153486E+02  0.00000000000E+00 0.  1.
         22    1    4    4    0    0 -0.15133558276E+02 -0.13957614124E+02 -0.16575915926E+02  0.26431053080E+02  0.00000000000E+00 0.  1.
<mgrwt>
<rscale>  0 0.92388778E+02</rscale>
<asrwt>0</asrwt>
<pdfrwt beam="1">  1        3 0.80364326E-02 0.92388778E+02</pdfrwt>
<pdfrwt beam="2">  1       -3 0.62847562E-02 0.92388778E+02</pdfrwt>
<totfact> 0.33946058E+04</totfact>
</mgrwt>
</event>
<event>
 7    1  0.1247599E-009  0.1220870E+03  0.7818608E-02  0.1239693E+00
         -3   -1    0    0    0  501 -0.00000000000E+00  0.00000000000E+00  0.97659602653E+02  0.97659654881E+02  0.10100000000E+00 0.  1.
          3   -1    0    0  501    0  0.00000000000E+00 -0.00000000000E+00 -0.38155989844E+02  0.38156123518E+02  0.10100000000E+00 0. -1.
         23    2    1    2    0    0 -0.71054273576E-14  0.00000000000E+00  0.59503612810E+02  0.13581577840E+03  0.12208704159E+03 0.  0.
    9000005    2    3    3    0    0  0.39018039886E+02 -0.17867941762E+02  0.78002346620E+02  0.89083841441E+02  0.31454647164E+01 0.  0.
         22    1    3    3    0    0 -0.39018039886E+02  0.17867941762E+02 -0.18498733810E+02  0.46731936958E+02  0.00000000000E+00 0. -1.
         22    1    4    4    0    0  0.25073221146E+02 -0.13119448169E+02  0.51091128684E+02  0.58404535518E+02  0.00000000000E+00 0.  1.
         22    1    4    4    0    0  0.13944818740E+02 -0.47484935922E+01  0.26911217936E+02  0.30679305922E+02  0.00000000000E+00 0.  1.
<mgrwt>
<rscale>  0 0.12208704E+03</rscale>
<asrwt>0</asrwt>
<pdfrwt beam="2">  1        3 0.58701666E-02 0.12208704E+03</pdfrwt>
<pdfrwt beam="1">  1       -3 0.15024568E-01 0.12208704E+03</pdfrwt>
<totfact> 0.14375604E+04</totfact>
</mgrwt>
</event>
<event>
 7    1  0.1247599E-009  0.9229332E+02  0.7818608E-02  0.1297391E+00
         -3   -1    0    0    0  501 -0.00000000000E+00  0.00000000000E+00  0.12557223962E+02  0.12557630136E+02  0.10100000000E+00 0.  1.
          3   -1    0    0  501    0  0.00000000000E+00 -0.00000000000E+00 -0.16958163931E+03  0.16958166938E+03  0.10100000000E+00 0. -1.
         23    2    1    2    0    0  0.00000000000E+00  0.00000000000E+00 -0.15702441535E+03  0.18213929952E+03  0.92293322702E+02 0.  0.
    9000005    2    3    3    0    0  0.17567375072E+01  0.44859966099E+02 -0.71112303597E+02  0.85204302589E+02  0.13686152552E+02 0.  0.
         22    1    3    3    0    0 -0.17567375072E+01 -0.44859966099E+02 -0.85912111749E+02  0.96934996932E+02  0.00000000000E+00 0. -1.
         22    1    4    4    0    0 -0.18060406013E+00  0.21126445714E+02 -0.45875352946E+02  0.50506507840E+02  0.00000000000E+00 0. -1.
         22    1    4    4    0    0  0.19373415674E+01  0.23733520385E+02 -0.25236950651E+02  0.34697794748E+02  0.00000000000E+00 0. -1.
<mgrwt>
<rscale>  0 0.92293323E+02</rscale>
<asrwt>0</asrwt>
<pdfrwt beam="2">  1        3 0.26089515E-01 0.92293323E+02</pdfrwt>
<pdfrwt beam="1">  1       -3 0.19319143E-02 0.92293323E+02</pdfrwt>
<totfact> 0.28494203E+04</totfact>
</mgrwt>
</event>
<event>
 7    1  0.1247599E-009  0.9172851E+02  0.7818608E-02  0.1298719E+00
          3   -1    0    0  501    0  0.00000000000E+00  0.00000000000E+00  0.18727583553E+02  0.18727855903E+02  0.10100000000E+00 0. -1.
         -3   -1    0    0    0  501 -0.00000000000E+00 -0.00000000000E+00 -0.11232144559E+03  0.11232149100E+03  0.10100000000E+00 0.  1.
         23    2    1    2    0    0 -0.88817841970E-15  0.00000000000E+00 -0.93593862036E+02  0.13104934690E+03  0.91728514175E+02 0.  0.
    9000005    2    3    3    0    0 -0.64452579963E+01 -0.21168845116E+02 -0.10370624927E+03  0.10671990528E+03  0.12020428085E+02 0.  0.
         22    1    3    3    0    0  0.64452579963E+01  0.21168845116E+02  0.10112387232E+02  0.24329441623E+02  0.00000000000E+00 0. -1.
         22    1    4    4    0    0  0.26603035176E+01 -0.33971657668E+01 -0.97028261681E+01  0.10618982329E+02  0.00000000000E+00 0.  1.
         22    1    4    4    0    0 -0.91055615139E+01 -0.17771679349E+02 -0.94003423100E+02  0.96100922950E+02  0.00000000000E+00 0.  1.
<mgrwt>
<rscale>  0 0.91728514E+02</rscale>
<asrwt>0</asrwt>
<pdfrwt beam="1">  1        3 0.28811912E-02 0.91728514E+02</pdfrwt>
<pdfrwt beam="2">  1       -3 0.17280246E-01 0.91728514E+02</pdfrwt>
<totfact> 0.31979897E+04</totfact>
</mgrwt>
</event>
<event>
 7    1  0.1247599E-009  0.9016449E+02  0.7818608E-02  0.1302454E+00
         -3   -1    0    0    0  501 -0.00000000000E+00  0.00000000000E+00  0.33124408834E+02  0.33124562814E+02  0.10100000000E+00 0. -1.
          3   -1    0    0  501    0  0.00000000000E+00 -0.00000000000E+00 -0.61356493544E+02  0.61356576672E+02  0.10100000000E+00 0.  1.
         23    2    1    2    0    0  0.00000000000E+00  0.00000000000E+00 -0.28232084709E+02  0.94481139487E+02  0.90164489194E+02 0.  0.
    9000005    2    3    3    0    0 -0.36314245970E+02  0.23958140840E+02 -0.23181563721E+02  0.50683596917E+02  0.11778163145E+02 0.  0.
         22    1    3    3    0    0  0.36314245970E+02 -0.23958140840E+02 -0.50505209880E+01  0.43797542569E+02  0.00000000000E+00 0. -1.
         22    1    4    4    0    0 -0.28361674328E+02  0.19607831226E+02 -0.12503486094E+02  0.36676815300E+02  0.00000000000E+00 0.  1.
         22    1    4    4    0    0 -0.79525716416E+01  0.43503096140E+01 -0.10678077627E+02  0.14006781617E+02  0.00000000000E+00 0.  1.
<mgrwt>
<rscale>  0 0.90164489E+02</rscale>
<asrwt>0</asrwt>
<pdfrwt beam="2">  1        3 0.94394787E-02 0.90164489E+02</pdfrwt>
<pdfrwt beam="1">  1       -3 0.50960812E-02 0.90164489E+02</pdfrwt>
<totfact> 0.36166748E+04</totfact>
</mgrwt>
</event>
<event>
 7    1  0.1247599E-009  0.9018367E+02  0.7818608E-02  0.1302408E+00
          3   -1    0    0  501    0  0.00000000000E+00  0.00000000000E+00  0.38919915149E+02  0.38920046200E+02  0.10100000000E+00 0. -1.
         -3   -1    0    0    0  501 -0.00000000000E+00 -0.00000000000E+00 -0.52242227844E+02  0.52242325476E+02  0.10100000000E+00 0.  1.
         23    2    1    2    0    0  0.88817841970E-15  0.00000000000E+00 -0.13322312695E+02  0.91162371676E+02  0.90183668112E+02 0.  0.
    9000005    2    3    3    0    0  0.66100233222E+01  0.37158293082E+02 -0.29713658017E+02  0.50014985920E+02  0.13934352901E+02 0.  0.
         22    1    3    3    0    0 -0.66100233222E+01 -0.37158293082E+02  0.16391345322E+02  0.41147385756E+02  0.00000000000E+00 0. -1.
         22    1    4    4    0    0  0.10418794411E+02  0.32780654439E+02 -0.24699174287E+02  0.42345859218E+02  0.00000000000E+00 0.  1.
         22    1    4    4    0    0 -0.38087710892E+01  0.43776386427E+01 -0.50144837295E+01  0.76691267019E+01  0.00000000000E+00 0.  1.
<mgrwt>
<rscale>  0 0.90183668E+02</rscale>
<asrwt>0</asrwt>
<pdfrwt beam="1">  1        3 0.59876969E-02 0.90183668E+02</pdfrwt>
<pdfrwt beam="2">  1       -3 0.80372834E-02 0.90183668E+02</pdfrwt>
<totfact> 0.36408908E+04</totfact>
</mgrwt>
</event>
<event>
 7    1  0.1247599E-009  0.9124069E+02  0.7818608E-02  0.1299875E+00
          3   -1    0    0  501    0  0.00000000000E+00  0.00000000000E+00  0.17370348779E+02  0.17370642409E+02  0.10100000000E+00 0. -1.
         -3   -1    0    0    0  501 -0.00000000000E+00 -0.00000000000E+00 -0.11981295524E+03  0.11981299781E+03  0.10100000000E+00 0.  1.
         23    2    1    2    0    0  0.00000000000E+00  0.44408920985E-15 -0.10244260646E+03  0.13718364022E+03  0.91240690076E+02 0.  0.
    9000005    2    3    3    0    0 -0.33769133534E+02 -0.35215680442E+01 -0.96641170472E+02  0.10273930134E+03  0.79430717742E+01 0.  0.
         22    1    3    3    0    0  0.33769133534E+02  0.35215680442E+01 -0.58014359883E+01  0.34444338876E+02  0.00000000000E+00 0. -1.
         22    1    4    4    0    0 -0.30886645182E+02 -0.10391032724E+01 -0.82601389739E+02  0.88193277368E+02  0.00000000000E+00 0.  1.
         22    1    4    4    0    0 -0.28824883517E+01 -0.24824647718E+01 -0.14039780733E+02  0.14546023975E+02  0.00000000000E+00 0.  1.
<mgrwt>
<rscale>  0 0.91240690E+02</rscale>
<asrwt>0</asrwt>
<pdfrwt beam="1">  1        3 0.26723873E-02 0.91240690E+02</pdfrwt>
<pdfrwt beam="2">  1       -3 0.18432788E-01 0.91240690E+02</pdfrwt>
<totfact> 0.32050161E+04</totfact>
</mgrwt>
</event>
<event>
 7    1  0.1247599E-009  0.6660498E+02  0.7818608E-02  0.1372034E+00
         -3   -1    0    0    0  501 -0.00000000000E+00  0.00000000000E+00  0.15116470481E+03  0.15116473855E+03  0.10100000000E+00 0.  1.
          3   -1    0    0  501    0  0.00000000000E+00 -0.00000000000E+00 -0.73363549449E+01  0.73370501482E+01  0.10100000000E+00 0. -1.
         23    2    1    2    0    0  0.00000000000E+00 -0.88817841970E-15  0.14382834986E+03  0.15850178870E+03  0.66604975760E+02 0.  0.
    9000005    2    3    3    0    0  0.28461191661E+02  0.67899506277E+01  0.10896713416E+03  0.11298863433E+03  0.60375740161E+01 0.  0.
         22    1    3    3    0    0 -0.28461191661E+02 -0.67899506277E+01  0.34861215700E+02  0.45513154367E+02  0.00000000000E+00 0. -1.
         22    1    4    4    0    0  0.24880557719E+02  0.43063546542E+01  0.86843669140E+02  0.90440089079E+02  0.00000000000E+00 0.  1.
         22    1    4    4    0    0  0.35806339423E+01  0.24835959735E+01  0.22123465022E+02  0.22548545252E+02  0.00000000000E+00 0.  1.
<mgrwt>
<rscale>  0 0.66604976E+02</rscale>
<asrwt>0</asrwt>
<pdfrwt beam="2">  1        3 0.11287261E-02 0.66604976E+02</pdfrwt>
<pdfrwt beam="1">  1       -3 0.23256164E-01 0.66604976E+02</pdfrwt>
<totfact> 0.70820613E+04</totfact>
</mgrwt>
</event>
<event>
 7    1  0.1247599E-009  0.9047108E+02  0.7818608E-02  0.1301715E+00
          3   -1    0    0  501    0  0.00000000000E+00  0.00000000000E+00  0.21191165595E+02  0.21191406284E+02  0.10100000000E+00 0. -1.
         -3   -1    0    0    0  501 -0.00000000000E+00 -0.00000000000E+00 -0.96560832052E+02  0.96560884873E+02  0.10100000000E+00 0.  1.
         23    2    1    2    0    0  0.00000000000E+00  0.88817841970E-15 -0.75369666457E+02  0.11775229116E+03  0.90471075217E+02 0.  0.
    9000005    2    3    3    0    0  0.28366508022E+02  0.74939083396E+01 -0.82345773940E+02  0.87594646766E+02  0.55837457728E+01 0.  0.
         22    1    3    3    0    0 -0.28366508022E+02 -0.74939083396E+01  0.69761074830E+01  0.30157644390E+02  0.00000000000E+00 0. -1.
         22    1    4    4    0    0  0.15728511882E+02  0.20874906269E+01 -0.38385760046E+02  0.41535650681E+02  0.00000000000E+00 0. -1.
         22    1    4    4    0    0  0.12637996140E+02  0.54064177127E+01 -0.43960013893E+02  0.46058996085E+02  0.00000000000E+00 0. -1.
<mgrwt>
<rscale>  0 0.90471075E+02</rscale>
<asrwt>0</asrwt>
<pdfrwt beam="1">  1        3 0.32602020E-02 0.90471075E+02</pdfrwt>
<pdfrwt beam="2">  1       -3 0.14855535E-01 0.90471075E+02</pdfrwt>
<totfact> 0.34113954E+04</totfact>
</mgrwt>
</event>
<event>
 7    1  0.1247599E-009  0.9079453E+02  0.7818608E-02  0.1300939E+00
          3   -1    0    0  501    0  0.00000000000E+00  0.00000000000E+00  0.46158512428E+02  0.46158622927E+02  0.10100000000E+00 0. -1.
         -3   -1    0    0    0  501 -0.00000000000E+00 -0.00000000000E+00 -0.44648349338E+02  0.44648463575E+02  0.10100000000E+00 0.  1.
         23    2    1    2    0    0  0.00000000000E+00  0.00000000000E+00  0.15101630898E+01  0.90807086503E+02  0.90794528285E+02 0.  0.
    9000005    2    3    3    0    0 -0.39912852853E+02  0.11490299591E+02  0.17913512290E+02  0.46151373850E+02  0.91647464825E+01 0.  0.
         22    1    3    3    0    0  0.39912852853E+02 -0.11490299591E+02 -0.16403349200E+02  0.44655712653E+02  0.00000000000E+00 0.  1.
         22    1    4    4    0    0 -0.14394593337E+02  0.43681632043E+01  0.11384818493E+02  0.18865292450E+02  0.00000000000E+00 0.  1.
         22    1    4    4    0    0 -0.25518259517E+02  0.71221363863E+01  0.65286937971E+01  0.27286081400E+02  0.00000000000E+00 0.  1.
<mgrwt>
<rscale>  0 0.90794528E+02</rscale>
<asrwt>0</asrwt>
<pdfrwt beam="1">  1        3 0.71013269E-02 0.90794528E+02</pdfrwt>
<pdfrwt beam="2">  1       -3 0.68689941E-02 0.90794528E+02</pdfrwt>
<totfact> 0.35774013E+04</totfact>
</mgrwt>
</event>
<event>
 7    1  0.1247599E-009  0.9016733E+02  0.7818608E-02  0.1302447E+00
         -3   -1    0    0    0  501 -0.00000000000E+00  0.00000000000E+00  0.30794347889E+02  0.30794513519E+02  0.10100000000E+00 0.  1.
          3   -1    0    0  501    0  0.00000000000E+00 -0.00000000000E+00 -0.66003189634E+02  0.66003266911E+02  0.10100000000E+00 0. -1.
         23    2    1    2    0    0 -0.17763568394E-14  0.00000000000E+00 -0.35208841745E+02  0.96797780430E+02  0.90167331995E+02 0.  0.
    9000005    2    3    3    0    0  0.93384406991E+01 -0.98537018569E+01  0.28301448710E+02  0.31852735132E+02  0.54150550635E+01 0.  0.
         22    1    3    3    0    0 -0.93384406991E+01  0.98537018569E+01 -0.63510290456E+02  0.64945045298E+02  0.00000000000E+00 0. -1.
         22    1    4    4    0    0  0.10602723708E+01 -0.20634549457E+01  0.10335353565E+02  0.10592523643E+02  0.00000000000E+00 0. -1.
         22    1    4    4    0    0  0.82781683284E+01 -0.77902469112E+01  0.17966095146E+02  0.21260211490E+02  0.00000000000E+00 0. -1.
<mgrwt>
<rscale>  0 0.90167332E+02</rscale>
<asrwt>0</asrwt>
<pdfrwt beam="2">  1        3 0.10154356E-01 0.90167332E+02</pdfrwt>
<pdfrwt beam="1">  1       -3 0.47376107E-02 0.90167332E+02</pdfrwt>
<totfact> 0.35982543E+04</totfact>
</mgrwt>
</event>
<event>
 7    1  0.1247599E-009  0.9026360E+02  0.7818608E-02  0.1302215E+00
         -3   -1    0    0    0  501 -0.00000000000E+00  0.00000000000E+00  0.65096867536E+01  0.65104702311E+01  0.10100000000E+00 0.  1.
          3   -1    0    0  501    0  0.00000000000E+00 -0.00000000000E+00 -0.31288013533E+03  0.31288015163E+03  0.10100000000E+00 0. -1.
         23    2    1    2    0    0 -0.71054273576E-14 -0.35527136788E-14 -0.30637044858E+03  0.31939062186E+03  0.90263600488E+02 0.  0.
    9000005    2    3    3    0    0 -0.36990870100E+02 -0.17601803669E+02 -0.21456535590E+03  0.21886041245E+03  0.13544010570E+02 0.  0.
         22    1    3    3    0    0  0.36990870100E+02  0.17601803669E+02 -0.91805092676E+02  0.10053020941E+03  0.00000000000E+00 0.  1.
         22    1    4    4    0    0 -0.25334710763E+02 -0.76221927053E+01 -0.16024633452E+03  0.16241561846E+03  0.00000000000E+00 0.  1.
         22    1    4    4    0    0 -0.11656159337E+02 -0.99796109641E+01 -0.54319021378E+02  0.56444793994E+02  0.00000000000E+00 0.  1.
<mgrwt>
<rscale>  0 0.90263600E+02</rscale>
<asrwt>0</asrwt>
<pdfrwt beam="2">  1        3 0.48135455E-01 0.90263600E+02</pdfrwt>
<pdfrwt beam="1">  1       -3 0.10015520E-02 0.90263600E+02</pdfrwt>
<totfact> 0.23936543E+04</totfact>
</mgrwt>
</event>
<event>
 7    1  0.1527580E-009  0.9367062E+02  0.7818608E-02  0.1294199E+00
          3   -1    0    0  501    0  0.00000000000E+00  0.00000000000E+00  0.20226941676E+02  0.20227193838E+02  0.10100000000E+00 0. -1.
         -3   -1    0    0    0  501 -0.00000000000E+00 -0.00000000000E+00 -0.10844579845E+03  0.10844584548E+03  0.10100000000E+00 0.  1.
         23    2    1    2    0    0  0.00000000000E+00  0.00000000000E+00 -0.88218856774E+02  0.12867303932E+03  0.93670616297E+02 0.  0.
    9000005    2    3    3    0    0  0.33727997761E+02  0.30637154575E+02 -0.45042400105E+02  0.65900278636E+02  0.15421278925E+02 0.  0.
         22    1    3    3    0    0 -0.33727997761E+02 -0.30637154575E+02 -0.43176456669E+02  0.62772760684E+02  0.00000000000E+00 0.  1.
         22    1    4    4    0    0  0.19225057749E+02  0.24557826084E+02 -0.36480565673E+02  0.47995013692E+02  0.00000000000E+00 0. -1.
         22    1    4    4    0    0  0.14502940012E+02  0.60793284914E+01 -0.85618344314E+01  0.17905264944E+02  0.00000000000E+00 0. -1.
<mgrwt>
<rscale>  0 0.93670616E+02</rscale>
<asrwt>0</asrwt>
<pdfrwt beam="1">  1        3 0.31118602E-02 0.93670616E+02</pdfrwt>
<pdfrwt beam="2">  1       -3 0.16683992E-01 0.93670616E+02</pdfrwt>
<totfact> 0.30351619E+04</totfact>
</mgrwt>
</event>
<event>
 7    1  0.1247599E-009  0.9088333E+02  0.7818608E-02  0.1300727E+00
         -3   -1    0    0    0  501 -0.00000000000E+00  0.00000000000E+00  0.56790112611E+02  0.56790202425E+02  0.10100000000E+00 0.  1.
          3   -1    0    0  501    0  0.00000000000E+00 -0.00000000000E+00 -0.36360801583E+02  0.36360941857E+02  0.10100000000E+00 0. -1.
         23    2    1    2    0    0  0.00000000000E+00  0.00000000000E+00  0.20429311029E+02  0.93151144282E+02  0.90883325929E+02 0.  0.
    9000005    2    3    3    0    0 -0.34902970621E+01 -0.32765120388E+02  0.41825622509E+02  0.53863265329E+02  0.81322423740E+01 0.  0.
         22    1    3    3    0    0  0.34902970621E+01  0.32765120388E+02 -0.21396311480E+02  0.39287878952E+02  0.00000000000E+00 0. -1.
         22    1    4    4    0    0 -0.35282091636E+01 -0.19454957556E+02  0.30696957748E+02  0.36513652904E+02  0.00000000000E+00 0.  1.
         22    1    4    4    0    0  0.37912101503E-01 -0.13310162832E+02  0.11128664761E+02  0.17349612425E+02  0.00000000000E+00 0.  1.
<mgrwt>
<rscale>  0 0.90883326E+02</rscale>
<asrwt>0</asrwt>
<pdfrwt beam="2">  1        3 0.55939872E-02 0.90883326E+02</pdfrwt>
<pdfrwt beam="1">  1       -3 0.87369581E-02 0.90883326E+02</pdfrwt>
<totfact> 0.35498575E+04</totfact>
</mgrwt>
</event>
<event>
 7    1  0.1247599E-009  0.9171672E+02  0.7818608E-02  0.1298747E+00
          3   -1    0    0  501    0  0.00000000000E+00  0.00000000000E+00  0.51070860160E+02  0.51070960031E+02  0.10100000000E+00 0. -1.
         -3   -1    0    0    0  501 -0.00000000000E+00 -0.00000000000E+00 -0.41177669143E+02  0.41177793009E+02  0.10100000000E+00 0.  1.
         23    2    1    2    0    0 -0.17763568394E-14 -0.22204460493E-15  0.98931910174E+01  0.92248753040E+02  0.91716722624E+02 0.  0.
    9000005    2    3    3    0    0 -0.14090210152E+02 -0.16764007773E+01  0.48296533311E+02  0.51307807264E+02  0.99293310271E+01 0.  0.
         22    1    3    3    0    0  0.14090210152E+02  0.16764007773E+01 -0.38403342294E+02  0.40940945776E+02  0.00000000000E+00 0.  1.
         22    1    4    4    0    0 -0.15497279415E+02 -0.11242376047E+01  0.46044601481E+02  0.48595626398E+02  0.00000000000E+00 0. -1.
         22    1    4    4    0    0  0.14070692634E+01 -0.55216317261E+00  0.22519318306E+01  0.27121808661E+01  0.00000000000E+00 0. -1.
<mgrwt>
<rscale>  0 0.91716723E+02</rscale>
<asrwt>0</asrwt>
<pdfrwt beam="1">  1        3 0.78570726E-02 0.91716723E+02</pdfrwt>
<pdfrwt beam="2">  1       -3 0.63350433E-02 0.91716723E+02</pdfrwt>
<totfact> 0.34692821E+04</totfact>
</mgrwt>
</event>
<event>
 7    1  0.1247599E-009  0.9189576E+02  0.7818608E-02  0.1298325E+00
         -3   -1    0    0    0  501 -0.00000000000E+00  0.00000000000E+00  0.24086272926E+01  0.24107439587E+01  0.10100000000E+00 0.  1.
          3   -1    0    0  501    0  0.00000000000E+00 -0.00000000000E+00 -0.87613192893E+03  0.87613193476E+03  0.10100000000E+00 0. -1.
         23    2    1    2    0    0  0.71054273576E-14  0.44408920985E-15 -0.87372330164E+03  0.87854267871E+03  0.91895758832E+02 0.  0.
    9000005    2    3    3    0    0 -0.38762166647E+02 -0.20573327565E+01 -0.66477621836E+03  0.66602062859E+03  0.12219616051E+02 0.  0.
         22    1    3    3    0    0  0.38762166647E+02  0.20573327565E+01 -0.20894708328E+03  0.21252205013E+03  0.00000000000E+00 0.  1.
         22    1    4    4    0    0 -0.86763017725E+01 -0.26746658181E+01 -0.89886221632E+02  0.90343593514E+02  0.00000000000E+00 0.  1.
         22    1    4    4    0    0 -0.30085864875E+02  0.61733306156E+00 -0.57488999673E+03  0.57567703507E+03  0.00000000000E+00 0.  1.
<mgrwt>
<rscale>  0 0.91895759E+02</rscale>
<asrwt>0</asrwt>
<pdfrwt beam="2">  1        3 0.13478944E+00 0.91895759E+02</pdfrwt>
<pdfrwt beam="1">  1       -3 0.37072201E-03 0.91895759E+02</pdfrwt>
<totfact> 0.11150931E+04</totfact>
</mgrwt>
</event>
<event>
 7    1  0.1247599E-009  0.8359439E+02  0.7818608E-02  0.1319150E+00
         -3   -1    0    0    0  501 -0.00000000000E+00  0.00000000000E+00  0.25230106493E+02  0.25230308651E+02  0.10100000000E+00 0.  1.
          3   -1    0    0  501    0  0.00000000000E+00 -0.00000000000E+00 -0.69242374100E+02  0.69242447761E+02  0.10100000000E+00 0. -1.
         23    2    1    2    0    0  0.00000000000E+00  0.35527136788E-14 -0.44012267607E+02  0.94472756412E+02  0.83594389789E+02 0.  0.
    9000005    2    3    3    0    0 -0.19259313987E+02  0.31431210108E+02 -0.42459683026E+02  0.57577598695E+02  0.12390038126E+02 0.  0.
         22    1    3    3    0    0  0.19259313987E+02 -0.31431210108E+02 -0.15525845812E+01  0.36895157717E+02  0.00000000000E+00 0.  1.
         22    1    4    4    0    0 -0.91772817918E+00  0.79139637791E+01 -0.40166006212E+01  0.89222266424E+01  0.00000000000E+00 0. -1.
         22    1    4    4    0    0 -0.18341585808E+02  0.23517246328E+02 -0.38443082405E+02  0.48655372053E+02  0.00000000000E+00 0. -1.
<mgrwt>
<rscale>  0 0.83594390E+02</rscale>
<asrwt>0</asrwt>
<pdfrwt beam="2">  1        3 0.10652694E-01 0.83594390E+02</pdfrwt>
<pdfrwt beam="1">  1       -3 0.38815761E-02 0.83594390E+02</pdfrwt>
<totfact> 0.44377123E+04</totfact>
</mgrwt>
</event>
<event>
 7    1  0.1247599E-009  0.8698384E+02  0.7818608E-02  0.1310325E+00
         -3   -1    0    0    0  501 -0.00000000000E+00  0.00000000000E+00  0.18524527978E+02  0.18524803314E+02  0.10100000000E+00 0.  1.
          3   -1    0    0  501    0  0.00000000000E+00 -0.00000000000E+00 -0.10210935376E+03  0.10210940371E+03  0.10100000000E+00 0. -1.
         23    2    1    2    0    0  0.00000000000E+00 -0.17763568394E-14 -0.83584825777E+02  0.12063420702E+03  0.86983842197E+02 0.  0.
    9000005    2    3    3    0    0  0.22230045678E+02 -0.15072677420E+02  0.44024340635E+01  0.28638998288E+02  0.89134876349E+01 0.  0.
         22    1    3    3    0    0 -0.22230045678E+02  0.15072677420E+02 -0.87987259841E+02  0.91995208732E+02  0.00000000000E+00 0. -1.
         22    1    4    4    0    0  0.16220392188E+02 -0.15251375887E+02  0.39249267568E+01  0.22607756174E+02  0.00000000000E+00 0.  1.
         22    1    4    4    0    0  0.60096534899E+01  0.17869846700E+00  0.47750730672E+00  0.60312421141E+01  0.00000000000E+00 0.  1.
<mgrwt>
<rscale>  0 0.86983842E+02</rscale>
<asrwt>0</asrwt>
<pdfrwt beam="2">  1        3 0.15709156E-01 0.86983842E+02</pdfrwt>
<pdfrwt beam="1">  1       -3 0.28499525E-02 0.86983842E+02</pdfrwt>
<totfact> 0.37710745E+04</totfact>
</mgrwt>
</event>
<event>
 7    1  0.1247599E-009  0.9096377E+02  0.7818608E-02  0.1300534E+00
         -3   -1    0    0    0  501 -0.00000000000E+00  0.00000000000E+00  0.15256425076E+02  0.15256759390E+02  0.10100000000E+00 0.  1.
          3   -1    0    0  501    0  0.00000000000E+00 -0.00000000000E+00 -0.13558704543E+03  0.13558708304E+03  0.10100000000E+00 0. -1.
         23    2    1    2    0    0  0.00000000000E+00  0.00000000000E+00 -0.12033062035E+03  0.15084384243E+03  0.90963765348E+02 0.  0.
    9000005    2    3    3    0    0  0.34454970984E+02  0.22044122737E+02 -0.89831781239E+02  0.99821616298E+02  0.14883473621E+02 0.  0.
         22    1    3    3    0    0 -0.34454970984E+02 -0.22044122737E+02 -0.30498839111E+02  0.51022226136E+02  0.00000000000E+00 0.  1.
         22    1    4    4    0    0  0.31467231311E+02  0.15940165691E+02 -0.63635561274E+02  0.72758231063E+02  0.00000000000E+00 0.  1.
         22    1    4    4    0    0  0.29877396729E+01  0.61039570452E+01 -0.26196219965E+02  0.27063385235E+02  0.00000000000E+00 0.  1.
<mgrwt>
<rscale>  0 0.90963765E+02</rscale>
<asrwt>0</asrwt>
<pdfrwt beam="2">  1        3 0.20859573E-01 0.90963765E+02</pdfrwt>
<pdfrwt beam="1">  1       -3 0.23471710E-02 0.90963765E+02</pdfrwt>
<totfact> 0.31454195E+04</totfact>
</mgrwt>
</event>
<event>
 7    1  0.1247599E-009  0.8783123E+02  0.7818608E-02  0.1308190E+00
          3   -1    0    0  501    0  0.00000000000E+00  0.00000000000E+00  0.59343018913E+02  0.59343104862E+02  0.10100000000E+00 0. -1.
         -3   -1    0    0    0  501 -0.00000000000E+00 -0.00000000000E+00 -0.32498686676E+02  0.32498843620E+02  0.10100000000E+00 0.  1.
         23    2    1    2    0    0  0.35527136788E-14 -0.71054273576E-14  0.26844332237E+02  0.91841948482E+02  0.87831232075E+02 0.  0.
    9000005    2    3    3    0    0 -0.25417961014E+02  0.35331688574E+02  0.11675658426E+02  0.45749762324E+02  0.78942253227E+01 0.  0.
         22    1    3    3    0    0  0.25417961014E+02 -0.35331688574E+02  0.15168673811E+02  0.46092186158E+02  0.00000000000E+00 0.  1.
         22    1    4    4    0    0 -0.14268104821E+02  0.19560007500E+02  0.10527484260E+02  0.26400769561E+02  0.00000000000E+00 0. -1.
         22    1    4    4    0    0 -0.11149856193E+02  0.15771681074E+02  0.11481741661E+01  0.19348992763E+02  0.00000000000E+00 0. -1.
<mgrwt>
<rscale>  0 0.87831232E+02</rscale>
<asrwt>0</asrwt>
<pdfrwt beam="1">  1        3 0.91297139E-02 0.87831232E+02</pdfrwt>
<pdfrwt beam="2">  1       -3 0.49998166E-02 0.87831232E+02</pdfrwt>
<totfact> 0.39055856E+04</totfact>
</mgrwt>
</event>
<event>
 7    1  0.1247599E-009  0.9199181E+02  0.7818608E-02  0.1298099E+00
         -3   -1    0    0    0  501 -0.00000000000E+00  0.00000000000E+00  0.75586304821E+02  0.75586372300E+02  0.10100000000E+00 0.  1.
          3   -1    0    0  501    0  0.00000000000E+00 -0.00000000000E+00 -0.27989335617E+02  0.27989517847E+02  0.10100000000E+00 0. -1.
         23    2    1    2    0    0  0.00000000000E+00  0.44408920985E-15  0.47596969204E+02  0.10357589015E+03  0.91991812366E+02 0.  0.
    9000005    2    3    3    0    0 -0.34373846320E+02  0.34512310281E+01 -0.74751313449E+01  0.38565055932E+02  0.15424449551E+02 0.  0.
         22    1    3    3    0    0  0.34373846320E+02 -0.34512310281E+01  0.55072100549E+02  0.65010834215E+02  0.00000000000E+00 0.  1.
         22    1    4    4    0    0 -0.35477187932E+02  0.45314008347E+01 -0.57074109451E+01  0.36217937500E+02  0.00000000000E+00 0. -1.
         22    1    4    4    0    0  0.11033416113E+01 -0.10801698066E+01 -0.17677203997E+01  0.23471184320E+01  0.00000000000E+00 0. -1.
<mgrwt>
<rscale>  0 0.91991812E+02</rscale>
<asrwt>0</asrwt>
<pdfrwt beam="2">  1        3 0.43060708E-02 0.91991812E+02</pdfrwt>
<pdfrwt beam="1">  1       -3 0.11628682E-01 0.91991812E+02</pdfrwt>
<totfact> 0.33584697E+04</totfact>
</mgrwt>
</event>
<event>
 7    1  0.1247599E-009  0.9169859E+02  0.7818608E-02  0.1298790E+00
          3   -1    0    0  501    0  0.00000000000E+00  0.00000000000E+00  0.78918269795E+02  0.78918334425E+02  0.10100000000E+00 0. -1.
         -3   -1    0    0    0  501 -0.00000000000E+00 -0.00000000000E+00 -0.26636982161E+02  0.26637173643E+02  0.10100000000E+00 0.  1.
         23    2    1    2    0    0  0.00000000000E+00 -0.71054273576E-14  0.52281287633E+02  0.10555550807E+03  0.91698594574E+02 0.  0.
    9000005    2    3    3    0    0  0.78294734710E+01  0.36736366865E+02 -0.13089003054E+01  0.40112635663E+02  0.14016027059E+02 0.  0.
         22    1    3    3    0    0 -0.78294734710E+01 -0.36736366865E+02  0.53590187938E+02  0.65442872405E+02  0.00000000000E+00 0. -1.
         22    1    4    4    0    0 -0.28197926526E+01  0.15725870679E+01  0.74787899600E+00  0.33141490133E+01  0.00000000000E+00 0.  1.
         22    1    4    4    0    0  0.10649266124E+02  0.35163779797E+02 -0.20567793014E+01  0.36798486649E+02  0.00000000000E+00 0.  1.
<mgrwt>
<rscale>  0 0.91698595E+02</rscale>
<asrwt>0</asrwt>
<pdfrwt beam="1">  1        3 0.12141292E-01 0.91698595E+02</pdfrwt>
<pdfrwt beam="2">  1       -3 0.40980170E-02 0.91698595E+02</pdfrwt>
<totfact> 0.33735337E+04</totfact>
</mgrwt>
</event>
<event>
 7    1  0.1247599E-009  0.9225940E+02  0.7818608E-02  0.1297471E+00
          3   -1    0    0  501    0  0.00000000000E+00  0.00000000000E+00  0.13205899063E+02  0.13206285286E+02  0.10100000000E+00 0. -1.
         -3   -1    0    0    0  501 -0.00000000000E+00 -0.00000000000E+00 -0.16113350070E+03  0.16113353235E+03  0.10100000000E+00 0.  1.
         23    2    1    2    0    0  0.00000000000E+00  0.00000000000E+00 -0.14792760163E+03  0.17433981764E+03  0.92259398916E+02 0.  0.
    9000005    2    3    3    0    0  0.19530824547E+02 -0.40442802117E+02 -0.82858019762E+02  0.95275768692E+02  0.13962353326E+02 0.  0.
         22    1    3    3    0    0 -0.19530824547E+02  0.40442802117E+02 -0.65069581872E+02  0.79064048944E+02  0.00000000000E+00 0.  1.
         22    1    4    4    0    0  0.18707329936E+02 -0.31668098850E+02 -0.74709842434E+02  0.83273004237E+02  0.00000000000E+00 0.  1.
         22    1    4    4    0    0  0.82349461119E+00 -0.87747032669E+01 -0.81481773282E+01  0.12002764455E+02  0.00000000000E+00 0.  1.
<mgrwt>
<rscale>  0 0.92259399E+02</rscale>
<asrwt>0</asrwt>
<pdfrwt beam="1">  1        3 0.20317090E-02 0.92259399E+02</pdfrwt>
<pdfrwt beam="2">  1       -3 0.24789800E-01 0.92259399E+02</pdfrwt>
<totfact> 0.28940859E+04</totfact>
</mgrwt>
</event>
<event>
 7    1  0.1247599E-009  0.9189417E+02  0.7818608E-02  0.1298328E+00
          3   -1    0    0  501    0  0.00000000000E+00  0.00000000000E+00  0.16517864885E+02  0.16518173669E+02  0.10100000000E+00 0. -1.
         -3   -1    0    0    0  501 -0.00000000000E+00 -0.00000000000E+00 -0.12780765399E+03  0.12780769390E+03  0.10100000000E+00 0.  1.
         23    2    1    2    0    0  0.00000000000E+00  0.00000000000E+00 -0.11128978911E+03  0.14432586757E+03  0.91894172230E+02 0.  0.
    9000005    2    3    3    0    0  0.44060099775E+02 -0.46578956486E+01 -0.73747698691E+02  0.86253525298E+02  0.61611021756E+01 0.  0.
         22    1    3    3    0    0 -0.44060099775E+02  0.46578956486E+01 -0.37542090418E+02  0.58072342273E+02  0.00000000000E+00 0. -1.
         22    1    4    4    0    0  0.69913189326E+00  0.49944606606E+00 -0.54905936311E+00  0.10196558053E+01  0.00000000000E+00 0. -1.
         22    1    4    4    0    0  0.43360967882E+02 -0.51573417147E+01 -0.73198639328E+02  0.85233869493E+02  0.00000000000E+00 0. -1.
<mgrwt>
<rscale>  0 0.91894172E+02</rscale>
<asrwt>0</asrwt>
<pdfrwt beam="1">  1        3 0.25412369E-02 0.91894172E+02</pdfrwt>
<pdfrwt beam="2">  1       -3 0.19662742E-01 0.91894172E+02</pdfrwt>
<totfact> 0.30992587E+04</totfact>
</mgrwt>
</event>
<event>
 7    1  0.1247599E-009  0.9020634E+02  0.7818608E-02  0.1302353E+00
         -3   -1    0    0    0  501 -0.00000000000E+00  0.00000000000E+00  0.51584704593E+02  0.51584803469E+02  0.10100000000E+00 0.  1.
          3   -1    0    0  501    0  0.00000000000E+00 -0.00000000000E+00 -0.39435824925E+02  0.39435954262E+02  0.10100000000E+00 0. -1.
         23    2    1    2    0    0  0.00000000000E+00  0.00000000000E+00  0.12148879668E+02  0.91020757730E+02  0.90206336034E+02 0.  0.
    9000005    2    3    3    0    0 -0.11900266753E+02 -0.21095254197E+01  0.49898344555E+02  0.51383798393E+02  0.20936813746E+01 0.  0.
         22    1    3    3    0    0  0.11900266753E+02  0.21095254197E+01 -0.37749464887E+02  0.39636959338E+02  0.00000000000E+00 0. -1.
         22    1    4    4    0    0 -0.11505750643E+02 -0.17548659238E+01  0.46002236186E+02  0.47451739550E+02  0.00000000000E+00 0. -1.
         22    1    4    4    0    0 -0.39451611039E+00 -0.35465949589E+00  0.38961083688E+01  0.39320588424E+01  0.00000000000E+00 0. -1.
<mgrwt>
<rscale>  0 0.90206336E+02</rscale>
<asrwt>0</asrwt>
<pdfrwt beam="2">  1        3 0.60670675E-02 0.90206336E+02</pdfrwt>
<pdfrwt beam="1">  1       -3 0.79361260E-02 0.90206336E+02</pdfrwt>
<totfact> 0.36395335E+04</totfact>
</mgrwt>
</event>
<event>
 7    1  0.1247599E-009  0.9223450E+02  0.7818608E-02  0.1297529E+00
          3   -1    0    0  501    0  0.00000000000E+00  0.00000000000E+00  0.97332798052E+02  0.97332850454E+02  0.10100000000E+00 0. -1.
         -3   -1    0    0    0  501 -0.00000000000E+00 -0.00000000000E+00 -0.21850637415E+02  0.21850870840E+02  0.10100000000E+00 0.  1.
         23    2    1    2    0    0  0.00000000000E+00  0.00000000000E+00  0.75482160636E+02  0.11918372129E+03  0.92234499225E+02 0.  0.
    9000005    2    3    3    0    0  0.26632570558E+02  0.48756341771E+01 -0.72530569450E+01  0.32130968027E+02  0.15707534757E+02 0.  0.
         22    1    3    3    0    0 -0.26632570558E+02 -0.48756341771E+01  0.82735217581E+02  0.87052753267E+02  0.00000000000E+00 0. -1.
         22    1    4    4    0    0  0.11678794948E+02  0.43256751086E+01  0.43538272157E+01  0.13193237965E+02  0.00000000000E+00 0.  1.
         22    1    4    4    0    0  0.14953775610E+02  0.54995906848E+00 -0.11606884161E+02  0.18937730062E+02  0.00000000000E+00 0.  1.
<mgrwt>
<rscale>  0 0.92234499E+02</rscale>
<asrwt>0</asrwt>
<pdfrwt beam="1">  1        3 0.14974298E-01 0.92234499E+02</pdfrwt>
<pdfrwt beam="2">  1       -3 0.33616586E-02 0.92234499E+02</pdfrwt>
<totfact> 0.32272856E+04</totfact>
</mgrwt>
</event>
<event>
 7    1  0.1247599E-009  0.8858690E+02  0.7818608E-02  0.1306310E+00
         -3   -1    0    0    0  501 -0.00000000000E+00  0.00000000000E+00  0.52120858140E+01  0.52130643131E+01  0.10100000000E+00 0.  1.
          3   -1    0    0  501    0  0.00000000000E+00 -0.00000000000E+00 -0.37637916195E+03  0.37637917550E+03  0.10100000000E+00 0. -1.
         23    2    1    2    0    0  0.17763568394E-14  0.35527136788E-14 -0.37116707614E+03  0.38159223981E+03  0.88586901286E+02 0.  0.
    9000005    2    3    3    0    0  0.11932195457E+02  0.26817469614E+02 -0.32741634005E+03  0.32890750889E+03  0.10822924965E+02 0.  0.
         22    1    3    3    0    0 -0.11932195457E+02 -0.26817469614E+02 -0.43750736082E+02  0.52684730925E+02  0.00000000000E+00 0.  1.
         22    1    4    4    0    0  0.14349007664E+01  0.41512745203E+00 -0.53637256640E+02  0.53658052247E+02  0.00000000000E+00 0. -1.
         22    1    4    4    0    0  0.10497294691E+02  0.26402342162E+02 -0.27377908341E+03  0.27524945664E+03  0.00000000000E+00 0. -1.
<mgrwt>
<rscale>  0 0.88586901E+02</rscale>
<asrwt>0</asrwt>
<pdfrwt beam="2">  1        3 0.57904541E-01 0.88586901E+02</pdfrwt>
<pdfrwt beam="1">  1       -3 0.80193596E-03 0.88586901E+02</pdfrwt>
<totfact> 0.22875776E+04</totfact>
</mgrwt>
</event>
<event>
 7    1  0.1247599E-009  0.9382341E+02  0.7818608E-02  0.1293848E+00
         -3   -1    0    0    0  501 -0.00000000000E+00  0.00000000000E+00  0.70879558281E+02  0.70879630241E+02  0.10100000000E+00 0.  1.
          3   -1    0    0  501    0  0.00000000000E+00 -0.00000000000E+00 -0.31048388593E+02  0.31048552868E+02  0.10100000000E+00 0. -1.
         23    2    1    2    0    0  0.17763568394E-14  0.00000000000E+00  0.39831169688E+02  0.10192818311E+03  0.93823410902E+02 0.  0.
    9000005    2    3    3    0    0 -0.12404748426E+02  0.21741137059E+02 -0.21840254221E+02  0.35370543795E+02  0.12145939229E+02 0.  0.
         22    1    3    3    0    0  0.12404748426E+02 -0.21741137059E+02  0.61671423910E+02  0.66557639315E+02  0.00000000000E+00 0.  1.
         22    1    4    4    0    0 -0.79278679437E+01  0.18837051462E+02 -0.22004935544E+02  0.30031696359E+02  0.00000000000E+00 0.  1.
         22    1    4    4    0    0 -0.44768804822E+01  0.29040855964E+01  0.16468132213E+00  0.53388474356E+01  0.00000000000E+00 0.  1.
<mgrwt>
<rscale>  0 0.93823411E+02</rscale>
<asrwt>0</asrwt>
<pdfrwt beam="2">  1        3 0.47766934E-02 0.93823411E+02</pdfrwt>
<pdfrwt beam="1">  1       -3 0.10904566E-01 0.93823411E+02</pdfrwt>
<totfact> 0.31935092E+04</totfact>
</mgrwt>
</event>
<event>
 7    1  0.1247599E-009  0.9021798E+02  0.7818608E-02  0.1302325E+00
          3   -1    0    0  501    0  0.00000000000E+00  0.00000000000E+00  0.21526478765E+02  0.21526715704E+02  0.10100000000E+00 0. -1.
         -3   -1    0    0    0  501 -0.00000000000E+00 -0.00000000000E+00 -0.94525645804E+02  0.94525699763E+02  0.10100000000E+00 0.  1.
         23    2    1    2    0    0  0.35527136788E-14  0.00000000000E+00 -0.72999167039E+02  0.11605241547E+03  0.90217984611E+02 0.  0.
    9000005    2    3    3    0    0 -0.25189909682E+02  0.35866502028E+02 -0.32352267367E+02  0.56276935792E+02  0.14123978930E+02 0.  0.
         22    1    3    3    0    0  0.25189909682E+02 -0.35866502028E+02 -0.40646899671E+02  0.59775479675E+02  0.00000000000E+00 0. -1.
         22    1    4    4    0    0 -0.90000732659E+01  0.22444668714E+02 -0.22589051839E+02  0.33091233514E+02  0.00000000000E+00 0.  1.
         22    1    4    4    0    0 -0.16189836416E+02  0.13421833314E+02 -0.97632155279E+01  0.23185702278E+02  0.00000000000E+00 0.  1.
<mgrwt>
<rscale>  0 0.90217985E+02</rscale>
<asrwt>0</asrwt>
<pdfrwt beam="1">  1        3 0.33117884E-02 0.90217985E+02</pdfrwt>
<pdfrwt beam="2">  1       -3 0.14542429E-01 0.90217985E+02</pdfrwt>
<totfact> 0.34495155E+04</totfact>
</mgrwt>
</event>
<event>
 7    1  0.1247599E-009  0.9305910E+02  0.7818608E-02  0.1295608E+00
         -3   -1    0    0    0  501 -0.00000000000E+00  0.00000000000E+00  0.31318944822E+02  0.31319107678E+02  0.10100000000E+00 0.  1.
          3   -1    0    0  501    0  0.00000000000E+00 -0.00000000000E+00 -0.69127076328E+02  0.69127150112E+02  0.10100000000E+00 0. -1.
         23    2    1    2    0    0  0.00000000000E+00  0.00000000000E+00 -0.37808131506E+02  0.10044625779E+03  0.93059098943E+02 0.  0.
    9000005    2    3    3    0    0 -0.33377223230E+02  0.30508104996E+02 -0.18968780552E+02  0.51459477478E+02  0.15603835609E+02 0.  0.
         22    1    3    3    0    0  0.33377223230E+02 -0.30508104996E+02 -0.18839350954E+02  0.48986780312E+02  0.00000000000E+00 0. -1.
         22    1    4    4    0    0  0.12932953290E+01  0.35033502968E+01 -0.26574391329E+01  0.45834549038E+01  0.00000000000E+00 0.  1.
         22    1    4    4    0    0 -0.34670518559E+02  0.27004754699E+02 -0.16311341419E+02  0.46876022574E+02  0.00000000000E+00 0.  1.
<mgrwt>
<rscale>  0 0.93059099E+02</rscale>
<asrwt>0</asrwt>
<pdfrwt beam="2">  1        3 0.10634953E-01 0.93059099E+02</pdfrwt>
<pdfrwt beam="1">  1       -3 0.48183174E-02 0.93059099E+02</pdfrwt>
<totfact> 0.32759001E+04</totfact>
</mgrwt>
</event>
<event>
 7    1  0.1247599E-009  0.9128106E+02  0.7818608E-02  0.1299779E+00
         -3   -1    0    0    0  501 -0.00000000000E+00  0.00000000000E+00  0.53883068014E+02  0.53883162672E+02  0.10100000000E+00 0.  1.
          3   -1    0    0  501    0  0.00000000000E+00 -0.00000000000E+00 -0.38658662151E+02  0.38658794088E+02  0.10100000000E+00 0. -1.
         23    2    1    2    0    0  0.00000000000E+00 -0.17763568394E-14  0.15224405862E+02  0.92541956760E+02  0.91281056234E+02 0.  0.
    9000005    2    3    3    0    0 -0.38502783163E+02  0.10089749927E+02  0.28324799431E+02  0.50638643329E+02  0.13330812824E+02 0.  0.
         22    1    3    3    0    0  0.38502783163E+02 -0.10089749927E+02 -0.13100393569E+02  0.41903313431E+02  0.00000000000E+00 0. -1.
         22    1    4    4    0    0 -0.70905171749E+01  0.10090007714E+01 -0.31814704831E+00  0.71690120595E+01  0.00000000000E+00 0.  1.
         22    1    4    4    0    0 -0.31412265988E+02  0.90807491556E+01  0.28642946479E+02  0.43469631270E+02  0.00000000000E+00 0.  1.
<mgrwt>
<rscale>  0 0.91281056E+02</rscale>
<asrwt>0</asrwt>
<pdfrwt beam="2">  1        3 0.59475039E-02 0.91281056E+02</pdfrwt>
<pdfrwt beam="1">  1       -3 0.82897202E-02 0.91281056E+02</pdfrwt>
<totfact> 0.35125015E+04</totfact>
</mgrwt>
</event>
<event>
 7    1  0.1247599E-009  0.9094801E+02  0.7818608E-02  0.1300572E+00
          3   -1    0    0  501    0  0.00000000000E+00  0.00000000000E+00  0.17740866600E+02  0.17741154098E+02  0.10100000000E+00 0. -1.
         -3   -1    0    0    0  501 -0.00000000000E+00 -0.00000000000E+00 -0.11655930184E+03  0.11655934559E+03  0.10100000000E+00 0.  1.
         23    2    1    2    0    0  0.00000000000E+00  0.00000000000E+00 -0.98818435235E+02  0.13430049969E+03  0.90948013036E+02 0.  0.
    9000005    2    3    3    0    0  0.19324269062E+02 -0.72242278711E+01 -0.10889540863E+03  0.11134048585E+03  0.10624355303E+02 0.  0.
         22    1    3    3    0    0 -0.19324269062E+02  0.72242278711E+01  0.10076973390E+02  0.22960013846E+02  0.00000000000E+00 0. -1.
         22    1    4    4    0    0  0.14732175916E+02 -0.21478712179E+00 -0.64533842838E+02  0.66194410732E+02  0.00000000000E+00 0. -1.
         22    1    4    4    0    0  0.45920931457E+01 -0.70094407493E+01 -0.44361565787E+02  0.45146075113E+02  0.00000000000E+00 0. -1.
<mgrwt>
<rscale>  0 0.90948013E+02</rscale>
<asrwt>0</asrwt>
<pdfrwt beam="1">  1        3 0.27293896E-02 0.90948013E+02</pdfrwt>
<pdfrwt beam="2">  1       -3 0.17932225E-01 0.90948013E+02</pdfrwt>
<totfact> 0.32517653E+04</totfact>
</mgrwt>
</event>
<event>
 7    1  0.1247599E-009  0.9037613E+02  0.7818608E-02  0.1301943E+00
         -3   -1    0    0    0  501 -0.00000000000E+00  0.00000000000E+00  0.12516753912E+03  0.12516757987E+03  0.10100000000E+00 0.  1.
          3   -1    0    0  501    0  0.00000000000E+00 -0.00000000000E+00 -0.16313625233E+02  0.16313937883E+02  0.10100000000E+00 0. -1.
         23    2    1    2    0    0  0.00000000000E+00  0.00000000000E+00  0.10885391389E+03  0.14148151775E+03  0.90376132343E+02 0.  0.
    9000005    2    3    3    0    0 -0.24598961096E+02 -0.17286314738E+01  0.11347370279E+03  0.11639288480E+03  0.79325503112E+01 0.  0.
         22    1    3    3    0    0  0.24598961096E+02  0.17286314738E+01 -0.46197889019E+01  0.25088632950E+02  0.00000000000E+00 0. -1.
         22    1    4    4    0    0 -0.14388817346E+02 -0.19654991654E+01  0.82792864713E+02  0.84056883709E+02  0.00000000000E+00 0. -1.
         22    1    4    4    0    0 -0.10210143750E+02  0.23686769156E+00  0.30680838077E+02  0.32336001095E+02  0.00000000000E+00 0. -1.
<mgrwt>
<rscale>  0 0.90376132E+02</rscale>
<asrwt>0</asrwt>
<pdfrwt beam="2">  1        3 0.25098158E-02 0.90376132E+02</pdfrwt>
<pdfrwt beam="1">  1       -3 0.19256571E-01 0.90376132E+02</pdfrwt>
<totfact> 0.32606699E+04</totfact>
</mgrwt>
</event>
<event>
 7    1  0.1247599E-009  0.9133295E+02  0.7818608E-02  0.1299655E+00
         -3   -1    0    0    0  501 -0.00000000000E+00  0.00000000000E+00  0.41727533512E+02  0.41727655746E+02  0.10100000000E+00 0.  1.
          3   -1    0    0  501    0  0.00000000000E+00 -0.00000000000E+00 -0.49976994207E+02  0.49977096264E+02  0.10100000000E+00 0. -1.
         23    2    1    2    0    0  0.00000000000E+00 -0.88817841970E-15 -0.82494606944E+01  0.91704752009E+02  0.91332951005E+02 0.  0.
    9000005    2    3    3    0    0  0.88327907877E+01  0.49608964379E+01  0.39085315120E+02  0.43298040822E+02  0.15634250682E+02 0.  0.
         22    1    3    3    0    0 -0.88327907877E+01 -0.49608964379E+01 -0.47334775815E+02  0.48406711188E+02  0.00000000000E+00 0. -1.
         22    1    4    4    0    0 -0.10658283267E+01  0.74319977629E+00 -0.10967331605E+01  0.17003410113E+01  0.00000000000E+00 0. -1.
         22    1    4    4    0    0  0.98986191143E+01  0.42176966616E+01  0.40182048281E+02  0.41597699811E+02  0.00000000000E+00 0. -1.
<mgrwt>
<rscale>  0 0.91332951E+02</rscale>
<asrwt>0</asrwt>
<pdfrwt beam="2">  1        3 0.76887856E-02 0.91332951E+02</pdfrwt>
<pdfrwt beam="1">  1       -3 0.64196378E-02 0.91332951E+02</pdfrwt>
<totfact> 0.35133695E+04</totfact>
</mgrwt>
</event>
<event>
 7    1  0.1247599E-009  0.9137629E+02  0.7818608E-02  0.1299553E+00
         -3   -1    0    0    0  501 -0.00000000000E+00  0.00000000000E+00  0.21878375555E+02  0.21878608683E+02  0.10100000000E+00 0.  1.
          3   -1    0    0  501    0  0.00000000000E+00 -0.00000000000E+00 -0.95408819908E+02  0.95408873368E+02  0.10100000000E+00 0. -1.
         23    2    1    2    0    0  0.00000000000E+00  0.00000000000E+00 -0.73530444353E+02  0.11728748205E+03  0.91376294514E+02 0.  0.
    9000005    2    3    3    0    0  0.23332242431E+02  0.32102835625E+02 -0.65391138090E+02  0.76775336978E+02  0.65928624465E+01 0.  0.
         22    1    3    3    0    0 -0.23332242431E+02 -0.32102835625E+02 -0.81393062628E+01  0.40512145073E+02  0.00000000000E+00 0.  1.
         22    1    4    4    0    0  0.15024676719E+02  0.15399487841E+02 -0.32925800088E+02  0.39331837584E+02  0.00000000000E+00 0.  1.
         22    1    4    4    0    0  0.83075657121E+01  0.16703347784E+02 -0.32465338002E+02  0.37443499394E+02  0.00000000000E+00 0.  1.
<mgrwt>
<rscale>  0 0.91376295E+02</rscale>
<asrwt>0</asrwt>
<pdfrwt beam="2">  1        3 0.14678302E-01 0.91376295E+02</pdfrwt>
<pdfrwt beam="1">  1       -3 0.33659260E-02 0.91376295E+02</pdfrwt>
<totfact> 0.33234604E+04</totfact>
</mgrwt>
</event>
<event>
 7    1  0.1247599E-009  0.8844778E+02  0.7818608E-02  0.1306655E+00
         -3   -1    0    0    0  501 -0.00000000000E+00  0.00000000000E+00  0.18111716735E+02  0.18111998346E+02  0.10100000000E+00 0.  1.
          3   -1    0    0  501    0  0.00000000000E+00 -0.00000000000E+00 -0.10798158067E+03  0.10798162790E+03  0.10100000000E+00 0. -1.
         23    2    1    2    0    0  0.35527136788E-14  0.00000000000E+00 -0.89869863931E+02  0.12609362625E+03  0.88447781979E+02 0.  0.
    9000005    2    3    3    0    0  0.20051945958E+02  0.36225503778E+02 -0.24220119006E+02  0.48477541127E+02  0.70064376365E+01 0.  0.
         22    1    3    3    0    0 -0.20051945958E+02 -0.36225503778E+02 -0.65649744925E+02  0.77616085120E+02  0.00000000000E+00 0. -1.
         22    1    4    4    0    0  0.16128890521E+01  0.67719989471E+01 -0.20446869376E+01  0.72554893361E+01  0.00000000000E+00 0.  1.
         22    1    4    4    0    0  0.18439056906E+02  0.29453504831E+02 -0.22175432069E+02  0.41222051791E+02  0.00000000000E+00 0.  1.
<mgrwt>
<rscale>  0 0.88447782E+02</rscale>
<asrwt>0</asrwt>
<pdfrwt beam="2">  1        3 0.16612576E-01 0.88447782E+02</pdfrwt>
<pdfrwt beam="1">  1       -3 0.27864433E-02 0.88447782E+02</pdfrwt>
<totfact> 0.35647826E+04</totfact>
</mgrwt>
</event>
<event>
 7    1  0.1247599E-009  0.9269411E+02  0.7818608E-02  0.1296456E+00
         -3   -1    0    0    0  501 -0.00000000000E+00  0.00000000000E+00  0.47425796551E+03  0.47425797627E+03  0.10100000000E+00 0.  1.
          3   -1    0    0  501    0  0.00000000000E+00 -0.00000000000E+00 -0.45287115748E+01  0.45298376933E+01  0.10100000000E+00 0. -1.
         23    2    1    2    0    0  0.00000000000E+00  0.00000000000E+00  0.46972925394E+03  0.47878781396E+03  0.92694114118E+02 0.  0.
    9000005    2    3    3    0    0 -0.55983449859E+01  0.16720711510E+02  0.45569596727E+03  0.45625213570E+03  0.14009749665E+02 0.  0.
         22    1    3    3    0    0  0.55983449859E+01 -0.16720711510E+02  0.14033286671E+02  0.22535678263E+02  0.00000000000E+00 0. -1.
         22    1    4    4    0    0 -0.73930604059E+01  0.64296156765E+01  0.32186048698E+03  0.32200958119E+03  0.00000000000E+00 0.  1.
         22    1    4    4    0    0  0.17947154200E+01  0.10291095833E+02  0.13383548028E+03  0.13424255450E+03  0.00000000000E+00 0.  1.
<mgrwt>
<rscale>  0 0.92694114E+02</rscale>
<asrwt>0</asrwt>
<pdfrwt beam="2">  1        3 0.69681216E-03 0.92694114E+02</pdfrwt>
<pdfrwt beam="1">  1       -3 0.72962867E-01 0.92694114E+02</pdfrwt>
<totfact> 0.17621937E+04</totfact>
</mgrwt>
</event>
<event>
 7    1  0.1247599E-009  0.8949165E+02  0.7818608E-02  0.1304087E+00
          3   -1    0    0  501    0  0.00000000000E+00  0.00000000000E+00  0.11829764146E+02  0.11830195296E+02  0.10100000000E+00 0. -1.
         -3   -1    0    0    0  501 -0.00000000000E+00 -0.00000000000E+00 -0.16924655846E+03  0.16924658860E+03  0.10100000000E+00 0.  1.
         23    2    1    2    0    0  0.00000000000E+00  0.00000000000E+00 -0.15741679431E+03  0.18107678389E+03  0.89491645045E+02 0.  0.
    9000005    2    3    3    0    0  0.39089031014E+02  0.60560096814E+01 -0.11996799139E+03  0.12660623736E+03  0.84966335837E+01 0.  0.
         22    1    3    3    0    0 -0.39089031014E+02 -0.60560096814E+01 -0.37448802926E+02  0.54470546532E+02  0.00000000000E+00 0. -1.
         22    1    4    4    0    0  0.71514598851E+01  0.41877575164E+01 -0.29801077818E+02  0.30931940298E+02  0.00000000000E+00 0.  1.
         22    1    4    4    0    0  0.31937571129E+02  0.18682521650E+01 -0.90166913569E+02  0.95674297062E+02  0.00000000000E+00 0.  1.
<mgrwt>
<rscale>  0 0.89491645E+02</rscale>
<asrwt>0</asrwt>
<pdfrwt beam="1">  1        3 0.18199993E-02 0.89491645E+02</pdfrwt>
<pdfrwt beam="2">  1       -3 0.26037966E-01 0.89491645E+02</pdfrwt>
<totfact> 0.31027925E+04</totfact>
</mgrwt>
</event>
<event>
 7    1  0.1247599E-009  0.9276748E+02  0.7818608E-02  0.1296285E+00
          3   -1    0    0  501    0  0.00000000000E+00  0.00000000000E+00  0.40537500544E+02  0.40537626365E+02  0.10100000000E+00 0. -1.
         -3   -1    0    0    0  501 -0.00000000000E+00 -0.00000000000E+00 -0.53072855622E+02  0.53072951725E+02  0.10100000000E+00 0.  1.
         23    2    1    2    0    0 -0.35527136788E-14  0.00000000000E+00 -0.12535355078E+02  0.93610578090E+02  0.92767479234E+02 0.  0.
    9000005    2    3    3    0    0 -0.26420834836E+02 -0.36574185149E+02 -0.16079898701E+02  0.48352481331E+02  0.66081597953E+01 0.  0.
         22    1    3    3    0    0  0.26420834836E+02  0.36574185149E+02  0.35445436230E+01  0.45258096759E+02  0.00000000000E+00 0. -1.
         22    1    4    4    0    0 -0.22077953010E+02 -0.30451859566E+02 -0.10661785478E+02  0.39095081913E+02  0.00000000000E+00 0.  1.
         22    1    4    4    0    0 -0.43428818256E+01 -0.61223255830E+01 -0.54181132234E+01  0.92573994187E+01  0.00000000000E+00 0.  1.
<mgrwt>
<rscale>  0 0.92767479E+02</rscale>
<asrwt>0</asrwt>
<pdfrwt beam="1">  1        3 0.62365556E-02 0.92767479E+02</pdfrwt>
<pdfrwt beam="2">  1       -3 0.81650718E-02 0.92767479E+02</pdfrwt>
<totfact> 0.33531220E+04</totfact>
</mgrwt>
</event>
<event>
 7    1  0.1247599E-009  0.8995403E+02  0.7818608E-02  0.1302963E+00
          3   -1    0    0  501    0  0.00000000000E+00  0.00000000000E+00  0.75333075720E+01  0.75339846015E+01  0.10100000000E+00 0. -1.
         -3   -1    0    0    0  501 -0.00000000000E+00 -0.00000000000E+00 -0.26851895687E+03  0.26851897586E+03  0.10100000000E+00 0.  1.
         23    2    1    2    0    0  0.00000000000E+00  0.00000000000E+00 -0.26098564930E+03  0.27605296047E+03  0.89954031832E+02 0.  0.
    9000005    2    3    3    0    0 -0.14762821095E+02 -0.34610860417E+02 -0.65112195524E+02  0.76598047168E+02  0.14553703259E+02 0.  0.
         22    1    3    3    0    0  0.14762821095E+02  0.34610860417E+02 -0.19587345377E+03  0.19945491330E+03  0.00000000000E+00 0.  1.
         22    1    4    4    0    0 -0.40751721491E+01 -0.50928962572E+00 -0.36159461073E+01  0.54718799529E+01  0.00000000000E+00 0. -1.
         22    1    4    4    0    0 -0.10687648946E+02 -0.34101570791E+02 -0.61496249416E+02  0.71126167215E+02  0.00000000000E+00 0. -1.
<mgrwt>
<rscale>  0 0.89954032E+02</rscale>
<asrwt>0</asrwt>
<pdfrwt beam="1">  1        3 0.11590241E-02 0.89954032E+02</pdfrwt>
<pdfrwt beam="2">  1       -3 0.41310655E-01 0.89954032E+02</pdfrwt>
<totfact> 0.25903289E+04</totfact>
</mgrwt>
</event>
<event>
 7    1  0.1247599E-009  0.9128028E+02  0.7818608E-02  0.1299781E+00
         -3   -1    0    0    0  501 -0.00000000000E+00  0.00000000000E+00  0.14559919013E+03  0.14559922516E+03  0.10100000000E+00 0.  1.
          3   -1    0    0  501    0  0.00000000000E+00 -0.00000000000E+00 -0.14306337384E+02  0.14306693900E+02  0.10100000000E+00 0. -1.
         23    2    1    2    0    0  0.00000000000E+00  0.00000000000E+00  0.13129285275E+03  0.15990591906E+03  0.91280281380E+02 0.  0.
    9000005    2    3    3    0    0  0.24625150051E+02  0.35233005860E+02  0.87052397738E+02  0.98221394453E+02  0.14884880225E+02 0.  0.
         22    1    3    3    0    0 -0.24625150051E+02 -0.35233005860E+02  0.44240455010E+02  0.61684524611E+02  0.00000000000E+00 0. -1.
         22    1    4    4    0    0  0.16315831446E+02  0.13860046941E+02  0.53073747999E+02  0.57228751372E+02  0.00000000000E+00 0.  1.
         22    1    4    4    0    0  0.83093186053E+01  0.21372958919E+02  0.33978649739E+02  0.40992643080E+02  0.00000000000E+00 0.  1.
<mgrwt>
<rscale>  0 0.91280281E+02</rscale>
<asrwt>0</asrwt>
<pdfrwt beam="2">  1        3 0.22010051E-02 0.91280281E+02</pdfrwt>
<pdfrwt beam="1">  1       -3 0.22399906E-01 0.91280281E+02</pdfrwt>
<totfact> 0.30618293E+04</totfact>
</mgrwt>
</event>
<event>
 7    1  0.1247599E-009  0.9114485E+02  0.7818608E-02  0.1300103E+00
         -3   -1    0    0    0  501 -0.00000000000E+00  0.00000000000E+00  0.22819602151E+02  0.22819825664E+02  0.10100000000E+00 0.  1.
          3   -1    0    0  501    0  0.00000000000E+00 -0.00000000000E+00 -0.91010786292E+02  0.91010842334E+02  0.10100000000E+00 0. -1.
         23    2    1    2    0    0  0.00000000000E+00  0.00000000000E+00 -0.68191184140E+02  0.11383066800E+03  0.91144848360E+02 0.  0.
    9000005    2    3    3    0    0  0.42926581902E+02 -0.12208003458E+02 -0.39169547018E+02  0.60595508532E+02  0.12076235276E+02 0.  0.
         22    1    3    3    0    0 -0.42926581902E+02  0.12208003458E+02 -0.29021637122E+02  0.53235159467E+02  0.00000000000E+00 0.  1.
         22    1    4    4    0    0  0.21152261376E+02 -0.83157204371E+01 -0.27197516359E+02  0.35443959482E+02  0.00000000000E+00 0.  1.
         22    1    4    4    0    0  0.21774320526E+02 -0.38922830206E+01 -0.11972030659E+02  0.25151549050E+02  0.00000000000E+00 0.  1.
<mgrwt>
<rscale>  0 0.91144848E+02</rscale>
<asrwt>0</asrwt>
<pdfrwt beam="2">  1        3 0.14001681E-01 0.91144848E+02</pdfrwt>
<pdfrwt beam="1">  1       -3 0.35107296E-02 0.91144848E+02</pdfrwt>
<totfact> 0.33705849E+04</totfact>
</mgrwt>
</event>
<event>
 7    1  0.1247599E-009  0.9289446E+02  0.7818608E-02  0.1295990E+00
         -3   -1    0    0    0  501 -0.00000000000E+00  0.00000000000E+00  0.10855762237E+02  0.10856232069E+02  0.10100000000E+00 0.  1.
          3   -1    0    0  501    0  0.00000000000E+00 -0.00000000000E+00 -0.19872332120E+03  0.19872334687E+03  0.10100000000E+00 0. -1.
         23    2    1    2    0    0  0.00000000000E+00  0.17763568394E-14 -0.18786755897E+03  0.20957957894E+03  0.92894457294E+02 0.  0.
    9000005    2    3    3    0    0 -0.32049078145E+02  0.13770505261E+02 -0.29416872473E+02  0.47334732255E+02  0.12587861871E+02 0.  0.
         22    1    3    3    0    0  0.32049078145E+02 -0.13770505261E+02 -0.15845068649E+03  0.16224484668E+03  0.00000000000E+00 0. -1.
         22    1    4    4    0    0 -0.31416553467E+02  0.14451065815E+02 -0.30355506645E+02  0.46014018719E+02  0.00000000000E+00 0. -1.
         22    1    4    4    0    0 -0.63252467779E+00 -0.68056055460E+00  0.93863417197E+00  0.13207135364E+01  0.00000000000E+00 0. -1.
<mgrwt>
<rscale>  0 0.92894457E+02</rscale>
<asrwt>0</asrwt>
<pdfrwt beam="2">  1        3 0.30572854E-01 0.92894457E+02</pdfrwt>
<pdfrwt beam="1">  1       -3 0.16701555E-02 0.92894457E+02</pdfrwt>
<totfact> 0.26632732E+04</totfact>
</mgrwt>
</event>
<event>
 7    1  0.1247599E-009  0.8387513E+02  0.7818608E-02  0.1318401E+00
         -3   -1    0    0    0  501 -0.00000000000E+00  0.00000000000E+00  0.53503490837E+02  0.53503586167E+02  0.10100000000E+00 0.  1.
          3   -1    0    0  501    0  0.00000000000E+00 -0.00000000000E+00 -0.32871663527E+02  0.32871818690E+02  0.10100000000E+00 0. -1.
         23    2    1    2    0    0  0.00000000000E+00  0.00000000000E+00  0.20631827310E+02  0.86375404857E+02  0.83875134969E+02 0.  0.
    9000005    2    3    3    0    0 -0.95605989828E+01  0.25289467535E+02  0.41981070134E+02  0.51926132147E+02  0.14246077672E+02 0.  0.
         22    1    3    3    0    0  0.95605989828E+01 -0.25289467535E+02 -0.21349242824E+02  0.34449272710E+02  0.00000000000E+00 0. -1.
         22    1    4    4    0    0 -0.10073263997E+02  0.70975489084E+01  0.15684436767E+02  0.19946112522E+02  0.00000000000E+00 0.  1.
         22    1    4    4    0    0  0.51266501440E+00  0.18191918627E+02  0.26296633367E+02  0.31980019624E+02  0.00000000000E+00 0.  1.
<mgrwt>
<rscale>  0 0.83875135E+02</rscale>
<asrwt>0</asrwt>
<pdfrwt beam="2">  1        3 0.50571983E-02 0.83875135E+02</pdfrwt>
<pdfrwt beam="1">  1       -3 0.82313255E-02 0.83875135E+02</pdfrwt>
<totfact> 0.44774530E+04</totfact>
</mgrwt>
</event>
<event>
 7    1  0.1247599E-009  0.9023734E+02  0.7818608E-02  0.1302278E+00
          3   -1    0    0  501    0  0.00000000000E+00  0.00000000000E+00  0.74265792172E+02  0.74265860851E+02  0.10100000000E+00 0. -1.
         -3   -1    0    0    0  501 -0.00000000000E+00 -0.00000000000E+00 -0.27410752168E+02  0.27410938244E+02  0.10100000000E+00 0.  1.
         23    2    1    2    0    0  0.00000000000E+00  0.00000000000E+00  0.46855040004E+02  0.10167679909E+03  0.90237335402E+02 0.  0.
    9000005    2    3    3    0    0  0.20064023791E+02 -0.24736404554E+02 -0.11151988670E+02  0.35500744993E+02  0.11021854781E+02 0.  0.
         22    1    3    3    0    0 -0.20064023791E+02  0.24736404554E+02  0.58007028673E+02  0.66176054102E+02  0.00000000000E+00 0. -1.
         22    1    4    4    0    0  0.15506580944E+02 -0.18743385311E+02 -0.31764508589E+01  0.24532802235E+02  0.00000000000E+00 0. -1.
         22    1    4    4    0    0  0.45574428475E+01 -0.59930192436E+01 -0.79755378107E+01  0.10967942758E+02  0.00000000000E+00 0. -1.
<mgrwt>
<rscale>  0 0.90237335E+02</rscale>
<asrwt>0</asrwt>
<pdfrwt beam="1">  1        3 0.11425526E-01 0.90237335E+02</pdfrwt>
<pdfrwt beam="2">  1       -3 0.42170583E-02 0.90237335E+02</pdfrwt>
<totfact> 0.35533092E+04</totfact>
</mgrwt>
</event>
<event>
 7    1  0.1247599E-009  0.9065573E+02  0.7818608E-02  0.1301271E+00
          3   -1    0    0  501    0  0.00000000000E+00  0.00000000000E+00  0.32277924456E+02  0.32278082474E+02  0.10100000000E+00 0. -1.
         -3   -1    0    0    0  501 -0.00000000000E+00 -0.00000000000E+00 -0.63653535507E+02  0.63653615636E+02  0.10100000000E+00 0.  1.
         23    2    1    2    0    0 -0.35527136788E-14  0.00000000000E+00 -0.31375611051E+02  0.95931698111E+02  0.90655731940E+02 0.  0.
    9000005    2    3    3    0    0 -0.14730523361E+02 -0.30330897764E+02  0.14514820242E+02  0.38985378107E+02  0.13123567420E+02 0.  0.
         22    1    3    3    0    0  0.14730523361E+02  0.30330897764E+02 -0.45890431293E+02  0.56946320003E+02  0.00000000000E+00 0.  1.
         22    1    4    4    0    0 -0.37141031771E+01 -0.21657837879E+02  0.10779138092E+02  0.24475422816E+02  0.00000000000E+00 0. -1.
         22    1    4    4    0    0 -0.11016420184E+02 -0.86730598857E+01  0.37356821499E+01  0.14509955292E+02  0.00000000000E+00 0. -1.
<mgrwt>
<rscale>  0 0.90655732E+02</rscale>
<asrwt>0</asrwt>
<pdfrwt beam="1">  1        3 0.49658528E-02 0.90655732E+02</pdfrwt>
<pdfrwt beam="2">  1       -3 0.97928700E-02 0.90655732E+02</pdfrwt>
<totfact> 0.35526197E+04</totfact>
</mgrwt>
</event>
<event>
 7    1  0.1247599E-009  0.9148724E+02  0.7818608E-02  0.1299290E+00
         -3   -1    0    0    0  501 -0.00000000000E+00  0.00000000000E+00  0.52418065076E+02  0.52418162380E+02  0.10100000000E+00 0.  1.
          3   -1    0    0  501    0  0.00000000000E+00 -0.00000000000E+00 -0.39918838724E+02  0.39918966495E+02  0.10100000000E+00 0. -1.
         23    2    1    2    0    0 -0.35527136788E-14  0.00000000000E+00  0.12499226352E+02  0.92337128875E+02  0.91487237960E+02 0.  0.
    9000005    2    3    3    0    0  0.28848261041E+02 -0.18712524617E+02 -0.22527438099E+02  0.43253038120E+02  0.13452103801E+02 0.  0.
         22    1    3    3    0    0 -0.28848261041E+02  0.18712524617E+02  0.35026664452E+02  0.49084090755E+02  0.00000000000E+00 0.  1.
         22    1    4    4    0    0  0.20663742267E+02 -0.13968211610E+02 -0.22794767114E+02  0.33789089776E+02  0.00000000000E+00 0.  1.
         22    1    4    4    0    0  0.81845187741E+01 -0.47443130067E+01  0.26732901484E+00  0.94639483447E+01  0.00000000000E+00 0.  1.
<mgrwt>
<rscale>  0 0.91487238E+02</rscale>
<asrwt>0</asrwt>
<pdfrwt beam="2">  1        3 0.61413771E-02 0.91487238E+02</pdfrwt>
<pdfrwt beam="1">  1       -3 0.80643350E-02 0.91487238E+02</pdfrwt>
<totfact> 0.34924928E+04</totfact>
</mgrwt>
</event>
<event>
 7    1  0.1247599E-009  0.9211689E+02  0.7818608E-02  0.1297805E+00
          3   -1    0    0  501    0  0.00000000000E+00  0.00000000000E+00  0.61009515240E+02  0.61009598842E+02  0.10100000000E+00 0. -1.
         -3   -1    0    0    0  501 -0.00000000000E+00 -0.00000000000E+00 -0.34771122258E+02  0.34771268945E+02  0.10100000000E+00 0.  1.
         23    2    1    2    0    0  0.00000000000E+00  0.00000000000E+00  0.26238392982E+02  0.95780867787E+02  0.92116889699E+02 0.  0.
    9000005    2    3    3    0    0 -0.19009534841E+02 -0.30695720870E+02 -0.15171706246E+02  0.40841027846E+02  0.11585300623E+02 0.  0.
         22    1    3    3    0    0  0.19009534841E+02  0.30695720870E+02  0.41410099228E+02  0.54939839941E+02  0.00000000000E+00 0. -1.
         22    1    4    4    0    0 -0.51035814889E+01 -0.18597409534E+02 -0.56546572370E+01  0.20096898613E+02  0.00000000000E+00 0.  1.
         22    1    4    4    0    0 -0.13905953352E+02 -0.12098311336E+02 -0.95170490091E+01  0.20744129233E+02  0.00000000000E+00 0.  1.
<mgrwt>
<rscale>  0 0.92116890E+02</rscale>
<asrwt>0</asrwt>
<pdfrwt beam="1">  1        3 0.93860969E-02 0.92116890E+02</pdfrwt>
<pdfrwt beam="2">  1       -3 0.53494212E-02 0.92116890E+02</pdfrwt>
<totfact> 0.34021436E+04</totfact>
</mgrwt>
</event>
<event>
 7    1  0.1247599E-009  0.9116600E+02  0.7818608E-02  0.1300052E+00
          3   -1    0    0  501    0  0.00000000000E+00  0.00000000000E+00  0.13809847375E+02  0.13810216708E+02  0.10100000000E+00 0. -1.
         -3   -1    0    0    0  501 -0.00000000000E+00 -0.00000000000E+00 -0.15045618670E+03  0.15045622060E+03  0.10100000000E+00 0.  1.
         23    2    1    2    0    0  0.00000000000E+00  0.88817841970E-15 -0.13664633932E+03  0.16426643730E+03  0.91166004491E+02 0.  0.
    9000005    2    3    3    0    0  0.35282693986E+02  0.43270143970E+01 -0.20597534348E+02  0.42895449485E+02  0.12335704957E+02 0.  0.
         22    1    3    3    0    0 -0.35282693986E+02 -0.43270143970E+01 -0.11604880497E+03  0.12137098782E+03  0.00000000000E+00 0.  1.
         22    1    4    4    0    0  0.24641820522E+02 -0.15883200246E+01 -0.17698324715E+02  0.30380467028E+02  0.00000000000E+00 0. -1.
         22    1    4    4    0    0  0.10640873465E+02  0.59153344216E+01 -0.28992096334E+01  0.12514982457E+02  0.00000000000E+00 0. -1.
<mgrwt>
<rscale>  0 0.91166004E+02</rscale>
<asrwt>0</asrwt>
<pdfrwt beam="1">  1        3 0.21246230E-02 0.91166004E+02</pdfrwt>
<pdfrwt beam="2">  1       -3 0.23147136E-01 0.91166004E+02</pdfrwt>
<totfact> 0.30466790E+04</totfact>
</mgrwt>
</event>
<event>
 7    1  0.1247599E-009  0.9298011E+02  0.7818608E-02  0.1295791E+00
         -3   -1    0    0    0  501 -0.00000000000E+00  0.00000000000E+00  0.22048251635E+03  0.22048253948E+03  0.10100000000E+00 0.  1.
          3   -1    0    0  501    0  0.00000000000E+00 -0.00000000000E+00 -0.98024218849E+01  0.98029422017E+01  0.10100000000E+00 0. -1.
         23    2    1    2    0    0  0.00000000000E+00  0.00000000000E+00  0.21068009446E+03  0.23028548168E+03  0.92980110083E+02 0.  0.
    9000005    2    3    3    0    0 -0.14384088509E+02 -0.35333458300E+02  0.16821434686E+03  0.17320050119E+03  0.15715974284E+02 0.  0.
         22    1    3    3    0    0  0.14384088509E+02  0.35333458300E+02  0.42465747605E+02  0.57084980487E+02  0.00000000000E+00 0. -1.
         22    1    4    4    0    0 -0.48386232974E+01 -0.28316229834E+02  0.10359827996E+03  0.10750732421E+03  0.00000000000E+00 0.  1.
         22    1    4    4    0    0 -0.95454652116E+01 -0.70172284651E+01  0.64616066896E+02  0.65693176986E+02  0.00000000000E+00 0.  1.
<mgrwt>
<rscale>  0 0.92980110E+02</rscale>
<asrwt>0</asrwt>
<pdfrwt beam="2">  1        3 0.15081069E-02 0.92980110E+02</pdfrwt>
<pdfrwt beam="1">  1       -3 0.33920425E-01 0.92980110E+02</pdfrwt>
<totfact> 0.25611199E+04</totfact>
</mgrwt>
</event>
<event>
 7    1  0.1247599E-009  0.8980300E+02  0.7818608E-02  0.1303329E+00
          3   -1    0    0  501    0  0.00000000000E+00  0.00000000000E+00  0.33673130554E+02  0.33673282025E+02  0.10100000000E+00 0. -1.
         -3   -1    0    0    0  501 -0.00000000000E+00 -0.00000000000E+00 -0.59873656220E+02  0.59873741407E+02  0.10100000000E+00 0.  1.
         23    2    1    2    0    0  0.00000000000E+00  0.35527136788E-14 -0.26200525666E+02  0.93547023432E+02  0.89802995762E+02 0.  0.
    9000005    2    3    3    0    0  0.15292428645E+02  0.27615367151E+02  0.19395314033E+02  0.38090306304E+02  0.88445661924E+01 0.  0.
         22    1    3    3    0    0 -0.15292428645E+02 -0.27615367151E+02 -0.45595839699E+02  0.55456717128E+02  0.00000000000E+00 0.  1.
         22    1    4    4    0    0  0.97943872671E+00  0.61495965415E+01  0.78020206508E+00  0.62757910342E+01  0.00000000000E+00 0. -1.
         22    1    4    4    0    0  0.14312989918E+02  0.21465770610E+02  0.18615111968E+02  0.31814515270E+02  0.00000000000E+00 0. -1.
<mgrwt>
<rscale>  0 0.89802996E+02</rscale>
<asrwt>0</asrwt>
<pdfrwt beam="1">  1        3 0.51804998E-02 0.89802996E+02</pdfrwt>
<pdfrwt beam="2">  1       -3 0.92113499E-02 0.89802996E+02</pdfrwt>
<totfact> 0.36638764E+04</totfact>
</mgrwt>
</event>
<event>
 7    1  0.1796905E-009  0.9212059E+02  0.7818608E-02  0.1297796E+00
          3   -1    0    0  501    0  0.00000000000E+00  0.00000000000E+00  0.51762881562E+02  0.51762980097E+02  0.10100000000E+00 0. -1.
         -3   -1    0    0    0  501 -0.00000000000E+00 -0.00000000000E+00 -0.40985744703E+02  0.40985869148E+02  0.10100000000E+00 0.  1.
         23    2    1    2    0    0  0.00000000000E+00  0.88817841970E-15  0.10777136859E+02  0.92748849246E+02  0.92120585959E+02 0.  0.
    9000005    2    3    3    0    0  0.13359282452E+02 -0.63731498108E+01  0.48190994758E+02  0.52513488814E+02  0.14703981281E+02 0.  0.
         22    1    3    3    0    0 -0.13359282452E+02  0.63731498108E+01 -0.37413857899E+02  0.40235360431E+02  0.00000000000E+00 0.  1.
         22    1    4    4    0    0 -0.23131589841E+01  0.16120021947E+01  0.35583675955E+01  0.45399598573E+01  0.00000000000E+00 0. -1.
         22    1    4    4    0    0  0.15672441437E+02 -0.79851520055E+01  0.44632627163E+02  0.47973528957E+02  0.00000000000E+00 0. -1.
<mgrwt>
<rscale>  0 0.92120586E+02</rscale>
<asrwt>0</asrwt>
<pdfrwt beam="1">  1        3 0.79635374E-02 0.92120586E+02</pdfrwt>
<pdfrwt beam="2">  1       -3 0.63055164E-02 0.92120586E+02</pdfrwt>
<totfact> 0.34241851E+04</totfact>
</mgrwt>
</event>
<event>
 7    1  0.1247599E-009  0.9068061E+02  0.7818608E-02  0.1301212E+00
         -3   -1    0    0    0  501 -0.00000000000E+00  0.00000000000E+00  0.83854384512E+01  0.83860466859E+01  0.10100000000E+00 0.  1.
          3   -1    0    0  501    0  0.00000000000E+00 -0.00000000000E+00 -0.24514680730E+03  0.24514682810E+03  0.10100000000E+00 0. -1.
         23    2    1    2    0    0  0.00000000000E+00  0.55511151231E-16 -0.23676136885E+03  0.25353287479E+03  0.90680608847E+02 0.  0.
    9000005    2    3    3    0    0  0.37589606837E+02  0.19521901595E+00 -0.47669845865E+02  0.60741223736E+02  0.20162845791E+01 0.  0.
         22    1    3    3    0    0 -0.37589606837E+02 -0.19521901595E+00 -0.18909152298E+03  0.19279165105E+03  0.00000000000E+00 0. -1.
         22    1    4    4    0    0  0.85535035752E+01  0.61780999308E+00 -0.11891883128E+02  0.14661548245E+02  0.00000000000E+00 0.  1.
         22    1    4    4    0    0  0.29036103262E+02 -0.42259097713E+00 -0.35777962737E+02  0.46079675491E+02  0.00000000000E+00 0.  1.
<mgrwt>
<rscale>  0 0.90680609E+02</rscale>
<asrwt>0</asrwt>
<pdfrwt beam="2">  1        3 0.37714936E-01 0.90680609E+02</pdfrwt>
<pdfrwt beam="1">  1       -3 0.12901160E-02 0.90680609E+02</pdfrwt>
<totfact> 0.26330971E+04</totfact>
</mgrwt>
</event>
<event>
 7    1  0.1247599E-009  0.9155507E+02  0.7818608E-02  0.1299129E+00
         -3   -1    0    0    0  501 -0.00000000000E+00  0.00000000000E+00  0.56524734661E+02  0.56524824896E+02  0.10100000000E+00 0.  1.
          3   -1    0    0  501    0  0.00000000000E+00 -0.00000000000E+00 -0.37073540140E+02  0.37073677717E+02  0.10100000000E+00 0. -1.
         23    2    1    2    0    0  0.00000000000E+00  0.00000000000E+00  0.19451194521E+02  0.93598502613E+02  0.91555069347E+02 0.  0.
    9000005    2    3    3    0    0  0.28230113068E+02  0.12806417906E+02  0.43228094764E+02  0.54530809969E+02  0.11999893149E+02 0.  0.
         22    1    3    3    0    0 -0.28230113068E+02 -0.12806417906E+02 -0.23776900242E+02  0.39067692644E+02  0.00000000000E+00 0. -1.
         22    1    4    4    0    0  0.28037264274E+02  0.14135328148E+02  0.38854203937E+02  0.49955428668E+02  0.00000000000E+00 0. -1.
         22    1    4    4    0    0  0.19284879346E+00 -0.13289102416E+01  0.43738908261E+01  0.45753813007E+01  0.00000000000E+00 0. -1.
<mgrwt>
<rscale>  0 0.91555069E+02</rscale>
<asrwt>0</asrwt>
<pdfrwt beam="2">  1        3 0.57036392E-02 0.91555069E+02</pdfrwt>
<pdfrwt beam="1">  1       -3 0.86961304E-02 0.91555069E+02</pdfrwt>
<totfact> 0.34759203E+04</totfact>
</mgrwt>
</event>
<event>
 7    1  0.1247599E-009  0.9069327E+02  0.7818608E-02  0.1301181E+00
          3   -1    0    0  501    0  0.00000000000E+00  0.00000000000E+00  0.14450558090E+02  0.14450911048E+02  0.10100000000E+00 0. -1.
         -3   -1    0    0    0  501 -0.00000000000E+00 -0.00000000000E+00 -0.14229808448E+03  0.14229812033E+03  0.10100000000E+00 0.  1.
         23    2    1    2    0    0 -0.17763568394E-14  0.00000000000E+00 -0.12784752639E+03  0.15674903138E+03  0.90693267843E+02 0.  0.
    9000005    2    3    3    0    0  0.10600329171E+02 -0.42550910458E+02 -0.79335319073E+02  0.91354985633E+02  0.11344319647E+02 0.  0.
         22    1    3    3    0    0 -0.10600329171E+02  0.42550910458E+02 -0.48512207321E+02  0.65394045742E+02  0.00000000000E+00 0.  1.
         22    1    4    4    0    0  0.70920854518E+01 -0.11944255556E+02 -0.18192424279E+02  0.22889456481E+02  0.00000000000E+00 0. -1.
         22    1    4    4    0    0  0.35082437193E+01 -0.30606654902E+02 -0.61142894795E+02  0.68465529153E+02  0.00000000000E+00 0. -1.
<mgrwt>
<rscale>  0 0.90693268E+02</rscale>
<asrwt>0</asrwt>
<pdfrwt beam="1">  1        3 0.22231928E-02 0.90693268E+02</pdfrwt>
<pdfrwt beam="2">  1       -3 0.21892042E-01 0.90693268E+02</pdfrwt>
<totfact> 0.31347558E+04</totfact>
</mgrwt>
</event>
<event>
 7    1  0.1247599E-009  0.1035929E+03  0.7818608E-02  0.1272917E+00
         -3   -1    0    0    0  501 -0.00000000000E+00  0.00000000000E+00  0.46669536250E+03  0.46669537343E+03  0.10100000000E+00 0.  1.
          3   -1    0    0  501    0  0.00000000000E+00 -0.00000000000E+00 -0.57482077377E+01  0.57490949893E+01  0.10100000000E+00 0. -1.
         23    2    1    2    0    0  0.00000000000E+00 -0.71054273576E-14  0.46094715476E+03  0.47244446842E+03  0.10359293536E+03 0.  0.
    9000005    2    3    3    0    0  0.32364982127E+02 -0.39510228893E+02  0.20365385301E+03  0.21013092820E+03  0.84596031269E+01 0.  0.
         22    1    3    3    0    0 -0.32364982127E+02  0.39510228893E+02  0.25729330175E+03  0.26231354021E+03  0.00000000000E+00 0. -1.
         22    1    4    4    0    0  0.29362942080E+02 -0.37353275204E+02  0.17886316181E+03  0.18506615085E+03  0.00000000000E+00 0.  1.
         22    1    4    4    0    0  0.30020400475E+01 -0.21569536897E+01  0.24790691201E+02  0.25064777356E+02  0.00000000000E+00 0.  1.
<mgrwt>
<rscale>  0 0.10359294E+03</rscale>
<asrwt>0</asrwt>
<pdfrwt beam="2">  1        3 0.88440869E-03 0.10359294E+03</pdfrwt>
<pdfrwt beam="1">  1       -3 0.71799360E-01 0.10359294E+03</pdfrwt>
<totfact> 0.13177703E+04</totfact>
</mgrwt>
</event>
<event>
 7    1  0.1247599E-009  0.9166056E+02  0.7818608E-02  0.1298880E+00
          3   -1    0    0  501    0  0.00000000000E+00  0.00000000000E+00  0.65842531098E+02  0.65842608563E+02  0.10100000000E+00 0. -1.
         -3   -1    0    0    0  501 -0.00000000000E+00 -0.00000000000E+00 -0.31900397853E+02  0.31900557741E+02  0.10100000000E+00 0.  1.
         23    2    1    2    0    0  0.00000000000E+00  0.00000000000E+00  0.33942133244E+02  0.97743166304E+02  0.91660559403E+02 0.  0.
    9000005    2    3    3    0    0 -0.41868154132E+02 -0.90301356314E+01  0.30887310358E+02  0.54803468788E+02  0.14659760233E+02 0.  0.
         22    1    3    3    0    0  0.41868154132E+02  0.90301356314E+01  0.30548228864E+01  0.42939697516E+02  0.00000000000E+00 0. -1.
         22    1    4    4    0    0 -0.39605427097E+02 -0.11970959530E+02  0.29611798150E+02  0.50879782991E+02  0.00000000000E+00 0. -1.
         22    1    4    4    0    0 -0.22627270353E+01  0.29408238983E+01  0.12755122078E+01  0.39236857965E+01  0.00000000000E+00 0. -1.
<mgrwt>
<rscale>  0 0.91660559E+02</rscale>
<asrwt>0</asrwt>
<pdfrwt beam="1">  1        3 0.10129638E-01 0.91660559E+02</pdfrwt>
<pdfrwt beam="2">  1       -3 0.49077718E-02 0.91660559E+02</pdfrwt>
<totfact> 0.34339964E+04</totfact>
</mgrwt>
</event>
<event>
 7    1  0.1247599E-009  0.9238662E+02  0.7818608E-02  0.1297173E+00
          3   -1    0    0  501    0  0.00000000000E+00  0.00000000000E+00  0.69477877845E+01  0.69485218643E+01  0.10100000000E+00 0. -1.
         -3   -1    0    0    0  501 -0.00000000000E+00 -0.00000000000E+00 -0.30710554735E+03  0.30710556396E+03  0.10100000000E+00 0.  1.
         23    2    1    2    0    0  0.00000000000E+00  0.00000000000E+00 -0.30015775957E+03  0.31405408582E+03  0.92386623461E+02 0.  0.
    9000005    2    3    3    0    0  0.83234321729E+01  0.30934274082E+02 -0.26151845766E+03  0.26386240835E+03  0.14326828182E+02 0.  0.
         22    1    3    3    0    0 -0.83234321729E+01 -0.30934274082E+02 -0.38639301908E+02  0.50191677478E+02  0.00000000000E+00 0. -1.
         22    1    4    4    0    0  0.55837044304E+01  0.31049948863E+02 -0.21962314428E+03  0.22187744947E+03  0.00000000000E+00 0. -1.
         22    1    4    4    0    0  0.27397277425E+01 -0.11567478149E+00 -0.41895313384E+02  0.41984958881E+02  0.00000000000E+00 0. -1.
<mgrwt>
<rscale>  0 0.92386623E+02</rscale>
<asrwt>0</asrwt>
<pdfrwt beam="1">  1        3 0.10689484E-02 0.92386623E+02</pdfrwt>
<pdfrwt beam="2">  1       -3 0.47247055E-01 0.92386623E+02</pdfrwt>
<totfact> 0.22671096E+04</totfact>
</mgrwt>
</event>
<event>
 7    1  0.1247599E-009  0.8961933E+02  0.7818608E-02  0.1303776E+00
         -3   -1    0    0    0  501 -0.00000000000E+00  0.00000000000E+00  0.62403901498E+02  0.62403983231E+02  0.10100000000E+00 0.  1.
          3   -1    0    0  501    0  0.00000000000E+00 -0.00000000000E+00 -0.32175791015E+02  0.32175949534E+02  0.10100000000E+00 0. -1.
         23    2    1    2    0    0  0.00000000000E+00  0.00000000000E+00  0.30228110483E+02  0.94579932766E+02  0.89619333955E+02 0.  0.
    9000005    2    3    3    0    0  0.33860161232E+02  0.26605106517E+02  0.35089014243E+01  0.43901945985E+02  0.77927056074E+01 0.  0.
         22    1    3    3    0    0 -0.33860161232E+02 -0.26605106517E+02  0.26719209059E+02  0.50677986780E+02  0.00000000000E+00 0. -1.
         22    1    4    4    0    0  0.33732768714E+02  0.24901032954E+02  0.40147426856E+01  0.42119820585E+02  0.00000000000E+00 0. -1.
         22    1    4    4    0    0  0.12739251802E+00  0.17040735630E+01 -0.50584126133E+00  0.17821254006E+01  0.00000000000E+00 0. -1.
<mgrwt>
<rscale>  0 0.89619334E+02</rscale>
<asrwt>0</asrwt>
<pdfrwt beam="2">  1        3 0.49501402E-02 0.89619334E+02</pdfrwt>
<pdfrwt beam="1">  1       -3 0.96006187E-02 0.89619334E+02</pdfrwt>
<totfact> 0.36760140E+04</totfact>
</mgrwt>
</event>
<event>
 7    1  0.1247599E-009  0.9107984E+02  0.7818608E-02  0.1300258E+00
         -3   -1    0    0    0  501 -0.00000000000E+00  0.00000000000E+00  0.82243202704E+02  0.82243264722E+02  0.10100000000E+00 0.  1.
          3   -1    0    0  501    0  0.00000000000E+00 -0.00000000000E+00 -0.25216309786E+02  0.25216512055E+02  0.10100000000E+00 0. -1.
         23    2    1    2    0    0 -0.88817841970E-15  0.17763568394E-14  0.57026892919E+02  0.10745977678E+03  0.91079839201E+02 0.  0.
    9000005    2    3    3    0    0 -0.52625539616E+01  0.12580127956E+02 -0.21248986357E+02  0.28004963391E+02  0.12116289025E+02 0.  0.
         22    1    3    3    0    0  0.52625539616E+01 -0.12580127956E+02  0.78275879276E+02  0.79454813385E+02  0.00000000000E+00 0.  1.
         22    1    4    4    0    0 -0.42704500643E+01 -0.11393889625E+01 -0.41808254401E+01  0.60839339510E+01  0.00000000000E+00 0. -1.
         22    1    4    4    0    0 -0.99210389736E+00  0.13719516919E+02 -0.17068160917E+02  0.21921029440E+02  0.00000000000E+00 0. -1.
<mgrwt>
<rscale>  0 0.91079839E+02</rscale>
<asrwt>0</asrwt>
<pdfrwt beam="2">  1        3 0.38794526E-02 0.91079839E+02</pdfrwt>
<pdfrwt beam="1">  1       -3 0.12652821E-01 0.91079839E+02</pdfrwt>
<totfact> 0.34227335E+04</totfact>
</mgrwt>
</event>
<event>
 6    1  0.1247599E-009  0.1706265E+03  0.7818608E-02  0.1177196E+00
          3   -1    0    0  501    0  0.00000000000E+00  0.00000000000E+00  0.16702881720E+03  0.16702884773E+03  0.10100000000E+00 0. -1.
         -3   -1    0    0    0  501 -0.00000000000E+00 -0.00000000000E+00 -0.43575337068E+02  0.43575454118E+02  0.10100000000E+00 0.  1.
    9000005    2    1    2    0    0 -0.39381085519E+01  0.78554429074E+02  0.10180733437E+03  0.12902696031E+03  0.98445990705E+01 0.  0.
         22    1    1    2    0    0  0.39381085519E+01 -0.78554429074E+02  0.21646145763E+02  0.81577341538E+02  0.00000000000E+00 0.  1.
         22    1    3    3    0    0 -0.34191528757E+01  0.16208427790E+02  0.26601856055E+02  0.31337876179E+02  0.00000000000E+00 0. -1.
         22    1    3    3    0    0 -0.51895567619E+00  0.62346001283E+02  0.75205478311E+02  0.97689084134E+02  0.00000000000E+00 0. -1.
<mgrwt>
<rscale>  0 0.17062652E+03</rscale>
<asrwt>0</asrwt>
<pdfrwt beam="1">  1        3 0.25696752E-01 0.17062652E+03</pdfrwt>
<pdfrwt beam="2">  1       -3 0.67039094E-02 0.17062652E+03</pdfrwt>
<totfact> 0.48298272E+03</totfact>
</mgrwt>
</event>
<event>
 7    1  0.1247599E-009  0.9162661E+02  0.7818608E-02  0.1298960E+00
          3   -1    0    0  501    0  0.00000000000E+00  0.00000000000E+00  0.61520272081E+01  0.61528562286E+01  0.10100000000E+00 0. -1.
         -3   -1    0    0    0  501 -0.00000000000E+00 -0.00000000000E+00 -0.34114156838E+03  0.34114158333E+03  0.10100000000E+00 0.  1.
         23    2    1    2    0    0  0.00000000000E+00  0.00000000000E+00 -0.33498954117E+03  0.34729443956E+03  0.91626606697E+02 0.  0.
    9000005    2    3    3    0    0 -0.37390061120E+02 -0.27007959220E+01 -0.26378108603E+03  0.26682112067E+03  0.14413123199E+02 0.  0.
         22    1    3    3    0    0  0.37390061120E+02  0.27007959220E+01 -0.71208455142E+02  0.80473318888E+02  0.00000000000E+00 0. -1.
         22    1    4    4    0    0 -0.24550047071E+02 -0.57007662718E+01 -0.13219895562E+03  0.13457996661E+03  0.00000000000E+00 0.  1.
         22    1    4    4    0    0 -0.12840014048E+02  0.29999703498E+01 -0.13158213042E+03  0.13224115406E+03  0.00000000000E+00 0.  1.
<mgrwt>
<rscale>  0 0.91626607E+02</rscale>
<asrwt>0</asrwt>
<pdfrwt beam="1">  1        3 0.94653091E-03 0.91626607E+02</pdfrwt>
<pdfrwt beam="2">  1       -3 0.52483368E-01 0.91626607E+02</pdfrwt>
<totfact> 0.22006194E+04</totfact>
</mgrwt>
</event>
<event>
 7    1  0.1247599E-009  0.9068519E+02  0.7818608E-02  0.1301201E+00
         -3   -1    0    0    0  501 -0.00000000000E+00  0.00000000000E+00  0.11535026318E+03  0.11535030740E+03  0.10100000000E+00 0.  1.
          3   -1    0    0  501    0  0.00000000000E+00 -0.00000000000E+00 -0.17823358025E+02  0.17823644192E+02  0.10100000000E+00 0. -1.
         23    2    1    2    0    0  0.00000000000E+00  0.71054273576E-14  0.97526905153E+02  0.13317395159E+03  0.90685192577E+02 0.  0.
    9000005    2    3    3    0    0 -0.16235002775E+01  0.40441025475E+02  0.18985047421E+02  0.44817085920E+02  0.31665233518E+01 0.  0.
         22    1    3    3    0    0  0.16235002775E+01 -0.40441025475E+02  0.78541857732E+02  0.88356865668E+02  0.00000000000E+00 0.  1.
         22    1    4    4    0    0 -0.21976942915E+01  0.33379802550E+02  0.14717372753E+02  0.36546438119E+02  0.00000000000E+00 0. -1.
         22    1    4    4    0    0  0.57419401409E+00  0.70612229253E+01  0.42676746682E+01  0.82706478005E+01  0.00000000000E+00 0. -1.
<mgrwt>
<rscale>  0 0.90685193E+02</rscale>
<asrwt>0</asrwt>
<pdfrwt beam="2">  1        3 0.27420805E-02 0.90685193E+02</pdfrwt>
<pdfrwt beam="1">  1       -3 0.17746220E-01 0.90685193E+02</pdfrwt>
<totfact> 0.32847487E+04</totfact>
</mgrwt>
</event>
<event>
 7    1  0.1247599E-009  0.8979654E+02  0.7818608E-02  0.1303345E+00
          3   -1    0    0  501    0  0.00000000000E+00  0.00000000000E+00  0.17989748818E+02  0.17990032339E+02  0.10100000000E+00 0. -1.
         -3   -1    0    0    0  501 -0.00000000000E+00 -0.00000000000E+00 -0.11205455109E+03  0.11205459661E+03  0.10100000000E+00 0.  1.
         23    2    1    2    0    0  0.35527136788E-14  0.00000000000E+00 -0.94064802269E+02  0.13004462894E+03  0.89796539417E+02 0.  0.
    9000005    2    3    3    0    0 -0.26991471746E+02  0.35161940322E+02 -0.55321320778E+02  0.71172233441E+02  0.63353520879E+01 0.  0.
         22    1    3    3    0    0  0.26991471746E+02 -0.35161940322E+02 -0.38743481491E+02  0.58872395503E+02  0.00000000000E+00 0.  1.
         22    1    4    4    0    0 -0.20970628831E+02  0.23248316642E+02 -0.41111463171E+02  0.51675950928E+02  0.00000000000E+00 0.  1.
         22    1    4    4    0    0 -0.60208429147E+01  0.11913623681E+02 -0.14209857607E+02  0.19496282513E+02  0.00000000000E+00 0.  1.
<mgrwt>
<rscale>  0 0.89796539E+02</rscale>
<asrwt>0</asrwt>
<pdfrwt beam="1">  1        3 0.27676790E-02 0.89796539E+02</pdfrwt>
<pdfrwt beam="2">  1       -3 0.17239187E-01 0.89796539E+02</pdfrwt>
<totfact> 0.33947659E+04</totfact>
</mgrwt>
</event>
<event>
 7    1  0.1247599E-009  0.9072676E+02  0.7818608E-02  0.1301101E+00
          3   -1    0    0  501    0  0.00000000000E+00  0.00000000000E+00  0.87791630254E+01  0.87797439841E+01  0.10100000000E+00 0. -1.
         -3   -1    0    0    0  501 -0.00000000000E+00 -0.00000000000E+00 -0.23439169667E+03  0.23439171844E+03  0.10100000000E+00 0.  1.
         23    2    1    2    0    0  0.00000000000E+00  0.00000000000E+00 -0.22561253365E+03  0.24317146242E+03  0.90726758983E+02 0.  0.
    9000005    2    3    3    0    0 -0.38030430440E+02  0.35474922768E+01 -0.17528281025E+03  0.17998934945E+03  0.14601507055E+02 0.  0.
         22    1    3    3    0    0  0.38030430440E+02 -0.35474922768E+01 -0.50329723403E+02  0.63182112965E+02  0.00000000000E+00 0. -1.
         22    1    4    4    0    0 -0.27496773490E+01 -0.37370602817E+01 -0.14680264240E+02  0.15395989843E+02  0.00000000000E+00 0. -1.
         22    1    4    4    0    0 -0.35280753091E+02  0.72845525585E+01 -0.16060254601E+03  0.16459335961E+03  0.00000000000E+00 0. -1.
<mgrwt>
<rscale>  0 0.90726759E+02</rscale>
<asrwt>0</asrwt>
<pdfrwt beam="1">  1        3 0.13506870E-02 0.90726759E+02</pdfrwt>
<pdfrwt beam="2">  1       -3 0.36060303E-01 0.90726759E+02</pdfrwt>
<totfact> 0.26759920E+04</totfact>
</mgrwt>
</event>
<event>
 7    1  0.1247599E-009  0.9140489E+02  0.7818608E-02  0.1299485E+00
          3   -1    0    0  501    0  0.00000000000E+00  0.00000000000E+00  0.11294103456E+03  0.11294107972E+03  0.10100000000E+00 0. -1.
         -3   -1    0    0    0  501 -0.00000000000E+00 -0.00000000000E+00 -0.18493654348E+02  0.18493930143E+02  0.10100000000E+00 0.  1.
         23    2    1    2    0    0 -0.71054273576E-14 -0.88817841970E-15  0.94447380213E+02  0.13143500986E+03  0.91404891493E+02 0.  0.
    9000005    2    3    3    0    0  0.45108199603E+02  0.55587107433E+01  0.43205820505E+02  0.62941605964E+02  0.54086873933E+01 0.  0.
         22    1    3    3    0    0 -0.45108199603E+02 -0.55587107433E+01  0.51241559708E+02  0.68493403900E+02  0.00000000000E+00 0.  1.
         22    1    4    4    0    0  0.39260946278E+02  0.40298609033E+01  0.39573378323E+02  0.55890195504E+02  0.00000000000E+00 0. -1.
         22    1    4    4    0    0  0.58472533246E+01  0.15288498401E+01  0.36324421817E+01  0.70514104603E+01  0.00000000000E+00 0. -1.
<mgrwt>
<rscale>  0 0.91404891E+02</rscale>
<asrwt>0</asrwt>
<pdfrwt beam="1">  1        3 0.17375568E-01 0.91404891E+02</pdfrwt>
<pdfrwt beam="2">  1       -3 0.28452023E-02 0.91404891E+02</pdfrwt>
<totfact> 0.32261946E+04</totfact>
</mgrwt>
</event>
<event>
 7    1  0.1247599E-009  0.9085230E+02  0.7818608E-02  0.1300801E+00
         -3   -1    0    0    0  501 -0.00000000000E+00  0.00000000000E+00  0.11934645080E+02  0.11935072442E+02  0.10100000000E+00 0. -1.
          3   -1    0    0  501    0  0.00000000000E+00 -0.00000000000E+00 -0.17289940054E+03  0.17289943004E+03  0.10100000000E+00 0.  1.
         23    2    1    2    0    0  0.00000000000E+00  0.00000000000E+00 -0.16096475546E+03  0.18483450248E+03  0.90852302158E+02 0.  0.
    9000005    2    3    3    0    0 -0.37469588905E+02 -0.19478559781E+02 -0.54585702879E+02  0.70379763778E+02  0.13795934430E+02 0.  0.
         22    1    3    3    0    0  0.37469588905E+02  0.19478559781E+02 -0.10637905258E+03  0.11445473871E+03  0.00000000000E+00 0.  1.
         22    1    4    4    0    0 -0.15102380715E+02 -0.14243163676E+01 -0.24124440418E+02  0.28497354366E+02  0.00000000000E+00 0.  1.
         22    1    4    4    0    0 -0.22367208190E+02 -0.18054243413E+02 -0.30461262461E+02  0.41882409412E+02  0.00000000000E+00 0.  1.
<mgrwt>
<rscale>  0 0.90852302E+02</rscale>
<asrwt>0</asrwt>
<pdfrwt beam="2">  1        3 0.26599941E-01 0.90852302E+02</pdfrwt>
<pdfrwt beam="1">  1       -3 0.18361345E-02 0.90852302E+02</pdfrwt>
<totfact> 0.29585244E+04</totfact>
</mgrwt>
</event>
<event>
 7    1  0.1247599E-009  0.8893495E+02  0.7818608E-02  0.1305452E+00
         -3   -1    0    0    0  501 -0.00000000000E+00  0.00000000000E+00  0.11458345078E+03  0.11458349529E+03  0.10100000000E+00 0.  1.
          3   -1    0    0  501    0  0.00000000000E+00 -0.00000000000E+00 -0.17256713861E+02  0.17257009425E+02  0.10100000000E+00 0. -1.
         23    2    1    2    0    0  0.00000000000E+00  0.00000000000E+00  0.97326736918E+02  0.13184050472E+03  0.88934947940E+02 0.  0.
    9000005    2    3    3    0    0  0.49904739408E+01  0.44062545186E+02  0.50351873244E+02  0.67241351971E+02  0.44357138293E+01 0.  0.
         22    1    3    3    0    0 -0.49904739408E+01 -0.44062545186E+02  0.46974863674E+02  0.64599152747E+02  0.00000000000E+00 0.  1.
         22    1    4    4    0    0  0.22145052803E+01  0.33352159400E+02  0.36092811900E+02  0.49193105626E+02  0.00000000000E+00 0.  1.
         22    1    4    4    0    0  0.27759686605E+01  0.10710385786E+02  0.14259061344E+02  0.18048246344E+02  0.00000000000E+00 0.  1.
<mgrwt>
<rscale>  0 0.88934948E+02</rscale>
<asrwt>0</asrwt>
<pdfrwt beam="2">  1        3 0.26549052E-02 0.88934948E+02</pdfrwt>
<pdfrwt beam="1">  1       -3 0.17628250E-01 0.88934948E+02</pdfrwt>
<totfact> 0.34717334E+04</totfact>
</mgrwt>
</event>
<event>
 7    1  0.1247599E-009  0.9112850E+02  0.7818608E-02  0.1300142E+00
         -3   -1    0    0    0  501 -0.00000000000E+00  0.00000000000E+00  0.16053027057E+03  0.16053030234E+03  0.10100000000E+00 0.  1.
          3   -1    0    0  501    0  0.00000000000E+00 -0.00000000000E+00 -0.12932537157E+02  0.12932931544E+02  0.10100000000E+00 0. -1.
         23    2    1    2    0    0  0.00000000000E+00 -0.17763568394E-14  0.14759773341E+03  0.17346323389E+03  0.91128495004E+02 0.  0.
    9000005    2    3    3    0    0  0.18209959408E+02  0.86927197809E+01  0.15150377476E+03  0.15291029838E+03  0.45825305862E+01 0.  0.
         22    1    3    3    0    0 -0.18209959408E+02 -0.86927197809E+01 -0.39060413451E+01  0.20552935504E+02  0.00000000000E+00 0. -1.
         22    1    4    4    0    0  0.75869368325E+01  0.25609987208E+01  0.75458759078E+02  0.75882439646E+02  0.00000000000E+00 0. -1.
         22    1    4    4    0    0  0.10623022576E+02  0.61317210601E+01  0.76045015682E+02  0.77027858738E+02  0.00000000000E+00 0. -1.
<mgrwt>
<rscale>  0 0.91128495E+02</rscale>
<asrwt>0</asrwt>
<pdfrwt beam="2">  1        3 0.19896539E-02 0.91128495E+02</pdfrwt>
<pdfrwt beam="1">  1       -3 0.24696997E-01 0.91128495E+02</pdfrwt>
<totfact> 0.29973483E+04</totfact>
</mgrwt>
</event>
<event>
 7    1  0.1247599E-009  0.9070441E+02  0.7818608E-02  0.1301155E+00
         -3   -1    0    0    0  501 -0.00000000000E+00  0.00000000000E+00  0.10124950266E+03  0.10124955304E+03  0.10100000000E+00 0.  1.
          3   -1    0    0  501    0  0.00000000000E+00 -0.00000000000E+00 -0.20314214205E+02  0.20314465284E+02  0.10100000000E+00 0. -1.
         23    2    1    2    0    0  0.00000000000E+00  0.00000000000E+00  0.80935288457E+02  0.12156401832E+03  0.90704408013E+02 0.  0.
    9000005    2    3    3    0    0  0.19141647828E+02 -0.39232202691E+02  0.26603392777E+02  0.51868083737E+02  0.87743486172E+01 0.  0.
         22    1    3    3    0    0 -0.19141647828E+02  0.39232202691E+02  0.54331895680E+02  0.69695934586E+02  0.00000000000E+00 0.  1.
         22    1    4    4    0    0  0.16891098037E+02 -0.37505070341E+02  0.22515601295E+02  0.46892342614E+02  0.00000000000E+00 0.  1.
         22    1    4    4    0    0  0.22505497915E+01 -0.17271323507E+01  0.40877914816E+01  0.49757411224E+01  0.00000000000E+00 0.  1.
<mgrwt>
<rscale>  0 0.90704408E+02</rscale>
<asrwt>0</asrwt>
<pdfrwt beam="2">  1        3 0.31252869E-02 0.90704408E+02</pdfrwt>
<pdfrwt beam="1">  1       -3 0.15576870E-01 0.90704408E+02</pdfrwt>
<totfact> 0.33611740E+04</totfact>
</mgrwt>
</event>
<event>
 7    1  0.1247599E-009  0.9426738E+02  0.7818608E-02  0.1292835E+00
          3   -1    0    0  501    0  0.00000000000E+00  0.00000000000E+00  0.53841163391E+03  0.53841164338E+03  0.10100000000E+00 0. -1.
         -3   -1    0    0    0  501 -0.00000000000E+00 -0.00000000000E+00 -0.41255549756E+01  0.41267911090E+01  0.10100000000E+00 0.  1.
         23    2    1    2    0    0  0.00000000000E+00  0.00000000000E+00  0.53428607893E+03  0.54253843449E+03  0.94267379078E+02 0.  0.
    9000005    2    3    3    0    0 -0.21704308732E+02  0.15804837367E+02  0.48931919036E+03  0.49016581789E+03  0.10411007195E+02 0.  0.
         22    1    3    3    0    0  0.21704308732E+02 -0.15804837367E+02  0.44966888571E+02  0.52372616599E+02  0.00000000000E+00 0.  1.
         22    1    4    4    0    0 -0.13440588813E+02  0.14625256269E+02  0.38559855742E+03  0.38610982250E+03  0.00000000000E+00 0. -1.
         22    1    4    4    0    0 -0.82637199186E+01  0.11795810987E+01  0.10372063295E+03  0.10405599539E+03  0.00000000000E+00 0. -1.
<mgrwt>
<rscale>  0 0.94267379E+02</rscale>
<asrwt>0</asrwt>
<pdfrwt beam="1">  1        3 0.82832609E-01 0.94267379E+02</pdfrwt>
<pdfrwt beam="2">  1       -3 0.63479693E-03 0.94267379E+02</pdfrwt>
<totfact> 0.15484135E+04</totfact>
</mgrwt>
</event>
<event>
 6    1  0.1247599E-009  0.4414195E+02  0.7818608E-02  0.1479770E+00
         -3   -1    0    0    0  501 -0.00000000000E+00  0.00000000000E+00  0.61154127665E+01  0.61162467498E+01  0.10100000000E+00 0.  1.
          3   -1    0    0  501    0  0.00000000000E+00 -0.00000000000E+00 -0.79649479268E+02  0.79649543305E+02  0.10100000000E+00 0. -1.
    9000005    2    1    2    0    0 -0.25266588123E+01 -0.12783276121E+02 -0.70988470053E+02  0.72488884752E+02  0.67438400735E+01 0.  0.
         22    1    1    2    0    0  0.25266588123E+01  0.12783276121E+02 -0.25455964484E+01  0.13276905303E+02  0.00000000000E+00 0.  1.
         22    1    3    3    0    0  0.21447299509E+01 -0.63281013823E+01 -0.34384091838E+02  0.35027282298E+02  0.00000000000E+00 0.  1.
         22    1    3    3    0    0 -0.46713887631E+01 -0.64551747387E+01 -0.36604378215E+02  0.37461602454E+02  0.00000000000E+00 0.  1.
<mgrwt>
<rscale>  0 0.44141951E+02</rscale>
<asrwt>0</asrwt>
<pdfrwt beam="2">  1        3 0.12253834E-01 0.44141951E+02</pdfrwt>
<pdfrwt beam="1">  1       -3 0.94090187E-03 0.44141951E+02</pdfrwt>
<totfact> 0.23547662E+05</totfact>
</mgrwt>
</event>
<event>
 7    1  0.1779172E-009  0.1040107E+03  0.7818608E-02  0.1272081E+00
         -3   -1    0    0    0  501 -0.00000000000E+00  0.00000000000E+00  0.13414407818E+02  0.13414788038E+02  0.10100000000E+00 0.  1.
          3   -1    0    0  501    0  0.00000000000E+00 -0.00000000000E+00 -0.20161239258E+03  0.20161241788E+03  0.10100000000E+00 0. -1.
         23    2    1    2    0    0  0.00000000000E+00  0.00000000000E+00 -0.18819798476E+03  0.21502720591E+03  0.10401066203E+03 0.  0.
    9000005    2    3    3    0    0  0.11545105955E+02 -0.44072219153E+02 -0.14272166350E+03  0.15065527284E+03  0.15870980722E+02 0.  0.
         22    1    3    3    0    0 -0.11545105955E+02  0.44072219153E+02 -0.45476321260E+02  0.64371933076E+02  0.00000000000E+00 0.  1.
         22    1    4    4    0    0  0.53819767347E+01 -0.20971012623E+01 -0.19274754196E+02  0.20121621620E+02  0.00000000000E+00 0.  1.
         22    1    4    4    0    0  0.61631292204E+01 -0.41975117891E+02 -0.12344690930E+03  0.13053365122E+03  0.00000000000E+00 0.  1.
<mgrwt>
<rscale>  0 0.10401066E+03</rscale>
<asrwt>0</asrwt>
<pdfrwt beam="2">  1        3 0.31017320E-01 0.10401066E+03</pdfrwt>
<pdfrwt beam="1">  1       -3 0.20637864E-02 0.10401066E+03</pdfrwt>
<totfact> 0.19392280E+04</totfact>
</mgrwt>
</event>
<event>
 7    1  0.1247599E-009  0.1026200E+03  0.7818608E-02  0.1274881E+00
          3   -1    0    0  501    0  0.00000000000E+00  0.00000000000E+00  0.11129888684E+03  0.11129893266E+03  0.10100000000E+00 0. -1.
         -3   -1    0    0    0  501 -0.00000000000E+00 -0.00000000000E+00 -0.23654328345E+02  0.23654543970E+02  0.10100000000E+00 0.  1.
         23    2    1    2    0    0  0.00000000000E+00 -0.17763568394E-14  0.87644558492E+02  0.13495347663E+03  0.10262003811E+03 0.  0.
    9000005    2    3    3    0    0 -0.29912544163E+02 -0.11591450468E+02  0.95899779820E+02  0.10182840001E+03  0.11963831171E+02 0.  0.
         22    1    3    3    0    0  0.29912544163E+02  0.11591450468E+02 -0.82552213286E+01  0.33125076626E+02  0.00000000000E+00 0.  1.
         22    1    4    4    0    0 -0.26393124491E+02 -0.61086254434E+01  0.68449318675E+02  0.73615362203E+02  0.00000000000E+00 0. -1.
         22    1    4    4    0    0 -0.35194196719E+01 -0.54828250249E+01  0.27450461145E+02  0.28213037804E+02  0.00000000000E+00 0. -1.
<mgrwt>
<rscale>  0 0.10262004E+03</rscale>
<asrwt>0</asrwt>
<pdfrwt beam="1">  1        3 0.17122926E-01 0.10262004E+03</pdfrwt>
<pdfrwt beam="2">  1       -3 0.36391475E-02 0.10262004E+03</pdfrwt>
<totfact> 0.23345519E+04</totfact>
</mgrwt>
</event>
<event>
 7    1  0.1247599E-009  0.9230689E+02  0.7818608E-02  0.1297359E+00
         -3   -1    0    0    0  501 -0.00000000000E+00  0.00000000000E+00  0.92273843603E+01  0.92279371006E+01  0.10100000000E+00 0.  1.
          3   -1    0    0  501    0  0.00000000000E+00 -0.00000000000E+00 -0.23084237585E+03  0.23084239794E+03  0.10100000000E+00 0. -1.
         23    2    1    2    0    0  0.00000000000E+00  0.00000000000E+00 -0.22161499149E+03  0.24007033504E+03  0.92306886612E+02 0.  0.
    9000005    2    3    3    0    0 -0.14327156255E+02 -0.42788598159E+02 -0.90924385583E+02  0.10180911123E+03  0.78561884574E+01 0.  0.
         22    1    3    3    0    0  0.14327156255E+02  0.42788598159E+02 -0.13069060590E+03  0.13826122381E+03  0.00000000000E+00 0.  1.
         22    1    4    4    0    0  0.89624751621E+00 -0.23736737688E+01 -0.38142067749E+01  0.45810217302E+01  0.00000000000E+00 0. -1.
         22    1    4    4    0    0 -0.15223403771E+02 -0.40414924390E+02 -0.87110178808E+02  0.97228089500E+02  0.00000000000E+00 0. -1.
<mgrwt>
<rscale>  0 0.92306887E+02</rscale>
<asrwt>0</asrwt>
<pdfrwt beam="2">  1        3 0.35514252E-01 0.92306887E+02</pdfrwt>
<pdfrwt beam="1">  1       -3 0.14196420E-02 0.92306887E+02</pdfrwt>
<totfact> 0.25683563E+04</totfact>
</mgrwt>
</event>
<event>
 6    1  0.1247599E-009  0.4609237E+02  0.7818608E-02  0.1467635E+00
          3   -1    0    0  501    0  0.00000000000E+00  0.00000000000E+00  0.26456576709E+03  0.26456578637E+03  0.10100000000E+00 0. -1.
         -3   -1    0    0    0  501 -0.00000000000E+00 -0.00000000000E+00 -0.20062514418E+01  0.20087921365E+01  0.10100000000E+00 0.  1.
    9000005    2    1    2    0    0  0.12542555831E+02 -0.12748010539E+01  0.23997118618E+03  0.24070619137E+03  0.13941289247E+02 0.  0.
         22    1    1    2    0    0 -0.12542555831E+02  0.12748010539E+01  0.22588329470E+02  0.25868387130E+02  0.00000000000E+00 0.  1.
         22    1    3    3    0    0  0.13259758671E+01  0.26529959581E+01  0.10061224898E+02  0.10489272902E+02  0.00000000000E+00 0.  1.
         22    1    3    3    0    0  0.11216579964E+02 -0.39277970120E+01  0.22990996128E+03  0.23021691847E+03  0.00000000000E+00 0.  1.
<mgrwt>
<rscale>  0 0.46092371E+02</rscale>
<asrwt>0</asrwt>
<pdfrwt beam="1">  1        3 0.40702598E-01 0.46092371E+02</pdfrwt>
<pdfrwt beam="2">  1       -3 0.30885117E-03 0.46092371E+02</pdfrwt>
<totfact> 0.14697371E+05</totfact>
</mgrwt>
</event>
<event>
 7    1  0.1247599E-009  0.9124409E+02  0.7818608E-02  0.1299867E+00
         -3   -1    0    0    0  501 -0.00000000000E+00  0.00000000000E+00  0.12970215227E+02  0.12970608468E+02  0.10100000000E+00 0.  1.
          3   -1    0    0  501    0  0.00000000000E+00 -0.00000000000E+00 -0.16047029714E+03  0.16047032892E+03  0.10100000000E+00 0. -1.
         23    2    1    2    0    0 -0.35527136788E-14  0.00000000000E+00 -0.14750008191E+03  0.17344093739E+03  0.91244093503E+02 0.  0.
    9000005    2    3    3    0    0  0.25877433211E+02 -0.49197206833E+01 -0.33130346179E+01  0.26867577572E+02  0.41285984342E+01 0.  0.
         22    1    3    3    0    0 -0.25877433211E+02  0.49197206833E+01 -0.14418704730E+03  0.14657335982E+03  0.00000000000E+00 0. -1.
         22    1    4    4    0    0  0.28865136534E+01 -0.14995201070E+01  0.56763944082E+00  0.33019291569E+01  0.00000000000E+00 0. -1.
         22    1    4    4    0    0  0.22990919558E+02 -0.34202005763E+01 -0.38806740587E+01  0.23565648415E+02  0.00000000000E+00 0. -1.
<mgrwt>
<rscale>  0 0.91244094E+02</rscale>
<asrwt>0</asrwt>
<pdfrwt beam="2">  1        3 0.24687769E-01 0.91244094E+02</pdfrwt>
<pdfrwt beam="1">  1       -3 0.19954505E-02 0.91244094E+02</pdfrwt>
<totfact> 0.29871915E+04</totfact>
</mgrwt>
</event>
<event>
 7    1  0.1247599E-009  0.9234101E+02  0.7818608E-02  0.1297280E+00
         -3   -1    0    0    0  501 -0.00000000000E+00  0.00000000000E+00  0.30279502036E+02  0.30279670483E+02  0.10100000000E+00 0.  1.
          3   -1    0    0  501    0  0.00000000000E+00 -0.00000000000E+00 -0.70400868980E+02  0.70400941430E+02  0.10100000000E+00 0. -1.
         23    2    1    2    0    0  0.71054273576E-14  0.00000000000E+00 -0.40121366944E+02  0.10068061191E+03  0.92341006760E+02 0.  0.
    9000005    2    3    3    0    0  0.43602647662E+02  0.52071341515E+01 -0.72754121381E+01  0.45843016448E+02  0.10970205379E+02 0.  0.
         22    1    3    3    0    0 -0.43602647662E+02 -0.52071341515E+01 -0.32845954806E+02  0.54837595464E+02  0.00000000000E+00 0. -1.
         22    1    4    4    0    0  0.43392991597E+02  0.44511780443E+01 -0.55815878044E+01  0.43976343960E+02  0.00000000000E+00 0. -1.
         22    1    4    4    0    0  0.20965606509E+00  0.75595610724E+00 -0.16938243337E+01  0.18666724874E+01  0.00000000000E+00 0. -1.
<mgrwt>
<rscale>  0 0.92341007E+02</rscale>
<asrwt>0</asrwt>
<pdfrwt beam="2">  1        3 0.10830921E-01 0.92341007E+02</pdfrwt>
<pdfrwt beam="1">  1       -3 0.46584035E-02 0.92341007E+02</pdfrwt>
<totfact> 0.33442766E+04</totfact>
</mgrwt>
</event>
<event>
 7    1  0.1247599E-009  0.8340257E+02  0.7818608E-02  0.1319664E+00
         -3   -1    0    0    0  501 -0.00000000000E+00  0.00000000000E+00  0.72462722473E+02  0.72462792861E+02  0.10100000000E+00 0.  1.
          3   -1    0    0  501    0  0.00000000000E+00 -0.00000000000E+00 -0.23998320393E+02  0.23998532928E+02  0.10100000000E+00 0. -1.
         23    2    1    2    0    0 -0.71054273576E-14  0.00000000000E+00  0.48464402080E+02  0.96461325788E+02  0.83402572526E+02 0.  0.
    9000005    2    3    3    0    0  0.37748716176E+02  0.12370106374E+02  0.34849443553E+02  0.54469038397E+02  0.13206336481E+02 0.  0.
         22    1    3    3    0    0 -0.37748716176E+02 -0.12370106374E+02  0.13614958527E+02  0.41992287391E+02  0.00000000000E+00 0. -1.
         22    1    4    4    0    0  0.33646498683E+02  0.91696664014E+01  0.23698074027E+02  0.42163590550E+02  0.00000000000E+00 0.  1.
         22    1    4    4    0    0  0.41022174935E+01  0.32004399727E+01  0.11151369527E+02  0.12305447847E+02  0.00000000000E+00 0.  1.
<mgrwt>
<rscale>  0 0.83402573E+02</rscale>
<asrwt>0</asrwt>
<pdfrwt beam="2">  1        3 0.36920711E-02 0.83402573E+02</pdfrwt>
<pdfrwt beam="1">  1       -3 0.11148133E-01 0.83402573E+02</pdfrwt>
<totfact> 0.44460626E+04</totfact>
</mgrwt>
</event>
<event>
 6    1  0.2818653E-009  0.1447036E+03  0.7818608E-02  0.1207137E+00
         -3   -1    0    0    0  501 -0.00000000000E+00  0.00000000000E+00  0.13930939990E+03  0.13930943651E+03  0.10100000000E+00 0.  1.
          3   -1    0    0  501    0  0.00000000000E+00 -0.00000000000E+00 -0.37576537695E+02  0.37576673431E+02  0.10100000000E+00 0. -1.
    9000005    2    1    2    0    0 -0.34394281607E+02 -0.30203863774E+02  0.11860867320E+03  0.12810052815E+03  0.15699935040E+02 0.  0.
         22    1    1    2    0    0  0.34394281607E+02  0.30203863774E+02 -0.16875810994E+02  0.48785581793E+02  0.00000000000E+00 0. -1.
         22    1    3    3    0    0 -0.18637293998E+02 -0.24646017595E+02  0.65439471581E+02  0.72367806044E+02  0.00000000000E+00 0. -1.
         22    1    3    3    0    0 -0.15756987609E+02 -0.55578461791E+01  0.53169201618E+02  0.55732722106E+02  0.00000000000E+00 0. -1.
<mgrwt>
<rscale>  0 0.14470356E+03</rscale>
<asrwt>0</asrwt>
<pdfrwt beam="2">  1        3 0.57810191E-02 0.14470356E+03</pdfrwt>
<pdfrwt beam="1">  1       -3 0.21432228E-01 0.14470356E+03</pdfrwt>
<totfact> 0.82310034E+03</totfact>
</mgrwt>
</event>
<event>
 7    1  0.1247599E-009  0.9178149E+02  0.7818608E-02  0.1298594E+00
         -3   -1    0    0    0  501 -0.00000000000E+00  0.00000000000E+00  0.36093529207E+02  0.36093670520E+02  0.10100000000E+00 0.  1.
          3   -1    0    0  501    0  0.00000000000E+00 -0.00000000000E+00 -0.58347018948E+02  0.58347106365E+02  0.10100000000E+00 0. -1.
         23    2    1    2    0    0  0.17763568394E-14  0.00000000000E+00 -0.22253489741E+02  0.94440776884E+02  0.91781493411E+02 0.  0.
    9000005    2    3    3    0    0 -0.85608592348E+01 -0.33555082774E+02 -0.41244878407E+02  0.54945147579E+02  0.10890241361E+02 0.  0.
         22    1    3    3    0    0  0.85608592348E+01  0.33555082774E+02  0.18991388665E+02  0.39495629305E+02  0.00000000000E+00 0.  1.
         22    1    4    4    0    0 -0.24848212339E+01 -0.17300510405E+02 -0.12949874356E+02  0.21752729545E+02  0.00000000000E+00 0.  1.
         22    1    4    4    0    0 -0.60760380009E+01 -0.16254572368E+02 -0.28295004051E+02  0.33192418034E+02  0.00000000000E+00 0.  1.
<mgrwt>
<rscale>  0 0.91781493E+02</rscale>
<asrwt>0</asrwt>
<pdfrwt beam="2">  1        3 0.89764821E-02 0.91781493E+02</pdfrwt>
<pdfrwt beam="1">  1       -3 0.55528682E-02 0.91781493E+02</pdfrwt>
<totfact> 0.34461998E+04</totfact>
</mgrwt>
</event>
<event>
 7    1  0.1247599E-009  0.9036342E+02  0.7818608E-02  0.1301974E+00
         -3   -1    0    0    0  501 -0.00000000000E+00  0.00000000000E+00  0.75318966905E+01  0.75325738468E+01  0.10100000000E+00 0.  1.
          3   -1    0    0  501    0  0.00000000000E+00 -0.00000000000E+00 -0.27101936629E+03  0.27101938511E+03  0.10100000000E+00 0. -1.
         23    2    1    2    0    0  0.35527136788E-14  0.00000000000E+00 -0.26348746960E+03  0.27855195895E+03  0.90363417391E+02 0.  0.
    9000005    2    3    3    0    0  0.31500972745E+02  0.24842305993E+01 -0.23126772695E+03  0.23342331504E+03  0.17887954309E+01 0.  0.
         22    1    3    3    0    0 -0.31500972745E+02 -0.24842305993E+01 -0.32219742650E+02  0.45128643919E+02  0.00000000000E+00 0.  1.
         22    1    4    4    0    0  0.21569239233E+02  0.23530561752E+01 -0.16239878966E+03  0.16384180125E+03  0.00000000000E+00 0. -1.
         22    1    4    4    0    0  0.99317335120E+01  0.13117442407E+00 -0.68868937287E+02  0.69581513783E+02  0.00000000000E+00 0. -1.
<mgrwt>
<rscale>  0 0.90363417E+02</rscale>
<asrwt>0</asrwt>
<pdfrwt beam="2">  1        3 0.41695333E-01 0.90363417E+02</pdfrwt>
<pdfrwt beam="1">  1       -3 0.11588071E-02 0.90363417E+02</pdfrwt>
<totfact> 0.25490881E+04</totfact>
</mgrwt>
</event>
<event>
 7    1  0.1247599E-009  0.9109089E+02  0.7818608E-02  0.1300231E+00
          3   -1    0    0  501    0  0.00000000000E+00  0.00000000000E+00  0.21244325715E+01  0.21268320928E+01  0.10100000000E+00 0. -1.
         -3   -1    0    0    0  501 -0.00000000000E+00 -0.00000000000E+00 -0.97588962614E+03  0.97588963137E+03  0.10100000000E+00 0.  1.
         23    2    1    2    0    0  0.00000000000E+00 -0.35527136788E-14 -0.97376519357E+03  0.97801646346E+03  0.91090891927E+02 0.  0.
    9000005    2    3    3    0    0 -0.45553445461E+01 -0.21749288467E+02 -0.91327123712E+03  0.91357035047E+03  0.72560315281E+01 0.  0.
         22    1    3    3    0    0  0.45553445461E+01  0.21749288467E+02 -0.60493956456E+02  0.64446112997E+02  0.00000000000E+00 0. -1.
         22    1    4    4    0    0  0.14486160192E+01 -0.68986234366E+01 -0.35202973201E+03  0.35210030064E+03  0.00000000000E+00 0.  1.
         22    1    4    4    0    0 -0.60039605653E+01 -0.14850665031E+02 -0.56124150511E+03  0.56147004983E+03  0.00000000000E+00 0.  1.
<mgrwt>
<rscale>  0 0.91090892E+02</rscale>
<asrwt>0</asrwt>
<pdfrwt beam="1">  1        3 0.32702154E-03 0.91090892E+02</pdfrwt>
<pdfrwt beam="2">  1       -3 0.15013669E+00 0.91090892E+02</pdfrwt>
<totfact> 0.10235411E+04</totfact>
</mgrwt>
</event>
<event>
 7    1  0.1247599E-009  0.9267130E+02  0.7818608E-02  0.1296509E+00
         -3   -1    0    0    0  501 -0.00000000000E+00  0.00000000000E+00  0.24873430693E+02  0.24873635750E+02  0.10100000000E+00 0.  1.
          3   -1    0    0  501    0  0.00000000000E+00 -0.00000000000E+00 -0.86316103823E+02  0.86316162914E+02  0.10100000000E+00 0. -1.
         23    2    1    2    0    0 -0.35527136788E-14  0.00000000000E+00 -0.61442673130E+02  0.11118979866E+03  0.92671296773E+02 0.  0.
    9000005    2    3    3    0    0  0.21886123093E+02  0.17181955367E+02  0.13706249650E+02  0.31055021137E+02  0.15267888117E+01 0.  0.
         22    1    3    3    0    0 -0.21886123093E+02 -0.17181955367E+02 -0.75148922780E+02  0.80134777527E+02  0.00000000000E+00 0. -1.
         22    1    4    4    0    0  0.77822862445E+01  0.69314705228E+01  0.55273225062E+01  0.11796633286E+02  0.00000000000E+00 0. -1.
         22    1    4    4    0    0  0.14103836849E+02  0.10250484844E+02  0.81789271442E+01  0.19258387851E+02  0.00000000000E+00 0. -1.
<mgrwt>
<rscale>  0 0.92671297E+02</rscale>
<asrwt>0</asrwt>
<pdfrwt beam="2">  1        3 0.13279421E-01 0.92671297E+02</pdfrwt>
<pdfrwt beam="1">  1       -3 0.38267020E-02 0.92671297E+02</pdfrwt>
<totfact> 0.32392798E+04</totfact>
</mgrwt>
</event>
<event>
 7    1  0.1247599E-009  0.9118594E+02  0.7818608E-02  0.1300005E+00
          3   -1    0    0  501    0  0.00000000000E+00  0.00000000000E+00  0.20864247254E+03  0.20864249698E+03  0.10100000000E+00 0. -1.
         -3   -1    0    0    0  501 -0.00000000000E+00 -0.00000000000E+00 -0.99627868608E+01  0.99632988028E+01  0.10100000000E+00 0.  1.
         23    2    1    2    0    0  0.00000000000E+00  0.00000000000E+00  0.19867968568E+03  0.21860579579E+03  0.91185944371E+02 0.  0.
    9000005    2    3    3    0    0 -0.28747658009E+02  0.28159169990E+02  0.53119066448E+02  0.67585066859E+02  0.11257857104E+02 0.  0.
         22    1    3    3    0    0  0.28747658009E+02 -0.28159169990E+02  0.14556061923E+03  0.15102072893E+03  0.00000000000E+00 0. -1.
         22    1    4    4    0    0 -0.63884234845E+01  0.30469263617E+01  0.16032781088E+02  0.17525575149E+02  0.00000000000E+00 0.  1.
         22    1    4    4    0    0 -0.22359234524E+02  0.25112243628E+02  0.37086285360E+02  0.50059491711E+02  0.00000000000E+00 0.  1.
<mgrwt>
<rscale>  0 0.91185944E+02</rscale>
<asrwt>0</asrwt>
<pdfrwt beam="1">  1        3 0.32098883E-01 0.91185944E+02</pdfrwt>
<pdfrwt beam="2">  1       -3 0.15327777E-02 0.91185944E+02</pdfrwt>
<totfact> 0.27557013E+04</totfact>
</mgrwt>
</event>
<event>
 7    1  0.1247599E-009  0.9199273E+02  0.7818608E-02  0.1298097E+00
          3   -1    0    0  501    0  0.00000000000E+00  0.00000000000E+00  0.46429832796E+03  0.46429833894E+03  0.10100000000E+00 0. -1.
         -3   -1    0    0    0  501 -0.00000000000E+00 -0.00000000000E+00 -0.45561240271E+01  0.45572433718E+01  0.10100000000E+00 0.  1.
         23    2    1    2    0    0  0.00000000000E+00 -0.44408920985E-15  0.45974220393E+03  0.46885558232E+03  0.91992733370E+02 0.  0.
    9000005    2    3    3    0    0 -0.27579121107E+02 -0.30996277838E+01  0.41679626249E+03  0.41772272107E+03  0.17122072714E+01 0.  0.
         22    1    3    3    0    0  0.27579121107E+02  0.30996277838E+01  0.42945941436E+02  0.51132861247E+02  0.00000000000E+00 0.  1.
         22    1    4    4    0    0 -0.19455253512E-01 -0.74384550443E-01  0.15520504942E+01  0.15539537654E+01  0.00000000000E+00 0.  1.
         22    1    4    4    0    0 -0.27559665854E+02 -0.30252432333E+01  0.41524421200E+03  0.41616876730E+03  0.00000000000E+00 0.  1.
<mgrwt>
<rscale>  0 0.91992733E+02</rscale>
<asrwt>0</asrwt>
<pdfrwt beam="1">  1        3 0.71430578E-01 0.91992733E+02</pdfrwt>
<pdfrwt beam="2">  1       -3 0.70102931E-03 0.91992733E+02</pdfrwt>
<totfact> 0.18251002E+04</totfact>
</mgrwt>
</event>
<event>
 7    1  0.1247599E-009  0.9064183E+02  0.7818608E-02  0.1301305E+00
         -3   -1    0    0    0  501 -0.00000000000E+00  0.00000000000E+00  0.10289124281E+03  0.10289129238E+03  0.10100000000E+00 0.  1.
          3   -1    0    0  501    0  0.00000000000E+00 -0.00000000000E+00 -0.19962503632E+02  0.19962759134E+02  0.10100000000E+00 0. -1.
         23    2    1    2    0    0 -0.71054273576E-14  0.00000000000E+00  0.82928739177E+02  0.12285405151E+03  0.90641834669E+02 0.  0.
    9000005    2    3    3    0    0  0.33181485960E+02  0.22471611326E+02  0.16413303129E+02  0.45199125343E+02  0.12945272731E+02 0.  0.
         22    1    3    3    0    0 -0.33181485960E+02 -0.22471611326E+02  0.66515436048E+02  0.77654926172E+02  0.00000000000E+00 0.  1.
         22    1    4    4    0    0  0.35150301813E+01 -0.93320189218E+00 -0.72258994842E+00  0.37078887767E+01  0.00000000000E+00 0.  1.
         22    1    4    4    0    0  0.29666455779E+02  0.23404813218E+02  0.17135893077E+02  0.41491236566E+02  0.00000000000E+00 0.  1.
<mgrwt>
<rscale>  0 0.90641835E+02</rscale>
<asrwt>0</asrwt>
<pdfrwt beam="2">  1        3 0.30711778E-02 0.90641835E+02</pdfrwt>
<pdfrwt beam="1">  1       -3 0.15829446E-01 0.90641835E+02</pdfrwt>
<totfact> 0.33585723E+04</totfact>
</mgrwt>
</event>
<event>
 7    1  0.1247599E-009  0.9174152E+02  0.7818608E-02  0.1298688E+00
          3   -1    0    0  501    0  0.00000000000E+00  0.00000000000E+00  0.48615628910E+01  0.48626119261E+01  0.10100000000E+00 0. -1.
         -3   -1    0    0    0  501 -0.00000000000E+00 -0.00000000000E+00 -0.43276090472E+03  0.43276091650E+03  0.10100000000E+00 0.  1.
         23    2    1    2    0    0  0.00000000000E+00  0.00000000000E+00 -0.42789934183E+03  0.43762352843E+03  0.91741516772E+02 0.  0.
    9000005    2    3    3    0    0  0.11489553666E+02  0.27256512599E+02 -0.38107505119E+03  0.38223904038E+03  0.36826663895E+01 0.  0.
         22    1    3    3    0    0 -0.11489553666E+02 -0.27256512599E+02 -0.46824290640E+02  0.55384488049E+02  0.00000000000E+00 0. -1.
         22    1    4    4    0    0  0.82131619405E+01  0.20279420962E+02 -0.26006606679E+03  0.26098480806E+03  0.00000000000E+00 0.  1.
         22    1    4    4    0    0  0.32763917254E+01  0.69770916373E+01 -0.12100898440E+03  0.12125423232E+03  0.00000000000E+00 0.  1.
<mgrwt>
<rscale>  0 0.91741517E+02</rscale>
<asrwt>0</asrwt>
<pdfrwt beam="1">  1        3 0.74801470E-03 0.91741517E+02</pdfrwt>
<pdfrwt beam="2">  1       -3 0.66578652E-01 0.91741517E+02</pdfrwt>
<totfact> 0.19190087E+04</totfact>
</mgrwt>
</event>
<event>
 7    1  0.1247599E-009  0.9077478E+02  0.7818608E-02  0.1300986E+00
          3   -1    0    0  501    0  0.00000000000E+00  0.00000000000E+00  0.30633804674E+03  0.30633806339E+03  0.10100000000E+00 0. -1.
         -3   -1    0    0    0  501 -0.00000000000E+00 -0.00000000000E+00 -0.67242501427E+01  0.67250086231E+01  0.10100000000E+00 0.  1.
         23    2    1    2    0    0  0.00000000000E+00 -0.88817841970E-15  0.29961379660E+03  0.31306307201E+03  0.90774775939E+02 0.  0.
    9000005    2    3    3    0    0 -0.31312929820E+02 -0.49645447583E+01  0.25971091871E+03  0.26209851627E+03  0.15515303859E+02 0.  0.
         22    1    3    3    0    0  0.31312929820E+02  0.49645447583E+01  0.39902877885E+02  0.50964555743E+02  0.00000000000E+00 0.  1.
         22    1    4    4    0    0  0.17759416198E+01 -0.54248634658E+00  0.17404538958E+02  0.17503320725E+02  0.00000000000E+00 0. -1.
         22    1    4    4    0    0 -0.33088871440E+02 -0.44220584117E+01  0.24230637975E+03  0.24459519554E+03  0.00000000000E+00 0. -1.
<mgrwt>
<rscale>  0 0.90774776E+02</rscale>
<asrwt>0</asrwt>
<pdfrwt beam="1">  1        3 0.47128993E-01 0.90774776E+02</pdfrwt>
<pdfrwt beam="2">  1       -3 0.10345596E-02 0.90774776E+02</pdfrwt>
<totfact> 0.23814978E+04</totfact>
</mgrwt>
</event>
<event>
 7    1  0.1247599E-009  0.1068965E+03  0.7818608E-02  0.1266427E+00
         -3   -1    0    0    0  501 -0.00000000000E+00  0.00000000000E+00  0.16393290459E+02  0.16393601589E+02  0.10100000000E+00 0.  1.
          3   -1    0    0  501    0  0.00000000000E+00 -0.00000000000E+00 -0.17425941852E+03  0.17425944779E+03  0.10100000000E+00 0. -1.
         23    2    1    2    0    0  0.44408920985E-15  0.00000000000E+00 -0.15786612806E+03  0.19065304937E+03  0.10689654273E+03 0.  0.
    9000005    2    3    3    0    0 -0.28735198610E+01  0.37627929574E+02 -0.14990851955E+02  0.42878008445E+02  0.13772427727E+02 0.  0.
         22    1    3    3    0    0  0.28735198610E+01 -0.37627929574E+02 -0.14287527610E+03  0.14777504093E+03  0.00000000000E+00 0. -1.
         22    1    4    4    0    0 -0.43995692777E+01  0.38105951623E+01  0.84982153376E-01  0.58210022579E+01  0.00000000000E+00 0.  1.
         22    1    4    4    0    0  0.15260494167E+01  0.33817334411E+02 -0.15075834108E+02  0.37057006187E+02  0.00000000000E+00 0.  1.
<mgrwt>
<rscale>  0 0.10689654E+03</rscale>
<asrwt>0</asrwt>
<pdfrwt beam="2">  1        3 0.26809166E-01 0.10689654E+03</pdfrwt>
<pdfrwt beam="1">  1       -3 0.25220710E-02 0.10689654E+03</pdfrwt>
<totfact> 0.18787173E+04</totfact>
</mgrwt>
</event>
<event>
 7    1  0.1247599E-009  0.8989915E+02  0.7818608E-02  0.1303096E+00
         -3   -1    0    0    0  501 -0.00000000000E+00  0.00000000000E+00  0.42160597822E+01  0.42172693875E+01  0.10100000000E+00 0.  1.
          3   -1    0    0  501    0  0.00000000000E+00 -0.00000000000E+00 -0.47916051717E+03  0.47916052781E+03  0.10100000000E+00 0. -1.
         23    2    1    2    0    0  0.00000000000E+00  0.00000000000E+00 -0.47494445738E+03  0.48337779720E+03  0.89899150299E+02 0.  0.
    9000005    2    3    3    0    0 -0.22111781896E+02  0.59425812086E+01 -0.44486412650E+03  0.44557473547E+03  0.10416749574E+02 0.  0.
         22    1    3    3    0    0  0.22111781896E+02 -0.59425812086E+01 -0.30080330887E+02  0.37803061732E+02  0.00000000000E+00 0.  1.
         22    1    4    4    0    0  0.11177838900E+01 -0.17044035933E+00 -0.21585207050E+02  0.21614801737E+02  0.00000000000E+00 0.  1.
         22    1    4    4    0    0 -0.23229565786E+02  0.61130215679E+01 -0.42327891945E+03  0.42395993373E+03  0.00000000000E+00 0.  1.
<mgrwt>
<rscale>  0 0.89899150E+02</rscale>
<asrwt>0</asrwt>
<pdfrwt beam="2">  1        3 0.73717054E-01 0.89899150E+02</pdfrwt>
<pdfrwt beam="1">  1       -3 0.64871883E-03 0.89899150E+02</pdfrwt>
<totfact> 0.19023420E+04</totfact>
</mgrwt>
</event>
<event>
 7    1  0.1247599E-009  0.9493907E+02  0.7818608E-02  0.1291313E+00
         -3   -1    0    0    0  501 -0.00000000000E+00  0.00000000000E+00  0.96221700648E+02  0.96221753656E+02  0.10100000000E+00 0.  1.
          3   -1    0    0  501    0  0.00000000000E+00 -0.00000000000E+00 -0.23418217192E+02  0.23418434991E+02  0.10100000000E+00 0. -1.
         23    2    1    2    0    0  0.00000000000E+00  0.00000000000E+00  0.72803483456E+02  0.11964018865E+03  0.94939072758E+02 0.  0.
    9000005    2    3    3    0    0 -0.81737712596E+01  0.18637156641E+02 -0.15903656608E+02  0.28628591350E+02  0.12349728942E+02 0.  0.
         22    1    3    3    0    0  0.81737712596E+01 -0.18637156641E+02  0.88707140064E+02  0.91011597297E+02  0.00000000000E+00 0.  1.
         22    1    4    4    0    0  0.19195490144E+01  0.14529767247E+01  0.89047462753E+00  0.25668569971E+01  0.00000000000E+00 0. -1.
         22    1    4    4    0    0 -0.10093320274E+02  0.17184179916E+02 -0.16794131235E+02  0.26061734353E+02  0.00000000000E+00 0. -1.
<mgrwt>
<rscale>  0 0.94939073E+02</rscale>
<asrwt>0</asrwt>
<pdfrwt beam="2">  1        3 0.36028235E-02 0.94939073E+02</pdfrwt>
<pdfrwt beam="1">  1       -3 0.14803359E-01 0.94939073E+02</pdfrwt>
<totfact> 0.29799564E+04</totfact>
</mgrwt>
</event>
<event>
 6    1  0.1335595E-009  0.1334926E+03  0.7818608E-02  0.1222363E+00
          3   -1    0    0  501    0  0.00000000000E+00  0.00000000000E+00  0.23196077066E+03  0.23196079265E+03  0.10100000000E+00 0. -1.
         -3   -1    0    0    0  501 -0.00000000000E+00 -0.00000000000E+00 -0.19205986589E+02  0.19206252155E+02  0.10100000000E+00 0.  1.
    9000005    2    1    2    0    0 -0.49709119417E+02 -0.34723554989E+02  0.59648365853E+02  0.86490704294E+02  0.15684149836E+02 0.  0.
         22    1    1    2    0    0  0.49709119417E+02  0.34723554989E+02  0.15310641821E+03  0.16467634051E+03  0.00000000000E+00 0. -1.
         22    1    3    3    0    0  0.94779971822E+00 -0.59951894488E+00  0.50346218720E-02  0.11215046226E+01  0.00000000000E+00 0.  1.
         22    1    3    3    0    0 -0.50656919135E+02 -0.34124036044E+02  0.59643331231E+02  0.85369199671E+02  0.00000000000E+00 0.  1.
<mgrwt>
<rscale>  0 0.13349264E+03</rscale>
<asrwt>0</asrwt>
<pdfrwt beam="1">  1        3 0.35686293E-01 0.13349264E+03</pdfrwt>
<pdfrwt beam="2">  1       -3 0.29547894E-02 0.13349264E+03</pdfrwt>
<totfact> 0.91199991E+03</totfact>
</mgrwt>
</event>
<event>
 7    1  0.1247599E-009  0.9214215E+02  0.7818608E-02  0.1297746E+00
          3   -1    0    0  501    0  0.00000000000E+00  0.00000000000E+00  0.41783409002E+01  0.41795614217E+01  0.10100000000E+00 0. -1.
         -3   -1    0    0    0  501 -0.00000000000E+00 -0.00000000000E+00 -0.50791189875E+03  0.50791190879E+03  0.10100000000E+00 0.  1.
         23    2    1    2    0    0  0.00000000000E+00  0.00000000000E+00 -0.50373355785E+03  0.51209147021E+03  0.92142154097E+02 0.  0.
    9000005    2    3    3    0    0  0.10187977764E+02 -0.11070867138E+01 -0.50121971137E+03  0.50153969520E+03  0.14691707194E+02 0.  0.
         22    1    3    3    0    0 -0.10187977764E+02  0.11070867138E+01 -0.25138464818E+01  0.10551775019E+02  0.00000000000E+00 0. -1.
         22    1    4    4    0    0  0.42153702648E+00 -0.37595629335E+01 -0.33903876869E+02  0.34114291341E+02  0.00000000000E+00 0.  1.
         22    1    4    4    0    0  0.97664407379E+01  0.26524762197E+01 -0.46731583450E+03  0.46742540385E+03  0.00000000000E+00 0.  1.
<mgrwt>
<rscale>  0 0.92142154E+02</rscale>
<asrwt>0</asrwt>
<pdfrwt beam="1">  1        3 0.64291674E-03 0.92142154E+02</pdfrwt>
<pdfrwt beam="2">  1       -3 0.78140338E-01 0.92142154E+02</pdfrwt>
<totfact> 0.17113262E+04</totfact>
</mgrwt>
</event>
<event>
 7    1  0.1247599E-009  0.6101560E+02  0.7818608E-02  0.1393619E+00
          3   -1    0    0  501    0  0.00000000000E+00  0.00000000000E+00  0.78994988136E+02  0.78995052704E+02  0.10100000000E+00 0. -1.
         -3   -1    0    0    0  501 -0.00000000000E+00 -0.00000000000E+00 -0.11781799992E+02  0.11782232897E+02  0.10100000000E+00 0.  1.
         23    2    1    2    0    0  0.00000000000E+00  0.00000000000E+00  0.67213188145E+02  0.90777285601E+02  0.61015595716E+02 0.  0.
    9000005    2    3    3    0    0  0.20560236778E+02  0.21327051142E+02  0.35271812861E+02  0.47213333740E+02  0.10364924196E+02 0.  0.
         22    1    3    3    0    0 -0.20560236778E+02 -0.21327051142E+02  0.31941375283E+02  0.43563951861E+02  0.00000000000E+00 0.  1.
         22    1    4    4    0    0  0.14452352133E+02  0.20680846580E+02  0.27831030294E+02  0.37565065482E+02  0.00000000000E+00 0. -1.
         22    1    4    4    0    0  0.61078846448E+01  0.64620456153E+00  0.74407825670E+01  0.96482682581E+01  0.00000000000E+00 0. -1.
<mgrwt>
<rscale>  0 0.61015596E+02</rscale>
<asrwt>0</asrwt>
<pdfrwt beam="1">  1        3 0.12153114E-01 0.61015596E+02</pdfrwt>
<pdfrwt beam="2">  1       -3 0.18126229E-02 0.61015596E+02</pdfrwt>
<totfact> 0.10271854E+05</totfact>
</mgrwt>
</event>
<event>
 7    1  0.1247599E-009  0.9020194E+02  0.7818608E-02  0.1302363E+00
          3   -1    0    0  501    0  0.00000000000E+00  0.00000000000E+00  0.20631342986E+03  0.20631345458E+03  0.10100000000E+00 0. -1.
         -3   -1    0    0    0  501 -0.00000000000E+00 -0.00000000000E+00 -0.98589752984E+01  0.98594926307E+01  0.10100000000E+00 0.  1.
         23    2    1    2    0    0  0.71054273576E-14  0.00000000000E+00  0.19645445456E+03  0.21617294721E+03  0.90201942272E+02 0.  0.
    9000005    2    3    3    0    0  0.32546413285E+02 -0.27376015667E+02  0.67089046423E+02  0.79996135404E+02  0.94723955841E+01 0.  0.
         22    1    3    3    0    0 -0.32546413285E+02  0.27376015667E+02  0.12936540814E+03  0.13617681181E+03  0.00000000000E+00 0. -1.
         22    1    4    4    0    0  0.30649361612E+01 -0.18756923571E-01  0.27345711688E+01  0.41075619255E+01  0.00000000000E+00 0. -1.
         22    1    4    4    0    0  0.29481477124E+02 -0.27357258743E+02  0.64354475254E+02  0.75888573479E+02  0.00000000000E+00 0. -1.
<mgrwt>
<rscale>  0 0.90201942E+02</rscale>
<asrwt>0</asrwt>
<pdfrwt beam="1">  1        3 0.31740571E-01 0.90201942E+02</pdfrwt>
<pdfrwt beam="2">  1       -3 0.15168071E-02 0.90201942E+02</pdfrwt>
<totfact> 0.28495893E+04</totfact>
</mgrwt>
</event>
<event>
 6    1  0.1247599E-009  0.1454867E+03  0.7818608E-02  0.1206131E+00
          3   -1    0    0  501    0  0.00000000000E+00  0.00000000000E+00  0.95349683467E+01  0.95355032574E+01  0.10100000000E+00 0. -1.
         -3   -1    0    0    0  501 -0.00000000000E+00 -0.00000000000E+00 -0.55495148163E+03  0.55495149082E+03  0.10100000000E+00 0.  1.
    9000005    2    1    2    0    0  0.33598227239E+02  0.50310573225E+02 -0.42814925180E+03  0.43253395218E+03  0.10669738252E+02 0.  0.
         22    1    1    2    0    0 -0.33598227239E+02 -0.50310573225E+02 -0.11726726148E+03  0.13195304190E+03  0.00000000000E+00 0. -1.
         22    1    3    3    0    0  0.47801243238E+01  0.15543740549E+02 -0.10966760631E+03  0.11086677289E+03  0.00000000000E+00 0. -1.
         22    1    3    3    0    0  0.28818102915E+02  0.34766832676E+02 -0.31848164550E+03  0.32166717928E+03  0.00000000000E+00 0. -1.
<mgrwt>
<rscale>  0 0.14548675E+03</rscale>
<asrwt>0</asrwt>
<pdfrwt beam="1">  1        3 0.14669605E-02 0.14548675E+03</pdfrwt>
<pdfrwt beam="2">  1       -3 0.85377167E-01 0.14548675E+03</pdfrwt>
<totfact> 0.45709476E+03</totfact>
</mgrwt>
</event>
<event>
 7    1  0.1247599E-009  0.9309999E+02  0.7818608E-02  0.1295514E+00
          3   -1    0    0  501    0  0.00000000000E+00  0.00000000000E+00  0.25866189683E+02  0.25866386870E+02  0.10100000000E+00 0. -1.
         -3   -1    0    0    0  501 -0.00000000000E+00 -0.00000000000E+00 -0.83772988215E+02  0.83773049100E+02  0.10100000000E+00 0.  1.
         23    2    1    2    0    0  0.00000000000E+00  0.00000000000E+00 -0.57906798533E+02  0.10963943597E+03  0.93099992500E+02 0.  0.
    9000005    2    3    3    0    0 -0.22161585823E+02  0.24484751803E+02  0.95701349470E+01  0.34514370187E+02  0.30025504864E+01 0.  0.
         22    1    3    3    0    0  0.22161585823E+02 -0.24484751803E+02 -0.67476933480E+02  0.75125065783E+02  0.00000000000E+00 0.  1.
         22    1    4    4    0    0 -0.15275985496E+01  0.13270530954E+01 -0.97468453829E-01  0.20258645923E+01  0.00000000000E+00 0.  1.
         22    1    4    4    0    0 -0.20633987274E+02  0.23157698708E+02  0.96676034008E+01  0.32488505595E+02  0.00000000000E+00 0.  1.
<mgrwt>
<rscale>  0 0.93099992E+02</rscale>
<asrwt>0</asrwt>
<pdfrwt beam="1">  1        3 0.39794337E-02 0.93099992E+02</pdfrwt>
<pdfrwt beam="2">  1       -3 0.12888172E-01 0.93099992E+02</pdfrwt>
<totfact> 0.32093045E+04</totfact>
</mgrwt>
</event>
<event>
 7    1  0.1247599E-009  0.9327479E+02  0.7818608E-02  0.1295110E+00
         -3   -1    0    0    0  501 -0.00000000000E+00  0.00000000000E+00  0.50788419940E+02  0.50788520366E+02  0.10100000000E+00 0.  1.
          3   -1    0    0  501    0  0.00000000000E+00 -0.00000000000E+00 -0.42825442430E+02  0.42825561530E+02  0.10100000000E+00 0. -1.
         23    2    1    2    0    0  0.00000000000E+00 -0.35527136788E-14  0.79629775095E+01  0.93614081896E+02  0.93274794657E+02 0.  0.
    9000005    2    3    3    0    0 -0.11984390748E+02  0.30884194194E+02 -0.28324180545E+02  0.44479400536E+02  0.88712341784E+01 0.  0.
         22    1    3    3    0    0  0.11984390748E+02 -0.30884194194E+02  0.36287158055E+02  0.49134681360E+02  0.00000000000E+00 0.  1.
         22    1    4    4    0    0 -0.10473472458E+02  0.28600494465E+02 -0.21953469455E+02  0.37545129245E+02  0.00000000000E+00 0. -1.
         22    1    4    4    0    0 -0.15109182901E+01  0.22836997297E+01 -0.63707110902E+01  0.69342712905E+01  0.00000000000E+00 0. -1.
<mgrwt>
<rscale>  0 0.93274795E+02</rscale>
<asrwt>0</asrwt>
<pdfrwt beam="2">  1        3 0.65885465E-02 0.93274795E+02</pdfrwt>
<pdfrwt beam="1">  1       -3 0.78136199E-02 0.93274795E+02</pdfrwt>
<totfact> 0.33034103E+04</totfact>
</mgrwt>
</event>
<event>
 7    1  0.1247599E-009  0.7927320E+02  0.7818608E-02  0.1331127E+00
          3   -1    0    0  501    0  0.00000000000E+00  0.00000000000E+00  0.26505468835E+02  0.26505661267E+02  0.10100000000E+00 0. -1.
         -3   -1    0    0    0  501 -0.00000000000E+00 -0.00000000000E+00 -0.59272606077E+02  0.59272692128E+02  0.10100000000E+00 0.  1.
         23    2    1    2    0    0  0.00000000000E+00  0.00000000000E+00 -0.32767137242E+02  0.85778353395E+02  0.79273202459E+02 0.  0.
    9000005    2    3    3    0    0  0.16507998428E+02 -0.34470225751E+02 -0.27497200813E+02  0.47197494082E+02  0.32858666597E+01 0.  0.
         22    1    3    3    0    0 -0.16507998428E+02  0.34470225751E+02 -0.52699364290E+01  0.38580859313E+02  0.00000000000E+00 0.  1.
         22    1    4    4    0    0  0.58694294608E+01 -0.14280936723E+02 -0.94439008393E+01  0.18099243601E+02  0.00000000000E+00 0.  1.
         22    1    4    4    0    0  0.10638568967E+02 -0.20189289028E+02 -0.18053299973E+02  0.29098250480E+02  0.00000000000E+00 0.  1.
<mgrwt>
<rscale>  0 0.79273202E+02</rscale>
<asrwt>0</asrwt>
<pdfrwt beam="1">  1        3 0.40777859E-02 0.79273202E+02</pdfrwt>
<pdfrwt beam="2">  1       -3 0.91188839E-02 0.79273202E+02</pdfrwt>
<totfact> 0.52180531E+04</totfact>
</mgrwt>
</event>
<event>
 7    1  0.1247599E-009  0.9194541E+02  0.7818608E-02  0.1298208E+00
          3   -1    0    0  501    0  0.00000000000E+00  0.00000000000E+00  0.16795384865E+02  0.16795688547E+02  0.10100000000E+00 0. -1.
         -3   -1    0    0    0  501 -0.00000000000E+00 -0.00000000000E+00 -0.12583604733E+03  0.12583608786E+03  0.10100000000E+00 0.  1.
         23    2    1    2    0    0 -0.17763568394E-14  0.00000000000E+00 -0.10904066246E+03  0.14263177641E+03  0.91945405382E+02 0.  0.
    9000005    2    3    3    0    0  0.10178710040E+02  0.23613541699E+02 -0.11357501330E+03  0.11652113055E+03  0.40846944367E+01 0.  0.
         22    1    3    3    0    0 -0.10178710040E+02 -0.23613541699E+02  0.45343508368E+01  0.26110645859E+02  0.00000000000E+00 0. -1.
         22    1    4    4    0    0  0.53916724273E+01  0.16302128401E+02 -0.69658955256E+02  0.71743986293E+02  0.00000000000E+00 0.  1.
         22    1    4    4    0    0  0.47870376122E+01  0.73114132987E+01 -0.43916058043E+02  0.44777144255E+02  0.00000000000E+00 0.  1.
<mgrwt>
<rscale>  0 0.91945405E+02</rscale>
<asrwt>0</asrwt>
<pdfrwt beam="1">  1        3 0.25839319E-02 0.91945405E+02</pdfrwt>
<pdfrwt beam="2">  1       -3 0.19359418E-01 0.91945405E+02</pdfrwt>
<totfact> 0.31049425E+04</totfact>
</mgrwt>
</event>
<event>
 7    1  0.1247599E-009  0.8945310E+02  0.7818608E-02  0.1304182E+00
         -3   -1    0    0    0  501 -0.00000000000E+00  0.00000000000E+00  0.17370428820E+02  0.17370722449E+02  0.10100000000E+00 0.  1.
          3   -1    0    0  501    0  0.00000000000E+00 -0.00000000000E+00 -0.11516365415E+03  0.11516369844E+03  0.10100000000E+00 0. -1.
         23    2    1    2    0    0  0.35527136788E-14 -0.17763568394E-14 -0.97793225330E+02  0.13253442089E+03  0.89453103913E+02 0.  0.
    9000005    2    3    3    0    0 -0.23187708724E+02  0.15601001911E+02 -0.99705317709E+02  0.10452161678E+03  0.14232248569E+02 0.  0.
         22    1    3    3    0    0  0.23187708724E+02 -0.15601001911E+02  0.19120923785E+01  0.28012804104E+02  0.00000000000E+00 0.  1.
         22    1    4    4    0    0 -0.88590801220E+01  0.19608927050E+01 -0.53430828812E+02  0.54195773529E+02  0.00000000000E+00 0. -1.
         22    1    4    4    0    0 -0.14328628602E+02  0.13640109206E+02 -0.46274488897E+02  0.50325843256E+02  0.00000000000E+00 0. -1.
<mgrwt>
<rscale>  0 0.89453104E+02</rscale>
<asrwt>0</asrwt>
<pdfrwt beam="2">  1        3 0.17717511E-01 0.89453104E+02</pdfrwt>
<pdfrwt beam="1">  1       -3 0.26723997E-02 0.89453104E+02</pdfrwt>
<totfact> 0.34127285E+04</totfact>
</mgrwt>
</event>
<event>
 7    1  0.1247599E-009  0.9186831E+02  0.7818608E-02  0.1298389E+00
          3   -1    0    0  501    0  0.00000000000E+00  0.00000000000E+00  0.21029207361E+02  0.21029449903E+02  0.10100000000E+00 0. -1.
         -3   -1    0    0    0  501 -0.00000000000E+00 -0.00000000000E+00 -0.10033326128E+03  0.10033331212E+03  0.10100000000E+00 0.  1.
         23    2    1    2    0    0  0.00000000000E+00 -0.35527136788E-14 -0.79304053920E+02  0.12136276202E+03  0.91868313563E+02 0.  0.
    9000005    2    3    3    0    0  0.20076121700E+01 -0.25216626268E+02  0.10319177771E+02  0.28237940379E+02  0.71405251943E+01 0.  0.
         22    1    3    3    0    0 -0.20076121700E+01  0.25216626268E+02 -0.89623231690E+02  0.93124821641E+02  0.00000000000E+00 0. -1.
         22    1    4    4    0    0  0.15698456132E+01 -0.25596574395E+02  0.10356838377E+02  0.27657063061E+02  0.00000000000E+00 0.  1.
         22    1    4    4    0    0  0.43776655679E+00  0.37994812713E+00 -0.37660606160E-01  0.58087731821E+00  0.00000000000E+00 0.  1.
<mgrwt>
<rscale>  0 0.91868314E+02</rscale>
<asrwt>0</asrwt>
<pdfrwt beam="1">  1        3 0.32352853E-02 0.91868314E+02</pdfrwt>
<pdfrwt beam="2">  1       -3 0.15435909E-01 0.91868314E+02</pdfrwt>
<totfact> 0.32480350E+04</totfact>
</mgrwt>
</event>
<event>
 7    1  0.1262333E-009  0.9271983E+02  0.7818608E-02  0.1296396E+00
          3   -1    0    0  501    0  0.00000000000E+00  0.00000000000E+00  0.46012397317E+02  0.46012508168E+02  0.10100000000E+00 0. -1.
         -3   -1    0    0    0  501 -0.00000000000E+00 -0.00000000000E+00 -0.46709838278E+02  0.46709947473E+02  0.10100000000E+00 0.  1.
         23    2    1    2    0    0  0.00000000000E+00  0.00000000000E+00 -0.69744096084E+00  0.92722455641E+02  0.92719832594E+02 0.  0.
    9000005    2    3    3    0    0 -0.43882254734E+02  0.69027967560E+01  0.77441674052E+01  0.47505626523E+02  0.14950302303E+02 0.  0.
         22    1    3    3    0    0  0.43882254734E+02 -0.69027967560E+01 -0.84416083660E+01  0.45216829117E+02  0.00000000000E+00 0.  1.
         22    1    4    4    0    0 -0.43510688488E+02  0.37792274074E+01  0.66654249867E+01  0.44180204421E+02  0.00000000000E+00 0. -1.
         22    1    4    4    0    0 -0.37156624674E+00  0.31235693486E+01  0.10787424185E+01  0.33254221021E+01  0.00000000000E+00 0. -1.
<mgrwt>
<rscale>  0 0.92719833E+02</rscale>
<asrwt>0</asrwt>
<pdfrwt beam="1">  1        3 0.70788473E-02 0.92719833E+02</pdfrwt>
<pdfrwt beam="2">  1       -3 0.71861459E-02 0.92719833E+02</pdfrwt>
<totfact> 0.33641988E+04</totfact>
</mgrwt>
</event>
<event>
 7    1  0.1247599E-009  0.8970074E+02  0.7818608E-02  0.1303578E+00
          3   -1    0    0  501    0  0.00000000000E+00  0.00000000000E+00  0.15474514404E+03  0.15474517700E+03  0.10100000000E+00 0. -1.
         -3   -1    0    0    0  501 -0.00000000000E+00 -0.00000000000E+00 -0.12998921852E+02  0.12999314225E+02  0.10100000000E+00 0.  1.
         23    2    1    2    0    0  0.00000000000E+00 -0.22204460493E-15  0.14174622218E+03  0.16774449122E+03  0.89700740420E+02 0.  0.
    9000005    2    3    3    0    0 -0.42854754346E+02  0.13506401450E+01  0.92105036701E+02  0.10215027277E+03  0.10629498646E+02 0.  0.
         22    1    3    3    0    0  0.42854754346E+02 -0.13506401450E+01  0.49641185482E+02  0.65594218457E+02  0.00000000000E+00 0.  1.
         22    1    4    4    0    0 -0.13551335153E+02 -0.37670180825E+01  0.23738634754E+02  0.27592605706E+02  0.00000000000E+00 0.  1.
         22    1    4    4    0    0 -0.29303419192E+02  0.51176582274E+01  0.68366401947E+02  0.74557667059E+02  0.00000000000E+00 0.  1.
<mgrwt>
<rscale>  0 0.89700740E+02</rscale>
<asrwt>0</asrwt>
<pdfrwt beam="1">  1        3 0.23806978E-01 0.89700740E+02</pdfrwt>
<pdfrwt beam="2">  1       -3 0.19998669E-02 0.89700740E+02</pdfrwt>
<totfact> 0.31617695E+04</totfact>
</mgrwt>
</event>
<event>
 7    1  0.1247599E-009  0.9059360E+02  0.7818608E-02  0.1301421E+00
         -3   -1    0    0    0  501 -0.00000000000E+00  0.00000000000E+00  0.28860175238E+02  0.28860351969E+02  0.10100000000E+00 0.  1.
          3   -1    0    0  501    0  0.00000000000E+00 -0.00000000000E+00 -0.71094085088E+02  0.71094156831E+02  0.10100000000E+00 0. -1.
         23    2    1    2    0    0  0.35527136788E-14  0.00000000000E+00 -0.42233909849E+02  0.99954508800E+02  0.90593601806E+02 0.  0.
    9000005    2    3    3    0    0 -0.31205253008E+02 -0.53612212613E+01  0.13255614933E+02  0.36067124526E+02  0.11073194464E+02 0.  0.
         22    1    3    3    0    0  0.31205253008E+02  0.53612212613E+01 -0.55489524783E+02  0.63887384274E+02  0.00000000000E+00 0. -1.
         22    1    4    4    0    0 -0.65785597008E+01 -0.37869291713E+01  0.76184258563E+01  0.10754473154E+02  0.00000000000E+00 0. -1.
         22    1    4    4    0    0 -0.24626693307E+02 -0.15742920899E+01  0.56371890772E+01  0.25312651373E+02  0.00000000000E+00 0. -1.
<mgrwt>
<rscale>  0 0.90593602E+02</rscale>
<asrwt>0</asrwt>
<pdfrwt beam="2">  1        3 0.10937571E-01 0.90593602E+02</pdfrwt>
<pdfrwt beam="1">  1       -3 0.44400461E-02 0.90593602E+02</pdfrwt>
<totfact> 0.35284605E+04</totfact>
</mgrwt>
</event>
<event>
 7    1  0.1247599E-009  0.7738629E+02  0.7818608E-02  0.1336637E+00
         -3   -1    0    0    0  501 -0.00000000000E+00  0.00000000000E+00  0.14501343779E+02  0.14501695500E+02  0.10100000000E+00 0.  1.
          3   -1    0    0  501    0  0.00000000000E+00 -0.00000000000E+00 -0.10324119248E+03  0.10324124189E+03  0.10100000000E+00 0. -1.
         23    2    1    2    0    0  0.00000000000E+00  0.00000000000E+00 -0.88739848703E+02  0.11774293739E+03  0.77386294370E+02 0.  0.
    9000005    2    3    3    0    0 -0.18553610044E+02 -0.88476991680E+01  0.49806067179E+01  0.21794816036E+02  0.52620658040E+01 0.  0.
         22    1    3    3    0    0  0.18553610044E+02  0.88476991680E+01 -0.93720455421E+02  0.95948121350E+02  0.00000000000E+00 0. -1.
         22    1    4    4    0    0 -0.15162123454E+02 -0.71520824893E+01  0.18280321416E+01  0.16863688004E+02  0.00000000000E+00 0.  1.
         22    1    4    4    0    0 -0.33914865894E+01 -0.16956166787E+01  0.31525745763E+01  0.49311280319E+01  0.00000000000E+00 0.  1.
<mgrwt>
<rscale>  0 0.77386294E+02</rscale>
<asrwt>0</asrwt>
<pdfrwt beam="2">  1        3 0.15883291E-01 0.77386294E+02</pdfrwt>
<pdfrwt beam="1">  1       -3 0.22310069E-02 0.77386294E+02</pdfrwt>
<totfact> 0.51899091E+04</totfact>
</mgrwt>
</event>
<event>
 7    1  0.1247599E-009  0.9098597E+02  0.7818608E-02  0.1300481E+00
         -3   -1    0    0    0  501 -0.00000000000E+00  0.00000000000E+00  0.33688521881E+02  0.33688673282E+02  0.10100000000E+00 0.  1.
          3   -1    0    0  501    0  0.00000000000E+00 -0.00000000000E+00 -0.61433401665E+02  0.61433484690E+02  0.10100000000E+00 0. -1.
         23    2    1    2    0    0  0.00000000000E+00  0.35527136788E-14 -0.27744879784E+02  0.95122157973E+02  0.90985969155E+02 0.  0.
    9000005    2    3    3    0    0 -0.17089681688E+02  0.27214165304E+02 -0.47530149972E+02  0.57384578164E+02  0.10984722703E+01 0.  0.
         22    1    3    3    0    0  0.17089681688E+02 -0.27214165304E+02  0.19785270188E+02  0.37737579808E+02  0.00000000000E+00 0.  1.
         22    1    4    4    0    0 -0.13062518643E+02  0.21138634530E+02 -0.35981197788E+02  0.43727769864E+02  0.00000000000E+00 0.  1.
         22    1    4    4    0    0 -0.40271630452E+01  0.60755307741E+01 -0.11548952184E+02  0.13656808300E+02  0.00000000000E+00 0.  1.
<mgrwt>
<rscale>  0 0.90985969E+02</rscale>
<asrwt>0</asrwt>
<pdfrwt beam="2">  1        3 0.94513106E-02 0.90985969E+02</pdfrwt>
<pdfrwt beam="1">  1       -3 0.51828675E-02 0.90985969E+02</pdfrwt>
<totfact> 0.35237696E+04</totfact>
</mgrwt>
</event>
<event>
 7    1  0.1247599E-009  0.8989710E+02  0.7818608E-02  0.1303101E+00
         -3   -1    0    0    0  501 -0.00000000000E+00  0.00000000000E+00  0.16629529158E+03  0.16629532226E+03  0.10100000000E+00 0.  1.
          3   -1    0    0  501    0  0.00000000000E+00 -0.00000000000E+00 -0.12149062290E+02  0.12149482109E+02  0.10100000000E+00 0. -1.
         23    2    1    2    0    0  0.00000000000E+00 -0.35527136788E-14  0.15414622929E+03  0.17844480436E+03  0.89897097834E+02 0.  0.
    9000005    2    3    3    0    0 -0.30707425272E+02  0.23247693422E+02  0.35657036485E+02  0.53853111106E+02  0.12055376752E+02 0.  0.
         22    1    3    3    0    0  0.30707425272E+02 -0.23247693422E+02  0.11848919281E+03  0.12459169326E+03  0.00000000000E+00 0.  1.
         22    1    4    4    0    0 -0.25103573830E+02  0.14648986906E+02  0.20577037947E+02  0.35611749846E+02  0.00000000000E+00 0.  1.
         22    1    4    4    0    0 -0.56038514427E+01  0.85987065156E+01  0.15079998538E+02  0.18241361261E+02  0.00000000000E+00 0.  1.
<mgrwt>
<rscale>  0 0.89897098E+02</rscale>
<asrwt>0</asrwt>
<pdfrwt beam="2">  1        3 0.18691212E-02 0.89897098E+02</pdfrwt>
<pdfrwt beam="1">  1       -3 0.25583925E-01 0.89897098E+02</pdfrwt>
<totfact> 0.30803781E+04</totfact>
</mgrwt>
</event>
<event>
 7    1  0.1247599E-009  0.7440847E+02  0.7818608E-02  0.1345713E+00
         -3   -1    0    0    0  501 -0.00000000000E+00  0.00000000000E+00  0.17745910595E+03  0.17745913469E+03  0.10100000000E+00 0.  1.
          3   -1    0    0  501    0  0.00000000000E+00 -0.00000000000E+00 -0.77994980100E+01  0.78001519349E+01  0.10100000000E+00 0. -1.
         23    2    1    2    0    0 -0.61062266354E-15  0.00000000000E+00  0.16965960794E+03  0.18525928662E+03  0.74408472065E+02 0.  0.
    9000005    2    3    3    0    0 -0.32837840349E+00  0.15511507741E+02  0.16828804851E+03  0.16968379690E+03  0.15198978817E+02 0.  0.
         22    1    3    3    0    0  0.32837840349E+00 -0.15511507741E+02  0.13715594320E+01  0.15575489721E+02  0.00000000000E+00 0. -1.
         22    1    4    4    0    0 -0.41348838108E+01  0.72888718325E+01  0.31488999573E+02  0.32584996713E+02  0.00000000000E+00 0. -1.
         22    1    4    4    0    0  0.38065054073E+01  0.82226359081E+01  0.13679904893E+03  0.13709880019E+03  0.00000000000E+00 0. -1.
<mgrwt>
<rscale>  0 0.74408472E+02</rscale>
<asrwt>0</asrwt>
<pdfrwt beam="2">  1        3 0.11999753E-02 0.74408472E+02</pdfrwt>
<pdfrwt beam="1">  1       -3 0.27301453E-01 0.74408472E+02</pdfrwt>
<totfact> 0.50333789E+04</totfact>
</mgrwt>
</event>
<event>
 7    1  0.1247599E-009  0.9243090E+02  0.7818608E-02  0.1297069E+00
          3   -1    0    0  501    0  0.00000000000E+00  0.00000000000E+00  0.77737126037E+01  0.77743686975E+01  0.10100000000E+00 0. -1.
         -3   -1    0    0    0  501 -0.00000000000E+00 -0.00000000000E+00 -0.27474291920E+03  0.27474293776E+03  0.10100000000E+00 0.  1.
         23    2    1    2    0    0  0.00000000000E+00  0.00000000000E+00 -0.26696920660E+03  0.28251730646E+03  0.92430899487E+02 0.  0.
    9000005    2    3    3    0    0  0.44068157967E+02  0.14842659807E+01 -0.17485786279E+03  0.18039627410E+03  0.48309356295E+01 0.  0.
         22    1    3    3    0    0 -0.44068157967E+02 -0.14842659807E+01 -0.92111343805E+02  0.10212103236E+03  0.00000000000E+00 0. -1.
         22    1    4    4    0    0  0.25412325417E+02  0.11874212691E+01 -0.91104172482E+02  0.94589462923E+02  0.00000000000E+00 0.  1.
         22    1    4    4    0    0  0.18655832549E+02  0.29684471159E+00 -0.83753690308E+02  0.85806811181E+02  0.00000000000E+00 0.  1.
<mgrwt>
<rscale>  0 0.92430899E+02</rscale>
<asrwt>0</asrwt>
<pdfrwt beam="1">  1        3 0.11960079E-02 0.92430899E+02</pdfrwt>
<pdfrwt beam="2">  1       -3 0.42268186E-01 0.92430899E+02</pdfrwt>
<totfact> 0.23824879E+04</totfact>
</mgrwt>
</event>
<event>
 7    1  0.1247599E-009  0.9198036E+02  0.7818608E-02  0.1298126E+00
          3   -1    0    0  501    0  0.00000000000E+00  0.00000000000E+00  0.35296552581E+03  0.35296554026E+03  0.10100000000E+00 0.  1.
         -3   -1    0    0    0  501 -0.00000000000E+00 -0.00000000000E+00 -0.59919197904E+01  0.59927709597E+01  0.10100000000E+00 0. -1.
         23    2    1    2    0    0 -0.71054273576E-14  0.00000000000E+00  0.34697360602E+03  0.35895831122E+03  0.91980356162E+02 0.  0.
    9000005    2    3    3    0    0  0.42308160509E+02 -0.16012147403E+02  0.17173052953E+03  0.17797072831E+03  0.11654872478E+02 0.  0.
         22    1    3    3    0    0 -0.42308160509E+02  0.16012147403E+02  0.17524307649E+03  0.18098758291E+03  0.00000000000E+00 0.  1.
         22    1    4    4    0    0  0.11145359481E+02 -0.24290930002E+01  0.63849302589E+02  0.64860257260E+02  0.00000000000E+00 0. -1.
         22    1    4    4    0    0  0.31162801028E+02 -0.13583054403E+02  0.10788122694E+03  0.11311047105E+03  0.00000000000E+00 0. -1.
<mgrwt>
<rscale>  0 0.91980356E+02</rscale>
<asrwt>0</asrwt>
<pdfrwt beam="1">  1        3 0.54302458E-01 0.91980356E+02</pdfrwt>
<pdfrwt beam="2">  1       -3 0.92190035E-03 0.91980356E+02</pdfrwt>
<totfact> 0.21405918E+04</totfact>
</mgrwt>
</event>
<event>
 7    1  0.1247599E-009  0.9115403E+02  0.7818608E-02  0.1300081E+00
         -3   -1    0    0    0  501 -0.00000000000E+00  0.00000000000E+00  0.62649306155E+01  0.62657446978E+01  0.10100000000E+00 0. -1.
          3   -1    0    0  501    0  0.00000000000E+00 -0.00000000000E+00 -0.33154782815E+03  0.33154784353E+03  0.10100000000E+00 0.  1.
         23    2    1    2    0    0  0.71054273576E-14  0.88817841970E-15 -0.32528289753E+03  0.33781358823E+03  0.91154028794E+02 0.  0.
    9000005    2    3    3    0    0 -0.43886571159E+02 -0.43072951884E+01 -0.20118379384E+03  0.20611251968E+03  0.79289308781E+01 0.  0.
         22    1    3    3    0    0  0.43886571159E+02  0.43072951884E+01 -0.12409910369E+03  0.13170106855E+03  0.00000000000E+00 0.  1.
         22    1    4    4    0    0 -0.25815198385E+01 -0.11338790165E+00 -0.23553497719E+02  0.23694817076E+02  0.00000000000E+00 0. -1.
         22    1    4    4    0    0 -0.41305051321E+02 -0.41939072867E+01 -0.17763029612E+03  0.18241770260E+03  0.00000000000E+00 0. -1.
<mgrwt>
<rscale>  0 0.91154029E+02</rscale>
<asrwt>0</asrwt>
<pdfrwt beam="2">  1        3 0.51007408E-01 0.91154029E+02</pdfrwt>
<pdfrwt beam="1">  1       -3 0.96389954E-03 0.91154029E+02</pdfrwt>
<totfact> 0.22653587E+04</totfact>
</mgrwt>
</event>
<event>
 7    1  0.1247599E-009  0.9130306E+02  0.7818608E-02  0.1299726E+00
         -3   -1    0    0    0  501 -0.00000000000E+00  0.00000000000E+00  0.49040208908E+02  0.49040312914E+02  0.10100000000E+00 0.  1.
          3   -1    0    0  501    0  0.00000000000E+00 -0.00000000000E+00 -0.42496797707E+02  0.42496917728E+02  0.10100000000E+00 0. -1.
         23    2    1    2    0    0  0.00000000000E+00  0.00000000000E+00  0.65434112010E+01  0.91537230642E+02  0.91303057799E+02 0.  0.
    9000005    2    3    3    0    0  0.43867048813E+02 -0.66263622817E+01  0.11093015495E+02  0.46939859106E+02  0.10586252003E+02 0.  0.
         22    1    3    3    0    0 -0.43867048813E+02  0.66263622817E+01 -0.45496042942E+01  0.44597371536E+02  0.00000000000E+00 0. -1.
         22    1    4    4    0    0  0.77820880828E+01 -0.20575532363E+01 -0.19789403235E+01  0.82891872372E+01  0.00000000000E+00 0. -1.
         22    1    4    4    0    0  0.36084960730E+02 -0.45688090454E+01  0.13071955819E+02  0.38650671869E+02  0.00000000000E+00 0. -1.
<mgrwt>
<rscale>  0 0.91303058E+02</rscale>
<asrwt>0</asrwt>
<pdfrwt beam="2">  1        3 0.65379862E-02 0.91303058E+02</pdfrwt>
<pdfrwt beam="1">  1       -3 0.75446647E-02 0.91303058E+02</pdfrwt>
<totfact> 0.35178080E+04</totfact>
</mgrwt>
</event>
<event>
 7    1  0.1247599E-009  0.8395346E+02  0.7818608E-02  0.1318192E+00
         -3   -1    0    0    0  501 -0.00000000000E+00  0.00000000000E+00  0.30931843266E+03  0.30931844915E+03  0.10100000000E+00 0.  1.
          3   -1    0    0  501    0  0.00000000000E+00 -0.00000000000E+00 -0.56960784013E+01  0.56969737715E+01  0.10100000000E+00 0. -1.
         23    2    1    2    0    0  0.88817841970E-15 -0.71054273576E-14  0.30362235426E+03  0.31501542292E+03  0.83953455393E+02 0.  0.
    9000005    2    3    3    0    0 -0.65058158700E+01  0.33887992863E+02  0.23803193005E+03  0.24090182466E+03  0.13556094455E+02 0.  0.
         22    1    3    3    0    0  0.65058158700E+01 -0.33887992863E+02  0.65590424203E+02  0.74113598264E+02  0.00000000000E+00 0. -1.
         22    1    4    4    0    0  0.41881638239E+01  0.94418516095E+01  0.72863701241E+02  0.73592175104E+02  0.00000000000E+00 0. -1.
         22    1    4    4    0    0 -0.10693979694E+02  0.24446141254E+02  0.16516822881E+03  0.16730964955E+03  0.00000000000E+00 0. -1.
<mgrwt>
<rscale>  0 0.83953455E+02</rscale>
<asrwt>0</asrwt>
<pdfrwt beam="2">  1        3 0.87638976E-03 0.83953455E+02</pdfrwt>
<pdfrwt beam="1">  1       -3 0.47587529E-01 0.83953455E+02</pdfrwt>
<totfact> 0.29227286E+04</totfact>
</mgrwt>
</event>
<event>
 7    1  0.1247599E-009  0.8487773E+02  0.7818608E-02  0.1315753E+00
         -3   -1    0    0    0  501 -0.00000000000E+00  0.00000000000E+00  0.94432143547E+02  0.94432197559E+02  0.10100000000E+00 0. -1.
          3   -1    0    0  501    0  0.00000000000E+00 -0.00000000000E+00 -0.19072309617E+02  0.19072577045E+02  0.10100000000E+00 0.  1.
         23    2    1    2    0    0  0.00000000000E+00  0.00000000000E+00  0.75359833929E+02  0.11350477460E+03  0.84877731403E+02 0.  0.
    9000005    2    3    3    0    0  0.12679815498E+02  0.13883359098E+02 -0.11414061990E+02  0.24717194426E+02  0.11275349586E+02 0.  0.
         22    1    3    3    0    0 -0.12679815498E+02 -0.13883359098E+02  0.86773895919E+02  0.88787580178E+02  0.00000000000E+00 0. -1.
         22    1    4    4    0    0  0.10969578582E+01  0.54145557143E+01  0.11526359127E+01  0.56435183772E+01  0.00000000000E+00 0. -1.
         22    1    4    4    0    0  0.11582857640E+02  0.84688033835E+01 -0.12566697902E+02  0.19073676049E+02  0.00000000000E+00 0. -1.
<mgrwt>
<rscale>  0 0.84877731E+02</rscale>
<asrwt>0</asrwt>
<pdfrwt beam="2">  1        3 0.29342262E-02 0.84877731E+02</pdfrwt>
<pdfrwt beam="1">  1       -3 0.14528047E-01 0.84877731E+02</pdfrwt>
<totfact> 0.40891229E+04</totfact>
</mgrwt>
</event>
<event>
 7    1  0.1247599E-009  0.9307285E+02  0.7818608E-02  0.1295576E+00
         -3   -1    0    0    0  501 -0.00000000000E+00  0.00000000000E+00  0.13652651046E+02  0.13653024631E+02  0.10100000000E+00 0.  1.
          3   -1    0    0  501    0  0.00000000000E+00 -0.00000000000E+00 -0.15862149613E+03  0.15862152828E+03  0.10100000000E+00 0. -1.
         23    2    1    2    0    0  0.00000000000E+00  0.00000000000E+00 -0.14496884508E+03  0.17227455292E+03  0.93072850699E+02 0.  0.
    9000005    2    3    3    0    0  0.11706664856E+02 -0.27482630519E+02 -0.93512551392E+01  0.33406011897E+02  0.11669390551E+02 0.  0.
         22    1    3    3    0    0 -0.11706664856E+02  0.27482630519E+02 -0.13561758994E+03  0.13886854102E+03  0.00000000000E+00 0. -1.
         22    1    4    4    0    0  0.34655596104E+01 -0.18908357913E+01  0.17500075205E+01  0.43183202434E+01  0.00000000000E+00 0. -1.
         22    1    4    4    0    0  0.82411052460E+01 -0.25591794728E+02 -0.11101262660E+02  0.29087691653E+02  0.00000000000E+00 0. -1.
<mgrwt>
<rscale>  0 0.93072851E+02</rscale>
<asrwt>0</asrwt>
<pdfrwt beam="2">  1        3 0.24403337E-01 0.93072851E+02</pdfrwt>
<pdfrwt beam="1">  1       -3 0.21004392E-02 0.93072851E+02</pdfrwt>
<totfact> 0.28369700E+04</totfact>
</mgrwt>
</event>
<event>
 7    1  0.1247599E-009  0.9079705E+02  0.7818608E-02  0.1300933E+00
          3   -1    0    0  501    0  0.00000000000E+00  0.00000000000E+00  0.19439976111E+03  0.19439978735E+03  0.10100000000E+00 0. -1.
         -3   -1    0    0    0  501 -0.00000000000E+00 -0.00000000000E+00 -0.10601730731E+02  0.10602211820E+02  0.10100000000E+00 0.  1.
         23    2    1    2    0    0  0.71054273576E-14  0.00000000000E+00  0.18379803038E+03  0.20500199917E+03  0.90797046711E+02 0.  0.
    9000005    2    3    3    0    0 -0.32268082061E+02  0.11412824746E+02  0.15881546254E+03  0.16262735599E+03  0.73364899927E+01 0.  0.
         22    1    3    3    0    0  0.32268082061E+02 -0.11412824746E+02  0.24982567836E+02  0.42374643176E+02  0.00000000000E+00 0.  1.
         22    1    4    4    0    0 -0.31153989243E+02  0.11550807611E+02  0.14462976665E+03  0.14839730996E+03  0.00000000000E+00 0. -1.
         22    1    4    4    0    0 -0.11140928178E+01 -0.13798286407E+00  0.14185695894E+02  0.14230046032E+02  0.00000000000E+00 0. -1.
<mgrwt>
<rscale>  0 0.90797047E+02</rscale>
<asrwt>0</asrwt>
<pdfrwt beam="1">  1        3 0.29907695E-01 0.90797047E+02</pdfrwt>
<pdfrwt beam="2">  1       -3 0.16310745E-02 0.90797047E+02</pdfrwt>
<totfact> 0.28561527E+04</totfact>
</mgrwt>
</event>
<event>
 7    1  0.1247599E-009  0.9039990E+02  0.7818608E-02  0.1301886E+00
         -3   -1    0    0    0  501 -0.00000000000E+00  0.00000000000E+00  0.10966898575E+03  0.10966903226E+03  0.10100000000E+00 0.  1.
          3   -1    0    0  501    0  0.00000000000E+00 -0.00000000000E+00 -0.18628921688E+02  0.18629195481E+02  0.10100000000E+00 0. -1.
         23    2    1    2    0    0  0.00000000000E+00  0.00000000000E+00  0.91040064059E+02  0.12829822774E+03  0.90399900311E+02 0.  0.
    9000005    2    3    3    0    0  0.17497462633E+02  0.13327752683E+02 -0.75243823410E+01  0.27309415066E+02  0.14331700230E+02 0.  0.
         22    1    3    3    0    0 -0.17497462633E+02 -0.13327752683E+02  0.98564446400E+02  0.10098881267E+03  0.00000000000E+00 0.  1.
         22    1    4    4    0    0  0.47434323688E+01 -0.29067474683E+01 -0.95780767950E+00  0.56450621815E+01  0.00000000000E+00 0. -1.
         22    1    4    4    0    0  0.12754030264E+02  0.16234500151E+02 -0.65665746615E+01  0.21664352885E+02  0.00000000000E+00 0. -1.
<mgrwt>
<rscale>  0 0.90399900E+02</rscale>
<asrwt>0</asrwt>
<pdfrwt beam="2">  1        3 0.28660126E-02 0.90399900E+02</pdfrwt>
<pdfrwt beam="1">  1       -3 0.16872176E-01 0.90399900E+02</pdfrwt>
<totfact> 0.33456517E+04</totfact>
</mgrwt>
</event>
<event>
 7    1  0.1247599E-009  0.9254502E+02  0.7818608E-02  0.1296803E+00
         -3   -1    0    0    0  501 -0.00000000000E+00  0.00000000000E+00  0.56604093415E+01  0.56613103530E+01  0.10100000000E+00 0.  1.
          3   -1    0    0  501    0  0.00000000000E+00 -0.00000000000E+00 -0.37823586526E+03  0.37823587875E+03  0.10100000000E+00 0. -1.
         23    2    1    2    0    0 -0.44408920985E-15  0.00000000000E+00 -0.37257545592E+03  0.38389718910E+03  0.92545023878E+02 0.  0.
    9000005    2    3    3    0    0  0.26355478662E+01  0.45388122160E+02 -0.21358503994E+03  0.21853401266E+03  0.84568115321E+01 0.  0.
         22    1    3    3    0    0 -0.26355478662E+01 -0.45388122160E+02 -0.15899041599E+03  0.16536317644E+03  0.00000000000E+00 0.  1.
         22    1    4    4    0    0  0.43504362351E+01  0.22165724270E+02 -0.91399892988E+02  0.94149806511E+02  0.00000000000E+00 0. -1.
         22    1    4    4    0    0 -0.17148883688E+01  0.23222397890E+02 -0.12218514695E+03  0.12438420615E+03  0.00000000000E+00 0. -1.
<mgrwt>
<rscale>  0 0.92545024E+02</rscale>
<asrwt>0</asrwt>
<pdfrwt beam="2">  1        3 0.58190183E-01 0.92545024E+02</pdfrwt>
<pdfrwt beam="1">  1       -3 0.87090285E-03 0.92545024E+02</pdfrwt>
<totfact> 0.20283645E+04</totfact>
</mgrwt>
</event>
<event>
 7    1  0.1247599E-009  0.9127919E+02  0.7818608E-02  0.1299783E+00
          3   -1    0    0  501    0  0.00000000000E+00  0.00000000000E+00  0.72156923753E+01  0.72163992029E+01  0.10100000000E+00 0. -1.
         -3   -1    0    0    0  501 -0.00000000000E+00 -0.00000000000E+00 -0.28865776170E+03  0.28865777937E+03  0.10100000000E+00 0.  1.
         23    2    1    2    0    0 -0.17763568394E-14  0.00000000000E+00 -0.28144206932E+03  0.29587417857E+03  0.91279193468E+02 0.  0.
    9000005    2    3    3    0    0  0.10229441492E+02  0.25029732703E+02 -0.25889287026E+03  0.26066629066E+03  0.13793760377E+02 0.  0.
         22    1    3    3    0    0 -0.10229441492E+02 -0.25029732703E+02 -0.22549199065E+02  0.35207887908E+02  0.00000000000E+00 0. -1.
         22    1    4    4    0    0  0.13483434160E+02  0.18284496150E+02 -0.20515962478E+03  0.20641365613E+03  0.00000000000E+00 0. -1.
         22    1    4    4    0    0 -0.32539926676E+01  0.67452365536E+01 -0.53733245471E+02  0.54252634529E+02  0.00000000000E+00 0. -1.
<mgrwt>
<rscale>  0 0.91279193E+02</rscale>
<asrwt>0</asrwt>
<pdfrwt beam="1">  1        3 0.11101625E-02 0.91279193E+02</pdfrwt>
<pdfrwt beam="2">  1       -3 0.44408933E-01 0.91279193E+02</pdfrwt>
<totfact> 0.24111452E+04</totfact>
</mgrwt>
</event>
<event>
 7    1  0.1247599E-009  0.9170901E+02  0.7818608E-02  0.1298765E+00
          3   -1    0    0  501    0  0.00000000000E+00  0.00000000000E+00  0.14219534665E+02  0.14219893357E+02  0.10100000000E+00 0. -1.
         -3   -1    0    0    0  501 -0.00000000000E+00 -0.00000000000E+00 -0.14786726881E+03  0.14786730331E+03  0.10100000000E+00 0.  1.
         23    2    1    2    0    0  0.00000000000E+00  0.00000000000E+00 -0.13364773415E+03  0.16208719666E+03  0.91709009806E+02 0.  0.
    9000005    2    3    3    0    0  0.45155794114E+02  0.75011453670E+01 -0.64951340349E+02  0.79537166714E+02  0.34887464587E+01 0.  0.
         22    1    3    3    0    0 -0.45155794114E+02 -0.75011453670E+01 -0.68696393798E+02  0.82550029950E+02  0.00000000000E+00 0. -1.
         22    1    4    4    0    0  0.12355951886E+02  0.35933362799E+01 -0.17560219087E+02  0.21770229833E+02  0.00000000000E+00 0.  1.
         22    1    4    4    0    0  0.32799842228E+02  0.39078090871E+01 -0.47391121262E+02  0.57766936880E+02  0.00000000000E+00 0.  1.
<mgrwt>
<rscale>  0 0.91709010E+02</rscale>
<asrwt>0</asrwt>
<pdfrwt beam="1">  1        3 0.21876511E-02 0.91709010E+02</pdfrwt>
<pdfrwt beam="2">  1       -3 0.22748840E-01 0.91709010E+02</pdfrwt>
<totfact> 0.30105504E+04</totfact>
</mgrwt>
</event>
<event>
 7    1  0.1247599E-009  0.9054179E+02  0.7818608E-02  0.1301545E+00
         -3   -1    0    0    0  501 -0.00000000000E+00  0.00000000000E+00  0.14562043783E+03  0.14562047286E+03  0.10100000000E+00 0.  1.
          3   -1    0    0  501    0  0.00000000000E+00 -0.00000000000E+00 -0.14073726336E+02  0.14074088744E+02  0.10100000000E+00 0. -1.
         23    2    1    2    0    0  0.00000000000E+00  0.00000000000E+00  0.13154671150E+03  0.15969456160E+03  0.90541789798E+02 0.  0.
    9000005    2    3    3    0    0 -0.36295685638E+02 -0.22681361517E+02  0.50230350834E+02  0.67802388554E+02  0.15564536372E+02 0.  0.
         22    1    3    3    0    0  0.36295685638E+02  0.22681361517E+02  0.81316360661E+02  0.91892173048E+02  0.00000000000E+00 0.  1.
         22    1    4    4    0    0 -0.31842363566E+02 -0.12118427050E+02  0.37018246690E+02  0.50310465905E+02  0.00000000000E+00 0. -1.
         22    1    4    4    0    0 -0.44533220728E+01 -0.10562934466E+02  0.13212104144E+02  0.17491922648E+02  0.00000000000E+00 0. -1.
<mgrwt>
<rscale>  0 0.90541790E+02</rscale>
<asrwt>0</asrwt>
<pdfrwt beam="2">  1        3 0.21652194E-02 0.90541790E+02</pdfrwt>
<pdfrwt beam="1">  1       -3 0.22403173E-01 0.90541790E+02</pdfrwt>
<totfact> 0.31310888E+04</totfact>
</mgrwt>
</event>
<event>
 7    1  0.1247599E-009  0.8913184E+02  0.7818608E-02  0.1304968E+00
          3   -1    0    0  501    0  0.00000000000E+00  0.00000000000E+00  0.31140564718E+03  0.31140566356E+03  0.10100000000E+00 0. -1.
         -3   -1    0    0    0  501 -0.00000000000E+00 -0.00000000000E+00 -0.63775068964E+01  0.63783066102E+01  0.10100000000E+00 0.  1.
         23    2    1    2    0    0  0.00000000000E+00 -0.71054273576E-14  0.30502814028E+03  0.31778397017E+03  0.89131842410E+02 0.  0.
    9000005    2    3    3    0    0  0.17104035966E+02 -0.39714209396E+02  0.12648788271E+03  0.13408206477E+03  0.10442659869E+02 0.  0.
         22    1    3    3    0    0 -0.17104035966E+02  0.39714209396E+02  0.17854025757E+03  0.18370190540E+03  0.00000000000E+00 0. -1.
         22    1    4    4    0    0  0.13867760043E+02 -0.29354854839E+02  0.79843452718E+02  0.86191642363E+02  0.00000000000E+00 0. -1.
         22    1    4    4    0    0  0.32362759234E+01 -0.10359354557E+02  0.46644429993E+02  0.47890422404E+02  0.00000000000E+00 0. -1.
<mgrwt>
<rscale>  0 0.89131842E+02</rscale>
<asrwt>0</asrwt>
<pdfrwt beam="1">  1        3 0.47908627E-01 0.89131842E+02</pdfrwt>
<pdfrwt beam="2">  1       -3 0.98121761E-03 0.89131842E+02</pdfrwt>
<totfact> 0.24820679E+04</totfact>
</mgrwt>
</event>
<event>
 7    1  0.1247599E-009  0.9108135E+02  0.7818608E-02  0.1300254E+00
          3   -1    0    0  501    0  0.00000000000E+00  0.00000000000E+00  0.37064662336E+02  0.37064799946E+02  0.10100000000E+00 0. -1.
         -3   -1    0    0    0  501 -0.00000000000E+00 -0.00000000000E+00 -0.55954709586E+02  0.55954800740E+02  0.10100000000E+00 0.  1.
         23    2    1    2    0    0  0.88817841970E-15 -0.35527136788E-14 -0.18890047250E+02  0.93019600686E+02  0.91081349500E+02 0.  0.
    9000005    2    3    3    0    0 -0.68527726897E+01  0.23845498443E+02  0.28874963377E+02  0.39195214673E+02  0.93237896640E+01 0.  0.
         22    1    3    3    0    0  0.68527726897E+01 -0.23845498443E+02 -0.47765010627E+02  0.53824386013E+02  0.00000000000E+00 0.  1.
         22    1    4    4    0    0 -0.84384992913E+01  0.23338822705E+02  0.27431582278E+02  0.36991899408E+02  0.00000000000E+00 0. -1.
         22    1    4    4    0    0  0.15857266016E+01  0.50667573782E+00  0.14433810988E+01  0.22033152645E+01  0.00000000000E+00 0. -1.
<mgrwt>
<rscale>  0 0.91081349E+02</rscale>
<asrwt>0</asrwt>
<pdfrwt beam="1">  1        3 0.57022734E-02 0.91081349E+02</pdfrwt>
<pdfrwt beam="2">  1       -3 0.86084344E-02 0.91081349E+02</pdfrwt>
<totfact> 0.35299006E+04</totfact>
</mgrwt>
</event>
<event>
 7    1  0.1247599E-009  0.9137153E+02  0.7818608E-02  0.1299564E+00
         -3   -1    0    0    0  501 -0.00000000000E+00  0.00000000000E+00  0.14129189423E+03  0.14129193033E+03  0.10100000000E+00 0.  1.
          3   -1    0    0  501    0  0.00000000000E+00 -0.00000000000E+00 -0.14771967808E+02  0.14772313086E+02  0.10100000000E+00 0. -1.
         23    2    1    2    0    0 -0.35527136788E-14  0.00000000000E+00  0.12651992642E+03  0.15606424342E+03  0.91371528886E+02 0.  0.
    9000005    2    3    3    0    0  0.26228766435E+02 -0.23494583341E+02  0.15689851404E+02  0.39774737597E+02  0.97936039726E+01 0.  0.
         22    1    3    3    0    0 -0.26228766435E+02  0.23494583341E+02  0.11083007502E+03  0.11628950582E+03  0.00000000000E+00 0.  1.
         22    1    4    4    0    0  0.93548671528E+00 -0.53245643493E+01  0.22939719615E+01  0.58726849281E+01  0.00000000000E+00 0.  1.
         22    1    4    4    0    0  0.25293279719E+02 -0.18170018991E+02  0.13395879443E+02  0.33902052669E+02  0.00000000000E+00 0.  1.
<mgrwt>
<rscale>  0 0.91371529E+02</rscale>
<asrwt>0</asrwt>
<pdfrwt beam="2">  1        3 0.22726397E-02 0.91371529E+02</pdfrwt>
<pdfrwt beam="1">  1       -3 0.21737245E-01 0.91371529E+02</pdfrwt>
<totfact> 0.30762555E+04</totfact>
</mgrwt>
</event>
<event>
 7    1  0.1247599E-009  0.8939860E+02  0.7818608E-02  0.1304315E+00
         -3   -1    0    0    0  501 -0.00000000000E+00  0.00000000000E+00  0.92438945251E+02  0.92439000428E+02  0.10100000000E+00 0.  1.
          3   -1    0    0  501    0  0.00000000000E+00 -0.00000000000E+00 -0.21614382087E+02  0.21614618063E+02  0.10100000000E+00 0. -1.
         23    2    1    2    0    0  0.00000000000E+00  0.00000000000E+00  0.70824563164E+02  0.11405361849E+03  0.89398596989E+02 0.  0.
    9000005    2    3    3    0    0  0.12036897262E+02  0.12610983589E+02  0.87225486591E+02  0.90117994580E+02  0.14458341303E+02 0.  0.
         22    1    3    3    0    0 -0.12036897262E+02 -0.12610983589E+02 -0.16400923427E+02  0.23935623912E+02  0.00000000000E+00 0. -1.
         22    1    4    4    0    0  0.12079435060E+02  0.35789751703E+01  0.63363141488E+02  0.64603479115E+02  0.00000000000E+00 0. -1.
         22    1    4    4    0    0 -0.42537797387E-01  0.90320084188E+01  0.23862345104E+02  0.25514515464E+02  0.00000000000E+00 0. -1.
<mgrwt>
<rscale>  0 0.89398597E+02</rscale>
<asrwt>0</asrwt>
<pdfrwt beam="2">  1        3 0.33253120E-02 0.89398597E+02</pdfrwt>
<pdfrwt beam="1">  1       -3 0.14221398E-01 0.89398597E+02</pdfrwt>
<totfact> 0.35505456E+04</totfact>
</mgrwt>
</event>
<event>
 7    1  0.1247599E-009  0.9260801E+02  0.7818608E-02  0.1296656E+00
          3   -1    0    0  501    0  0.00000000000E+00  0.00000000000E+00  0.19971657568E+02  0.19971912954E+02  0.10100000000E+00 0. -1.
         -3   -1    0    0    0  501 -0.00000000000E+00 -0.00000000000E+00 -0.10735420715E+03  0.10735425466E+03  0.10100000000E+00 0.  1.
         23    2    1    2    0    0  0.00000000000E+00  0.00000000000E+00 -0.87382549584E+02  0.12732616762E+03  0.92608007150E+02 0.  0.
    9000005    2    3    3    0    0 -0.17824609137E+02 -0.12485112071E+02  0.10683079363E+02  0.26874874469E+02  0.11598964556E+02 0.  0.
         22    1    3    3    0    0  0.17824609137E+02  0.12485112071E+02 -0.98065628947E+02  0.10045129315E+03  0.00000000000E+00 0.  1.
         22    1    4    4    0    0 -0.17014958137E+02 -0.80396933510E+01  0.47352906350E+01  0.19405371601E+02  0.00000000000E+00 0. -1.
         22    1    4    4    0    0 -0.80965099925E+00 -0.44454187200E+01  0.59477887281E+01  0.74695028677E+01  0.00000000000E+00 0. -1.
<mgrwt>
<rscale>  0 0.92608007E+02</rscale>
<asrwt>0</asrwt>
<pdfrwt beam="1">  1        3 0.30725861E-02 0.92608007E+02</pdfrwt>
<pdfrwt beam="2">  1       -3 0.16516055E-01 0.92608007E+02</pdfrwt>
<totfact> 0.31395224E+04</totfact>
</mgrwt>
</event>
<event>
 7    1  0.1247599E-009  0.8605650E+02  0.7818608E-02  0.1312693E+00
          3   -1    0    0  501    0  0.00000000000E+00  0.00000000000E+00  0.19734943483E+03  0.19734946068E+03  0.10100000000E+00 0. -1.
         -3   -1    0    0    0  501 -0.00000000000E+00 -0.00000000000E+00 -0.93811833268E+01  0.93817270058E+01  0.10100000000E+00 0.  1.
         23    2    1    2    0    0 -0.35527136788E-14 -0.17763568394E-14  0.18796825150E+03  0.20673118768E+03  0.86056495320E+02 0.  0.
    9000005    2    3    3    0    0  0.29085476206E+02  0.11123649223E+02  0.16496294066E+03  0.16801497886E+03  0.68235499153E+01 0.  0.
         22    1    3    3    0    0 -0.29085476206E+02 -0.11123649223E+02  0.23005310845E+02  0.38716208818E+02  0.00000000000E+00 0.  1.
         22    1    4    4    0    0  0.55697910681E+01  0.42300455273E+01  0.48513731278E+02  0.49015283129E+02  0.00000000000E+00 0. -1.
         22    1    4    4    0    0  0.23515685138E+02  0.68936036957E+01  0.11644920938E+03  0.11899969574E+03  0.00000000000E+00 0. -1.
<mgrwt>
<rscale>  0 0.86056495E+02</rscale>
<asrwt>0</asrwt>
<pdfrwt beam="1">  1        3 0.30361495E-01 0.86056495E+02</pdfrwt>
<pdfrwt beam="2">  1       -3 0.14433028E-02 0.86056495E+02</pdfrwt>
<totfact> 0.32879153E+04</totfact>
</mgrwt>
</event>
<event>
 7    1  0.1247599E-009  0.9043677E+02  0.7818608E-02  0.1301797E+00
         -3   -1    0    0    0  501 -0.00000000000E+00  0.00000000000E+00  0.18747683418E+02  0.18747955476E+02  0.10100000000E+00 0.  1.
          3   -1    0    0  501    0  0.00000000000E+00 -0.00000000000E+00 -0.10906318743E+03  0.10906323420E+03  0.10100000000E+00 0. -1.
         23    2    1    2    0    0  0.35527136788E-14  0.00000000000E+00 -0.90315504015E+02  0.12781118968E+03  0.90436773166E+02 0.  0.
    9000005    2    3    3    0    0 -0.23671697350E+02 -0.37627508811E+02 -0.43230843458E+02  0.63056699989E+02  0.11448271160E+02 0.  0.
         22    1    3    3    0    0  0.23671697350E+02  0.37627508811E+02 -0.47084660557E+02  0.64754489687E+02  0.00000000000E+00 0. -1.
         22    1    4    4    0    0 -0.21530516516E+02 -0.38035314868E+02 -0.41544346623E+02  0.60300755011E+02  0.00000000000E+00 0.  1.
         22    1    4    4    0    0 -0.21411808341E+01  0.40780605678E+00 -0.16864968350E+01  0.27559449775E+01  0.00000000000E+00 0.  1.
<mgrwt>
<rscale>  0 0.90436773E+02</rscale>
<asrwt>0</asrwt>
<pdfrwt beam="2">  1        3 0.16778976E-01 0.90436773E+02</pdfrwt>
<pdfrwt beam="1">  1       -3 0.28842836E-02 0.90436773E+02</pdfrwt>
<totfact> 0.33450949E+04</totfact>
</mgrwt>
</event>
<event>
 7    1  0.1247599E-009  0.8919914E+02  0.7818608E-02  0.1304803E+00
         -3   -1    0    0    0  501 -0.00000000000E+00  0.00000000000E+00  0.13475335241E+03  0.13475339026E+03  0.10100000000E+00 0.  1.
          3   -1    0    0  501    0  0.00000000000E+00 -0.00000000000E+00 -0.14760990958E+02  0.14761336493E+02  0.10100000000E+00 0. -1.
         23    2    1    2    0    0  0.00000000000E+00  0.00000000000E+00  0.11999236145E+03  0.14951472676E+03  0.89199140744E+02 0.  0.
    9000005    2    3    3    0    0  0.15679999761E+02  0.15199192690E+02  0.12490964426E+03  0.12713041258E+03  0.91019076060E+01 0.  0.
         22    1    3    3    0    0 -0.15679999761E+02 -0.15199192690E+02 -0.49172828078E+01  0.22384314176E+02  0.00000000000E+00 0. -1.
         22    1    4    4    0    0  0.79844687550E+01  0.18433795192E+01  0.47357987439E+02  0.48061718275E+02  0.00000000000E+00 0. -1.
         22    1    4    4    0    0  0.76955310061E+01  0.13355813170E+02  0.77551656823E+02  0.79068694304E+02  0.00000000000E+00 0. -1.
<mgrwt>
<rscale>  0 0.89199141E+02</rscale>
<asrwt>0</asrwt>
<pdfrwt beam="2">  1        3 0.22709511E-02 0.89199141E+02</pdfrwt>
<pdfrwt beam="1">  1       -3 0.20731315E-01 0.89199141E+02</pdfrwt>
<totfact> 0.33250052E+04</totfact>
</mgrwt>
</event>
<event>
 7    1  0.1247599E-009  0.9000356E+02  0.7818608E-02  0.1302843E+00
          3   -1    0    0  501    0  0.00000000000E+00  0.00000000000E+00  0.38306497000E+03  0.38306498332E+03  0.10100000000E+00 0. -1.
         -3   -1    0    0    0  501 -0.00000000000E+00 -0.00000000000E+00 -0.52862318267E+01  0.52871966037E+01  0.10100000000E+00 0.  1.
         23    2    1    2    0    0  0.71054273576E-14  0.00000000000E+00  0.37777873818E+03  0.38835217992E+03  0.90003558995E+02 0.  0.
    9000005    2    3    3    0    0 -0.43837468104E+02 -0.88394746777E+01  0.19972234368E+03  0.20476585269E+03  0.63387651646E+01 0.  0.
         22    1    3    3    0    0  0.43837468104E+02  0.88394746777E+01  0.17805639450E+03  0.18358632723E+03  0.00000000000E+00 0. -1.
         22    1    4    4    0    0 -0.14450351611E+02 -0.46285265697E+01  0.79255888896E+02  0.80695302494E+02  0.00000000000E+00 0. -1.
         22    1    4    4    0    0 -0.29387116494E+02 -0.42109481080E+01  0.12046645478E+03  0.12407055020E+03  0.00000000000E+00 0. -1.
<mgrwt>
<rscale>  0 0.90003559E+02</rscale>
<asrwt>0</asrwt>
<pdfrwt beam="1">  1        3 0.58933165E-01 0.90003559E+02</pdfrwt>
<pdfrwt beam="2">  1       -3 0.81334143E-03 0.90003559E+02</pdfrwt>
<totfact> 0.21709282E+04</totfact>
</mgrwt>
</event>
<event>
 7    1  0.1247599E-009  0.9189907E+02  0.7818608E-02  0.1298317E+00
         -3   -1    0    0    0  501 -0.00000000000E+00  0.00000000000E+00  0.13348357510E+03  0.13348361331E+03  0.10100000000E+00 0.  1.
          3   -1    0    0  501    0  0.00000000000E+00 -0.00000000000E+00 -0.15817172466E+02  0.15817494928E+02  0.10100000000E+00 0. -1.
         23    2    1    2    0    0  0.00000000000E+00  0.00000000000E+00  0.11766640264E+03  0.14930110824E+03  0.91899067528E+02 0.  0.
    9000005    2    3    3    0    0 -0.34782758148E+02  0.28552704986E+02  0.54473688135E+02  0.71722655095E+02  0.12315004202E+02 0.  0.
         22    1    3    3    0    0  0.34782758148E+02 -0.28552704986E+02  0.63192714501E+02  0.77578453145E+02  0.00000000000E+00 0. -1.
         22    1    4    4    0    0 -0.31312805440E+02  0.29402388531E+02  0.51596634606E+02  0.67135720288E+02  0.00000000000E+00 0. -1.
         22    1    4    4    0    0 -0.34699527076E+01 -0.84968354532E+00  0.28770535287E+01  0.45869348074E+01  0.00000000000E+00 0. -1.
<mgrwt>
<rscale>  0 0.91899068E+02</rscale>
<asrwt>0</asrwt>
<pdfrwt beam="2">  1        3 0.24334390E-02 0.91899068E+02</pdfrwt>
<pdfrwt beam="1">  1       -3 0.20535962E-01 0.91899068E+02</pdfrwt>
<totfact> 0.30686790E+04</totfact>
</mgrwt>
</event>
<event>
 7    1  0.1247599E-009  0.9132934E+02  0.7818608E-02  0.1299664E+00
          3   -1    0    0  501    0  0.00000000000E+00  0.00000000000E+00  0.71002202472E+01  0.71009385688E+01  0.10100000000E+00 0. -1.
         -3   -1    0    0    0  501 -0.00000000000E+00 -0.00000000000E+00 -0.29367417657E+03  0.29367419394E+03  0.10100000000E+00 0.  1.
         23    2    1    2    0    0  0.00000000000E+00 -0.71054273576E-14 -0.28657395633E+03  0.30077513251E+03  0.91329337521E+02 0.  0.
    9000005    2    3    3    0    0 -0.24394408975E+02 -0.37629022077E+02 -0.15243137058E+03  0.15933516714E+03  0.11888745124E+02 0.  0.
         22    1    3    3    0    0  0.24394408975E+02  0.37629022077E+02 -0.13414258575E+03  0.14143996537E+03  0.00000000000E+00 0. -1.
         22    1    4    4    0    0 -0.53401026847E+01 -0.18129328319E+02 -0.54739841704E+02  0.57910616572E+02  0.00000000000E+00 0. -1.
         22    1    4    4    0    0 -0.19054306290E+02 -0.19499693758E+02 -0.97691528875E+02  0.10142455057E+03  0.00000000000E+00 0. -1.
<mgrwt>
<rscale>  0 0.91329338E+02</rscale>
<asrwt>0</asrwt>
<pdfrwt beam="1">  1        3 0.10923984E-02 0.91329338E+02</pdfrwt>
<pdfrwt beam="2">  1       -3 0.45180690E-01 0.91329338E+02</pdfrwt>
<totfact> 0.23885957E+04</totfact>
</mgrwt>
</event>
<event>
 7    1  0.1247599E-009  0.9018712E+02  0.7818608E-02  0.1302399E+00
          3   -1    0    0  501    0  0.00000000000E+00  0.00000000000E+00  0.30604849392E+03  0.30604851059E+03  0.10100000000E+00 0. -1.
         -3   -1    0    0    0  501 -0.00000000000E+00 -0.00000000000E+00 -0.66437402546E+01  0.66445079254E+01  0.10100000000E+00 0.  1.
         23    2    1    2    0    0 -0.35527136788E-14  0.88817841970E-15  0.29940475367E+03  0.31269301851E+03  0.90187123849E+02 0.  0.
    9000005    2    3    3    0    0 -0.16713125159E+02  0.71574190416E+01  0.29246860006E+03  0.29323363962E+03  0.10841041792E+02 0.  0.
         22    1    3    3    0    0  0.16713125159E+02 -0.71574190416E+01  0.69361536112E+01  0.19459378891E+02  0.00000000000E+00 0.  1.
         22    1    4    4    0    0 -0.10558711223E+01  0.67719272797E+00  0.27804319821E+01  0.30502878265E+01  0.00000000000E+00 0.  1.
         22    1    4    4    0    0 -0.15657254037E+02  0.64802263137E+01  0.28968816807E+03  0.29018335180E+03  0.00000000000E+00 0.  1.
<mgrwt>
<rscale>  0 0.90187124E+02</rscale>
<asrwt>0</asrwt>
<pdfrwt beam="1">  1        3 0.47084440E-01 0.90187124E+02</pdfrwt>
<pdfrwt beam="2">  1       -3 0.10221743E-02 0.90187124E+02</pdfrwt>
<totfact> 0.24246810E+04</totfact>
</mgrwt>
</event>
<event>
 7    1  0.1247599E-009  0.9112319E+02  0.7818608E-02  0.1300154E+00
         -3   -1    0    0    0  501 -0.00000000000E+00  0.00000000000E+00  0.79398070312E+01  0.79404494012E+01  0.10100000000E+00 0. -1.
          3   -1    0    0  501    0  0.00000000000E+00 -0.00000000000E+00 -0.26143832792E+03  0.26143834743E+03  0.10100000000E+00 0.  1.
         23    2    1    2    0    0  0.00000000000E+00  0.00000000000E+00 -0.25349852089E+03  0.26937879683E+03  0.91123191829E+02 0.  0.
    9000005    2    3    3    0    0 -0.86429563979E+01 -0.43430562142E+02 -0.15346885666E+03  0.15998570679E+03  0.90455507709E+01 0.  0.
         22    1    3    3    0    0  0.86429563979E+01  0.43430562142E+02 -0.10002966423E+03  0.10939309004E+03  0.00000000000E+00 0. -1.
         22    1    4    4    0    0 -0.24777035774E+01 -0.28417967147E+02 -0.86673021168E+02  0.91246547716E+02  0.00000000000E+00 0.  1.
         22    1    4    4    0    0 -0.61652528206E+01 -0.15012594995E+02 -0.66795835491E+02  0.68739159070E+02  0.00000000000E+00 0.  1.
<mgrwt>
<rscale>  0 0.91123192E+02</rscale>
<asrwt>0</asrwt>
<pdfrwt beam="2">  1        3 0.40221326E-01 0.91123192E+02</pdfrwt>
<pdfrwt beam="1">  1       -3 0.12215599E-02 0.91123192E+02</pdfrwt>
<totfact> 0.25306473E+04</totfact>
</mgrwt>
</event>
<event>
 7    1  0.1247599E-009  0.9127331E+02  0.7818608E-02  0.1299797E+00
         -3   -1    0    0    0  501 -0.00000000000E+00  0.00000000000E+00  0.76505788761E+03  0.76505789427E+03  0.10100000000E+00 0. -1.
          3   -1    0    0  501    0  0.00000000000E+00 -0.00000000000E+00 -0.27213397077E+01  0.27232133234E+01  0.10100000000E+00 0.  1.
         23    2    1    2    0    0 -0.17763568394E-14  0.00000000000E+00  0.76233654790E+03  0.76778110760E+03  0.91273308914E+02 0.  0.
    9000005    2    3    3    0    0  0.84794602501E+01 -0.84048100644E+01  0.75134049710E+03  0.75154980415E+03  0.13115771508E+02 0.  0.
         22    1    3    3    0    0 -0.84794602501E+01  0.84048100644E+01  0.10996050804E+02  0.16231303448E+02  0.00000000000E+00 0.  1.
         22    1    4    4    0    0 -0.26275503400E+01 -0.56837147805E+01  0.29009789288E+03  0.29016546329E+03  0.00000000000E+00 0.  1.
         22    1    4    4    0    0  0.11107010590E+02 -0.27210952838E+01  0.46124260421E+03  0.46138434085E+03  0.00000000000E+00 0.  1.
<mgrwt>
<rscale>  0 0.91273309E+02</rscale>
<asrwt>0</asrwt>
<pdfrwt beam="2">  1        3 0.41881171E-03 0.91273309E+02</pdfrwt>
<pdfrwt beam="1">  1       -3 0.11770152E+00 0.91273309E+02</pdfrwt>
<totfact> 0.12801634E+04</totfact>
</mgrwt>
</event>
<event>
 7    1  0.1247599E-009  0.9114737E+02  0.7818608E-02  0.1300097E+00
         -3   -1    0    0    0  501 -0.00000000000E+00  0.00000000000E+00  0.22945460810E+02  0.22945683097E+02  0.10100000000E+00 0.  1.
          3   -1    0    0  501    0  0.00000000000E+00 -0.00000000000E+00 -0.90516584596E+02  0.90516640945E+02  0.10100000000E+00 0. -1.
         23    2    1    2    0    0  0.00000000000E+00  0.00000000000E+00 -0.67571123786E+02  0.11346232404E+03  0.91147365333E+02 0.  0.
    9000005    2    3    3    0    0 -0.15735590199E+02  0.40145917638E+02 -0.16784748567E+02  0.46839809755E+02  0.72757468031E+01 0.  0.
         22    1    3    3    0    0  0.15735590199E+02 -0.40145917638E+02 -0.50786375219E+02  0.66622514286E+02  0.00000000000E+00 0. -1.
         22    1    4    4    0    0 -0.79485880784E+01  0.15969228967E+02 -0.35093721825E+01  0.18179989531E+02  0.00000000000E+00 0. -1.
         22    1    4    4    0    0 -0.77870021202E+01  0.24176688671E+02 -0.13275376385E+02  0.28659820224E+02  0.00000000000E+00 0. -1.
<mgrwt>
<rscale>  0 0.91147365E+02</rscale>
<asrwt>0</asrwt>
<pdfrwt beam="2">  1        3 0.13925650E-01 0.91147365E+02</pdfrwt>
<pdfrwt beam="1">  1       -3 0.35300924E-02 0.91147365E+02</pdfrwt>
<totfact> 0.33729211E+04</totfact>
</mgrwt>
</event>
<event>
 7    1  0.1247599E-009  0.9357165E+02  0.7818608E-02  0.1294426E+00
         -3   -1    0    0    0  501 -0.00000000000E+00  0.00000000000E+00  0.11847723614E+02  0.11848154111E+02  0.10100000000E+00 0.  1.
          3   -1    0    0  501    0  0.00000000000E+00 -0.00000000000E+00 -0.18475012720E+03  0.18475015481E+03  0.10100000000E+00 0. -1.
         23    2    1    2    0    0  0.00000000000E+00  0.00000000000E+00 -0.17290240359E+03  0.19659830892E+03  0.93571651177E+02 0.  0.
    9000005    2    3    3    0    0 -0.16229849445E+02 -0.38840012406E+02 -0.46210405891E+02  0.63096185877E+02  0.85890909243E+01 0.  0.
         22    1    3    3    0    0  0.16229849445E+02  0.38840012406E+02 -0.12669199770E+03  0.13350212305E+03  0.00000000000E+00 0.  1.
         22    1    4    4    0    0 -0.45283141810E+01 -0.21384199891E+02 -0.25581374652E+02  0.33648125704E+02  0.00000000000E+00 0. -1.
         22    1    4    4    0    0 -0.11701535264E+02 -0.17455812514E+02 -0.20629031239E+02  0.29448060173E+02  0.00000000000E+00 0. -1.
<mgrwt>
<rscale>  0 0.93571651E+02</rscale>
<asrwt>0</asrwt>
<pdfrwt beam="2">  1        3 0.28423130E-01 0.93571651E+02</pdfrwt>
<pdfrwt beam="1">  1       -3 0.18227621E-02 0.93571651E+02</pdfrwt>
<totfact> 0.26732318E+04</totfact>
</mgrwt>
</event>
<event>
 7    1  0.1247599E-009  0.9074159E+02  0.7818608E-02  0.1301066E+00
         -3   -1    0    0    0  501 -0.00000000000E+00  0.00000000000E+00  0.42025383610E+02  0.42025504977E+02  0.10100000000E+00 0.  1.
          3   -1    0    0  501    0  0.00000000000E+00 -0.00000000000E+00 -0.48982277220E+02  0.48982381349E+02  0.10100000000E+00 0. -1.
         23    2    1    2    0    0  0.00000000000E+00 -0.35527136788E-14 -0.69568936092E+01  0.91007886326E+02  0.90741594679E+02 0.  0.
    9000005    2    3    3    0    0 -0.30203498696E+02 -0.26145986725E+02 -0.23053501110E+02  0.47938584865E+02  0.13068284132E+02 0.  0.
         22    1    3    3    0    0  0.30203498696E+02  0.26145986725E+02  0.16096607501E+02  0.43069301461E+02  0.00000000000E+00 0.  1.
         22    1    4    4    0    0 -0.47493579986E+01  0.12549845584E+00 -0.57891474173E+01  0.74890839948E+01  0.00000000000E+00 0.  1.
         22    1    4    4    0    0 -0.25454140697E+02 -0.26271485181E+02 -0.17264353693E+02  0.40449500871E+02  0.00000000000E+00 0.  1.
<mgrwt>
<rscale>  0 0.90741595E+02</rscale>
<asrwt>0</asrwt>
<pdfrwt beam="2">  1        3 0.75357522E-02 0.90741595E+02</pdfrwt>
<pdfrwt beam="1">  1       -3 0.64654611E-02 0.90741595E+02</pdfrwt>
<totfact> 0.35815208E+04</totfact>
</mgrwt>
</event>
<event>
 7    1  0.1247599E-009  0.9041436E+02  0.7818608E-02  0.1301851E+00
         -3   -1    0    0    0  501 -0.00000000000E+00  0.00000000000E+00  0.12054198968E+03  0.12054203200E+03  0.10100000000E+00 0.  1.
          3   -1    0    0  501    0  0.00000000000E+00 -0.00000000000E+00 -0.16953970698E+02  0.16954271539E+02  0.10100000000E+00 0. -1.
         23    2    1    2    0    0  0.00000000000E+00  0.71054273576E-14  0.10358801899E+03  0.13749630354E+03  0.90414356210E+02 0.  0.
    9000005    2    3    3    0    0  0.17525768330E+02 -0.40253978887E+02  0.43954320064E+02  0.63444204182E+02  0.12870486400E+02 0.  0.
         22    1    3    3    0    0 -0.17525768330E+02  0.40253978887E+02  0.59633698922E+02  0.74052099355E+02  0.00000000000E+00 0. -1.
         22    1    4    4    0    0  0.14836628784E+02 -0.38589371717E+02  0.35768090046E+02  0.54668285401E+02  0.00000000000E+00 0.  1.
         22    1    4    4    0    0  0.26891395453E+01 -0.16646071700E+01  0.81862300189E+01  0.87759187808E+01  0.00000000000E+00 0.  1.
<mgrwt>
<rscale>  0 0.90414356E+02</rscale>
<asrwt>0</asrwt>
<pdfrwt beam="2">  1        3 0.26083296E-02 0.90414356E+02</pdfrwt>
<pdfrwt beam="1">  1       -3 0.18544948E-01 0.90414356E+02</pdfrwt>
<totfact> 0.32828960E+04</totfact>
</mgrwt>
</event>
<event>
 7    1  0.1247599E-009  0.9121330E+02  0.7818608E-02  0.1299940E+00
          3   -1    0    0  501    0  0.00000000000E+00  0.00000000000E+00  0.27037529536E+02  0.27037718181E+02  0.10100000000E+00 0. -1.
         -3   -1    0    0    0  501 -0.00000000000E+00 -0.00000000000E+00 -0.76928369614E+02  0.76928435916E+02  0.10100000000E+00 0.  1.
         23    2    1    2    0    0 -0.35527136788E-14 -0.35527136788E-14 -0.49890840077E+02  0.10396615410E+03  0.91213295489E+02 0.  0.
    9000005    2    3    3    0    0  0.29823683646E+02  0.27254562564E+02 -0.46898859003E+02  0.63454239336E+02  0.13952570632E+02 0.  0.
         22    1    3    3    0    0 -0.29823683646E+02 -0.27254562564E+02 -0.29919810748E+01  0.40511914760E+02  0.00000000000E+00 0. -1.
         22    1    4    4    0    0  0.16058862625E+02  0.20526720785E+02 -0.36838363054E+02  0.45125362352E+02  0.00000000000E+00 0. -1.
         22    1    4    4    0    0  0.13764821021E+02  0.67278417795E+01 -0.10060495949E+02  0.18328876984E+02  0.00000000000E+00 0. -1.
<mgrwt>
<rscale>  0 0.91213295E+02</rscale>
<asrwt>0</asrwt>
<pdfrwt beam="1">  1        3 0.41596396E-02 0.91213295E+02</pdfrwt>
<pdfrwt beam="2">  1       -3 0.11835153E-01 0.91213295E+02</pdfrwt>
<totfact> 0.34343690E+04</totfact>
</mgrwt>
</event>
<event>
 7    1  0.1247599E-009  0.9121955E+02  0.7818608E-02  0.1299925E+00
         -3   -1    0    0    0  501 -0.00000000000E+00  0.00000000000E+00  0.29865821018E+01  0.29882894189E+01  0.10100000000E+00 0.  1.
          3   -1    0    0  501    0  0.00000000000E+00 -0.00000000000E+00 -0.69633179207E+03  0.69633179940E+03  0.10100000000E+00 0. -1.
         23    2    1    2    0    0  0.00000000000E+00  0.00000000000E+00 -0.69334520997E+03  0.69932008881E+03  0.91219550714E+02 0.  0.
    9000005    2    3    3    0    0 -0.24936602760E+02 -0.34610775561E+02 -0.46757119138E+03  0.46955140641E+03  0.59970255041E+01 0.  0.
         22    1    3    3    0    0  0.24936602760E+02  0.34610775561E+02 -0.22577401859E+03  0.22976868240E+03  0.00000000000E+00 0.  1.
         22    1    4    4    0    0 -0.22636023938E+02 -0.27784020631E+02 -0.39624117678E+03  0.39785853209E+03  0.00000000000E+00 0.  1.
         22    1    4    4    0    0 -0.23005788222E+01 -0.68267549298E+01 -0.71330014604E+02  0.71692874326E+02  0.00000000000E+00 0.  1.
<mgrwt>
<rscale>  0 0.91219551E+02</rscale>
<asrwt>0</asrwt>
<pdfrwt beam="2">  1        3 0.10712797E+00 0.91219551E+02</pdfrwt>
<pdfrwt beam="1">  1       -3 0.45960662E-03 0.91219551E+02</pdfrwt>
<totfact> 0.13912996E+04</totfact>
</mgrwt>
</event>
<event>
 7    1  0.1247599E-009  0.9363154E+02  0.7818608E-02  0.1294288E+00
         -3   -1    0    0    0  501 -0.00000000000E+00  0.00000000000E+00  0.37105047491E+03  0.37105048866E+03  0.10100000000E+00 0.  1.
          3   -1    0    0  501    0  0.00000000000E+00 -0.00000000000E+00 -0.59063421987E+01  0.59072056988E+01  0.10100000000E+00 0. -1.
         23    2    1    2    0    0  0.00000000000E+00  0.17763568394E-14  0.36514413272E+03  0.37695769436E+03  0.93631542121E+02 0.  0.
    9000005    2    3    3    0    0  0.40331489191E+02  0.11701662989E+02  0.26371406953E+03  0.26717784350E+03  0.86793808285E+01 0.  0.
         22    1    3    3    0    0 -0.40331489191E+02 -0.11701662989E+02  0.10143006318E+03  0.10977985086E+03  0.00000000000E+00 0.  1.
         22    1    4    4    0    0  0.93945445661E+01  0.52106715514E+01  0.86755569331E+02  0.87418175316E+02  0.00000000000E+00 0.  1.
         22    1    4    4    0    0  0.30936944625E+02  0.64909914375E+01  0.17695850020E+03  0.17975966819E+03  0.00000000000E+00 0.  1.
<mgrwt>
<rscale>  0 0.93631542E+02</rscale>
<asrwt>0</asrwt>
<pdfrwt beam="2">  1        3 0.90873523E-03 0.93631542E+02</pdfrwt>
<pdfrwt beam="1">  1       -3 0.57084774E-01 0.93631542E+02</pdfrwt>
<totfact> 0.19849603E+04</totfact>
</mgrwt>
</event>
<event>
 7    1  0.1247599E-009  0.8989687E+02  0.7818608E-02  0.1303102E+00
         -3   -1    0    0    0  501 -0.00000000000E+00  0.00000000000E+00  0.29251313238E+03  0.29251314982E+03  0.10100000000E+00 0.  1.
          3   -1    0    0  501    0  0.00000000000E+00 -0.00000000000E+00 -0.69065225684E+01  0.69072610337E+01  0.10100000000E+00 0. -1.
         23    2    1    2    0    0  0.00000000000E+00  0.00000000000E+00  0.28560660981E+03  0.29942041085E+03  0.89896867943E+02 0.  0.
    9000005    2    3    3    0    0  0.65379400464E+01  0.40033438478E+02  0.20350689291E+03  0.20784648240E+03  0.11818795538E+02 0.  0.
         22    1    3    3    0    0 -0.65379400464E+01 -0.40033438478E+02  0.82099716903E+02  0.91573928451E+02  0.00000000000E+00 0. -1.
         22    1    4    4    0    0  0.27794638629E+01  0.24234514606E+01  0.94728057990E+01  0.10165263698E+02  0.00000000000E+00 0. -1.
         22    1    4    4    0    0  0.37584761836E+01  0.37609987018E+02  0.19403408711E+03  0.19768121870E+03  0.00000000000E+00 0. -1.
<mgrwt>
<rscale>  0 0.89896868E+02</rscale>
<asrwt>0</asrwt>
<pdfrwt beam="2">  1        3 0.10625997E-02 0.89896868E+02</pdfrwt>
<pdfrwt beam="1">  1       -3 0.45002094E-01 0.89896868E+02</pdfrwt>
<totfact> 0.24974128E+04</totfact>
</mgrwt>
</event>
<event>
 7    1  0.1247599E-009  0.9667859E+02  0.7818608E-02  0.1287440E+00
         -3   -1    0    0    0  501 -0.00000000000E+00  0.00000000000E+00  0.34858642546E+02  0.34858788865E+02  0.10100000000E+00 0.  1.
          3   -1    0    0  501    0  0.00000000000E+00 -0.00000000000E+00 -0.67032903074E+02  0.67032979164E+02  0.10100000000E+00 0. -1.
         23    2    1    2    0    0  0.44408920985E-15  0.00000000000E+00 -0.32174260528E+02  0.10189176803E+03  0.96678587865E+02 0.  0.
    9000005    2    3    3    0    0 -0.22506603179E+01  0.35179470483E+02  0.18099211019E+02  0.40490770018E+02  0.83222834445E+01 0.  0.
         22    1    3    3    0    0  0.22506603179E+01 -0.35179470483E+02 -0.50273471548E+02  0.61400998012E+02  0.00000000000E+00 0. -1.
         22    1    4    4    0    0  0.74103989319E+00  0.29025663532E+02  0.16738136652E+02  0.33514228354E+02  0.00000000000E+00 0.  1.
         22    1    4    4    0    0 -0.29917002111E+01  0.61538069519E+01  0.13610743678E+01  0.69765416640E+01  0.00000000000E+00 0.  1.
<mgrwt>
<rscale>  0 0.96678588E+02</rscale>
<asrwt>0</asrwt>
<pdfrwt beam="2">  1        3 0.10312771E-01 0.96678588E+02</pdfrwt>
<pdfrwt beam="1">  1       -3 0.53628852E-02 0.96678588E+02</pdfrwt>
<totfact> 0.29419435E+04</totfact>
</mgrwt>
</event>
<event>
 7    1  0.1247599E-009  0.8962071E+02  0.7818608E-02  0.1303773E+00
          3   -1    0    0  501    0  0.00000000000E+00  0.00000000000E+00  0.58151728375E+01  0.58160498734E+01  0.10100000000E+00 0. -1.
         -3   -1    0    0    0  501 -0.00000000000E+00 -0.00000000000E+00 -0.34527114741E+03  0.34527116218E+03  0.10100000000E+00 0.  1.
         23    2    1    2    0    0 -0.17763568394E-14  0.00000000000E+00 -0.33945597457E+03  0.35108721205E+03  0.89620710754E+02 0.  0.
    9000005    2    3    3    0    0  0.94503452874E+01 -0.39027868573E+02 -0.24182342503E+03  0.24551923263E+03  0.13734669373E+02 0.  0.
         22    1    3    3    0    0 -0.94503452874E+01  0.39027868573E+02 -0.97632549536E+02  0.10556797943E+03  0.00000000000E+00 0. -1.
         22    1    4    4    0    0  0.36415361052E+01 -0.12106623765E+01 -0.14538717092E+02  0.15036648007E+02  0.00000000000E+00 0. -1.
         22    1    4    4    0    0  0.58088091821E+01 -0.37817206197E+02 -0.22728470794E+03  0.23048258462E+03  0.00000000000E+00 0. -1.
<mgrwt>
<rscale>  0 0.89620711E+02</rscale>
<asrwt>0</asrwt>
<pdfrwt beam="1">  1        3 0.89471085E-03 0.89620711E+02</pdfrwt>
<pdfrwt beam="2">  1       -3 0.53118691E-01 0.89620711E+02</pdfrwt>
<totfact> 0.23212976E+04</totfact>
</mgrwt>
</event>
<event>
 7    1  0.1247599E-009  0.9082215E+02  0.7818608E-02  0.1300873E+00
         -3   -1    0    0    0  501 -0.00000000000E+00  0.00000000000E+00  0.17879547253E+03  0.17879550106E+03  0.10100000000E+00 0.  1.
          3   -1    0    0  501    0  0.00000000000E+00 -0.00000000000E+00 -0.11533405820E+02  0.11533848048E+02  0.10100000000E+00 0. -1.
         23    2    1    2    0    0  0.00000000000E+00  0.00000000000E+00  0.16726206671E+03  0.19032934911E+03  0.90822145816E+02 0.  0.
    9000005    2    3    3    0    0 -0.37358051202E+02 -0.23560763632E+02  0.70070261606E+02  0.83572707382E+02  0.11127546231E+02 0.  0.
         22    1    3    3    0    0  0.37358051202E+02  0.23560763632E+02  0.97191805106E+02  0.10675664172E+03  0.00000000000E+00 0. -1.
         22    1    4    4    0    0 -0.15249093608E+02 -0.13223931047E+02  0.40339646224E+02  0.45107585456E+02  0.00000000000E+00 0. -1.
         22    1    4    4    0    0 -0.22108957595E+02 -0.10336832584E+02  0.29730615382E+02  0.38465121926E+02  0.00000000000E+00 0. -1.
<mgrwt>
<rscale>  0 0.90822146E+02</rscale>
<asrwt>0</asrwt>
<pdfrwt beam="2">  1        3 0.17744063E-02 0.90822146E+02</pdfrwt>
<pdfrwt beam="1">  1       -3 0.27507033E-01 0.90822146E+02</pdfrwt>
<totfact> 0.29312336E+04</totfact>
</mgrwt>
</event>
<event>
 7    1  0.1247599E-009  0.9421211E+02  0.7818608E-02  0.1292961E+00
         -3   -1    0    0    0  501 -0.00000000000E+00  0.00000000000E+00  0.10931153775E+02  0.10931620367E+02  0.10100000000E+00 0.  1.
          3   -1    0    0  501    0  0.00000000000E+00 -0.00000000000E+00 -0.20299119201E+03  0.20299121714E+03  0.10100000000E+00 0. -1.
         23    2    1    2    0    0 -0.71054273576E-14  0.00000000000E+00 -0.19206003823E+03  0.21392283750E+03  0.94212112379E+02 0.  0.
    9000005    2    3    3    0    0  0.46511688159E+02  0.58665443796E+00 -0.10455373519E+03  0.11482170546E+03  0.94265160500E+01 0.  0.
         22    1    3    3    0    0 -0.46511688159E+02 -0.58665443796E+00 -0.87506303047E+02  0.99101132041E+02  0.00000000000E+00 0. -1.
         22    1    4    4    0    0  0.14208106172E+02  0.15184413784E+00 -0.22199021580E+02  0.26356970553E+02  0.00000000000E+00 0. -1.
         22    1    4    4    0    0  0.32303581987E+02  0.43481030011E+00 -0.82354713608E+02  0.88464734910E+02  0.00000000000E+00 0. -1.
<mgrwt>
<rscale>  0 0.94212112E+02</rscale>
<asrwt>0</asrwt>
<pdfrwt beam="2">  1        3 0.31229449E-01 0.94212112E+02</pdfrwt>
<pdfrwt beam="1">  1       -3 0.16817539E-02 0.94212112E+02</pdfrwt>
<totfact> 0.25438712E+04</totfact>
</mgrwt>
</event>
<event>
 7    1  0.1247599E-009  0.9179664E+02  0.7818608E-02  0.1298558E+00
          3   -1    0    0  501    0  0.00000000000E+00  0.00000000000E+00  0.42858723064E+02  0.42858842071E+02  0.10100000000E+00 0. -1.
         -3   -1    0    0    0  501 -0.00000000000E+00 -0.00000000000E+00 -0.49153252399E+02  0.49153356166E+02  0.10100000000E+00 0.  1.
         23    2    1    2    0    0  0.00000000000E+00  0.00000000000E+00 -0.62945293354E+01  0.92012198237E+02  0.91796642231E+02 0.  0.
    9000005    2    3    3    0    0  0.12182986983E+02  0.27858237868E+02  0.30335545375E+02  0.44406852296E+02  0.11279034920E+02 0.  0.
         22    1    3    3    0    0 -0.12182986983E+02 -0.27858237868E+02 -0.36630074710E+02  0.47605345941E+02  0.00000000000E+00 0.  1.
         22    1    4    4    0    0  0.83086595034E+01  0.15517388256E+02  0.24621622866E+02  0.30266276176E+02  0.00000000000E+00 0.  1.
         22    1    4    4    0    0  0.38743274800E+01  0.12340849612E+02  0.57139225087E+01  0.14140576120E+02  0.00000000000E+00 0.  1.
<mgrwt>
<rscale>  0 0.91796642E+02</rscale>
<asrwt>0</asrwt>
<pdfrwt beam="1">  1        3 0.65936669E-02 0.91796642E+02</pdfrwt>
<pdfrwt beam="2">  1       -3 0.75620559E-02 0.91796642E+02</pdfrwt>
<totfact> 0.34628196E+04</totfact>
</mgrwt>
</event>
<event>
 7    1  0.1247599E-009  0.8555301E+02  0.7818608E-02  0.1313993E+00
         -3   -1    0    0    0  501 -0.00000000000E+00  0.00000000000E+00  0.58846725074E+02  0.58846811748E+02  0.10100000000E+00 0.  1.
          3   -1    0    0  501    0  0.00000000000E+00 -0.00000000000E+00 -0.31094647801E+02  0.31094811832E+02  0.10100000000E+00 0. -1.
         23    2    1    2    0    0  0.00000000000E+00  0.35527136788E-14  0.27752077273E+02  0.89941623580E+02  0.85553011982E+02 0.  0.
    9000005    2    3    3    0    0 -0.20586237734E+01 -0.20985598483E+02 -0.23967561046E+02  0.34088653530E+02  0.11956548057E+02 0.  0.
         22    1    3    3    0    0  0.20586237734E+01  0.20985598483E+02  0.51719638319E+02  0.55852970050E+02  0.00000000000E+00 0.  1.
         22    1    4    4    0    0  0.39111883403E+01 -0.83976062721E+01 -0.49182572253E+01  0.10488395467E+02  0.00000000000E+00 0.  1.
         22    1    4    4    0    0 -0.59698121136E+01 -0.12587992211E+02 -0.19049303821E+02  0.23600258063E+02  0.00000000000E+00 0.  1.
<mgrwt>
<rscale>  0 0.85553012E+02</rscale>
<asrwt>0</asrwt>
<pdfrwt beam="2">  1        3 0.47838113E-02 0.85553012E+02</pdfrwt>
<pdfrwt beam="1">  1       -3 0.90533615E-02 0.85553012E+02</pdfrwt>
<totfact> 0.42110063E+04</totfact>
</mgrwt>
</event>
<event>
 7    1  0.1247599E-009  0.9095826E+02  0.7818608E-02  0.1300548E+00
          3   -1    0    0  501    0  0.00000000000E+00  0.00000000000E+00  0.44073330671E+02  0.44073446399E+02  0.10100000000E+00 0.  1.
         -3   -1    0    0    0  501 -0.00000000000E+00 -0.00000000000E+00 -0.46929533266E+02  0.46929641950E+02  0.10100000000E+00 0. -1.
         23    2    1    2    0    0  0.00000000000E+00  0.00000000000E+00 -0.28562025947E+01  0.91003088349E+02  0.90958255237E+02 0.  0.
    9000005    2    3    3    0    0 -0.39348542791E+02  0.87764876439E+01 -0.20031100840E+02  0.47181727292E+02  0.14125715351E+02 0.  0.
         22    1    3    3    0    0  0.39348542791E+02 -0.87764876439E+01  0.17174898246E+02  0.43821361057E+02  0.00000000000E+00 0.  1.
         22    1    4    4    0    0 -0.17634632448E+02  0.93012809722E+01 -0.14828444603E+02  0.24847069418E+02  0.00000000000E+00 0.  1.
         22    1    4    4    0    0 -0.21713910343E+02 -0.52479332827E+00 -0.52026562375E+01  0.22334657874E+02  0.00000000000E+00 0.  1.
<mgrwt>
<rscale>  0 0.90958255E+02</rscale>
<asrwt>0</asrwt>
<pdfrwt beam="1">  1        3 0.67805296E-02 0.90958255E+02</pdfrwt>
<pdfrwt beam="2">  1       -3 0.72199455E-02 0.90958255E+02</pdfrwt>
<totfact> 0.35584104E+04</totfact>
</mgrwt>
</event>
<event>
 7    1  0.1247599E-009  0.9228785E+02  0.7818608E-02  0.1297404E+00
         -3   -1    0    0    0  501 -0.00000000000E+00  0.00000000000E+00  0.11437541229E+03  0.11437545688E+03  0.10100000000E+00 0.  1.
          3   -1    0    0  501    0  0.00000000000E+00 -0.00000000000E+00 -0.18616245850E+02  0.18616519829E+02  0.10100000000E+00 0. -1.
         23    2    1    2    0    0  0.17763568394E-14  0.35527136788E-14  0.95759166438E+02  0.13299197671E+03  0.92287853549E+02 0.  0.
    9000005    2    3    3    0    0 -0.10162485278E+02 -0.30592089740E+02  0.31702965077E+00  0.32252939907E+02  0.99978155212E+00 0.  0.
         22    1    3    3    0    0  0.10162485278E+02  0.30592089740E+02  0.95442136788E+02  0.10073903680E+03  0.00000000000E+00 0.  1.
         22    1    4    4    0    0 -0.64642242076E+01 -0.20924115507E+02  0.28272583693E+00  0.21901706287E+02  0.00000000000E+00 0. -1.
         22    1    4    4    0    0 -0.36982610699E+01 -0.96679742329E+01  0.34303813837E-01  0.10351233620E+02  0.00000000000E+00 0. -1.
<mgrwt>
<rscale>  0 0.92287854E+02</rscale>
<asrwt>0</asrwt>
<pdfrwt beam="2">  1        3 0.28640623E-02 0.92287854E+02</pdfrwt>
<pdfrwt beam="1">  1       -3 0.17596242E-01 0.92287854E+02</pdfrwt>
<totfact> 0.31332926E+04</totfact>
</mgrwt>
</event>
<event>
 7    1  0.1247599E-009  0.8999098E+02  0.7818608E-02  0.1302874E+00
          3   -1    0    0  501    0  0.00000000000E+00  0.00000000000E+00  0.13513512440E+02  0.13513889872E+02  0.10100000000E+00 0. -1.
         -3   -1    0    0    0  501 -0.00000000000E+00 -0.00000000000E+00 -0.14981750033E+03  0.14981753438E+03  0.10100000000E+00 0.  1.
         23    2    1    2    0    0  0.88817841970E-15  0.00000000000E+00 -0.13630398789E+03  0.16333142425E+03  0.89990983059E+02 0.  0.
    9000005    2    3    3    0    0 -0.40856676308E+01  0.43409039425E+02 -0.62217629765E+02  0.77367327998E+02  0.14616176115E+02 0.  0.
         22    1    3    3    0    0  0.40856676308E+01 -0.43409039425E+02 -0.74086358125E+02  0.85964096250E+02  0.00000000000E+00 0.  1.
         22    1    4    4    0    0 -0.89956501241E+01  0.23982447037E+02 -0.39473566877E+02  0.47055732585E+02  0.00000000000E+00 0.  1.
         22    1    4    4    0    0  0.49099824934E+01  0.19426592387E+02 -0.22744062887E+02  0.30311595413E+02  0.00000000000E+00 0.  1.
<mgrwt>
<rscale>  0 0.89990983E+02</rscale>
<asrwt>0</asrwt>
<pdfrwt beam="1">  1        3 0.20790337E-02 0.89990983E+02</pdfrwt>
<pdfrwt beam="2">  1       -3 0.23048877E-01 0.89990983E+02</pdfrwt>
<totfact> 0.31609149E+04</totfact>
</mgrwt>
</event>
<event>
 7    1  0.1247599E-009  0.8275302E+02  0.7818608E-02  0.1321415E+00
         -3   -1    0    0    0  501 -0.00000000000E+00  0.00000000000E+00  0.18782971374E+03  0.18782974090E+03  0.10100000000E+00 0.  1.
          3   -1    0    0  501    0  0.00000000000E+00 -0.00000000000E+00 -0.91144138975E+01  0.91149734885E+01  0.10100000000E+00 0. -1.
         23    2    1    2    0    0  0.00000000000E+00  0.00000000000E+00  0.17871529984E+03  0.19694471438E+03  0.82753018832E+02 0.  0.
    9000005    2    3    3    0    0 -0.13248899725E+02 -0.19292955941E+02  0.16942904193E+03  0.17176563420E+03  0.15794978637E+02 0.  0.
         22    1    3    3    0    0  0.13248899725E+02  0.19292955941E+02  0.92862579132E+01  0.25179080184E+02  0.00000000000E+00 0. -1.
         22    1    4    4    0    0 -0.11945575815E+01  0.18989481601E+01  0.39840064520E+02  0.39903179232E+02  0.00000000000E+00 0. -1.
         22    1    4    4    0    0 -0.12054342143E+02 -0.21191904101E+02  0.12958897741E+03  0.13186245497E+03  0.00000000000E+00 0. -1.
<mgrwt>
<rscale>  0 0.82753019E+02</rscale>
<asrwt>0</asrwt>
<pdfrwt beam="2">  1        3 0.14022626E-02 0.82753019E+02</pdfrwt>
<pdfrwt beam="1">  1       -3 0.28896926E-01 0.82753019E+02</pdfrwt>
<totfact> 0.37158269E+04</totfact>
</mgrwt>
</event>
<event>
 7    1  0.1247599E-009  0.9349350E+02  0.7818608E-02  0.1294606E+00
          3   -1    0    0  501    0  0.00000000000E+00  0.00000000000E+00  0.39212292159E+02  0.39212422233E+02  0.10100000000E+00 0. -1.
         -3   -1    0    0    0  501 -0.00000000000E+00 -0.00000000000E+00 -0.55728651891E+02  0.55728743415E+02  0.10100000000E+00 0.  1.
         23    2    1    2    0    0  0.00000000000E+00  0.00000000000E+00 -0.16516359732E+02  0.94941165648E+02  0.93493501356E+02 0.  0.
    9000005    2    3    3    0    0  0.14507442167E+02  0.21464872788E+02  0.30359923871E+02  0.41381921754E+02  0.10933061264E+02 0.  0.
         22    1    3    3    0    0 -0.14507442167E+02 -0.21464872788E+02 -0.46876283603E+02  0.53559243894E+02  0.00000000000E+00 0.  1.
         22    1    4    4    0    0  0.10371479763E+02  0.18255237957E+02  0.29291009107E+02  0.36038653136E+02  0.00000000000E+00 0.  1.
         22    1    4    4    0    0  0.41359624040E+01  0.32096348316E+01  0.10689147636E+01  0.53432686187E+01  0.00000000000E+00 0.  1.
<mgrwt>
<rscale>  0 0.93493501E+02</rscale>
<asrwt>0</asrwt>
<pdfrwt beam="1">  1        3 0.60326774E-02 0.93493501E+02</pdfrwt>
<pdfrwt beam="2">  1       -3 0.85736558E-02 0.93493501E+02</pdfrwt>
<totfact> 0.32730184E+04</totfact>
</mgrwt>
</event>
<event>
 7    1  0.1247599E-009  0.9121220E+02  0.7818608E-02  0.1299942E+00
          3   -1    0    0  501    0  0.00000000000E+00  0.00000000000E+00  0.63092111281E+01  0.63100194975E+01  0.10100000000E+00 0. -1.
         -3   -1    0    0    0  501 -0.00000000000E+00 -0.00000000000E+00 -0.32964155959E+03  0.32964157506E+03  0.10100000000E+00 0.  1.
         23    2    1    2    0    0  0.00000000000E+00  0.00000000000E+00 -0.32333234846E+03  0.33595159456E+03  0.91212204916E+02 0.  0.
    9000005    2    3    3    0    0  0.40997238702E+02  0.17627761903E+02 -0.15095420675E+03  0.15789055078E+03  0.12277700121E+02 0.  0.
         22    1    3    3    0    0 -0.40997238702E+02 -0.17627761903E+02 -0.17237814171E+03  0.17806104377E+03  0.00000000000E+00 0. -1.
         22    1    4    4    0    0  0.29204661585E+02  0.13663909244E+02 -0.12525431363E+03  0.12933776617E+03  0.00000000000E+00 0. -1.
         22    1    4    4    0    0  0.11792577117E+02  0.39638526586E+01 -0.25699893117E+02  0.28552784614E+02  0.00000000000E+00 0. -1.
<mgrwt>
<rscale>  0 0.91212205E+02</rscale>
<asrwt>0</asrwt>
<pdfrwt beam="1">  1        3 0.97071149E-03 0.91212205E+02</pdfrwt>
<pdfrwt beam="2">  1       -3 0.50714136E-01 0.91212205E+02</pdfrwt>
<totfact> 0.22670014E+04</totfact>
</mgrwt>
</event>
<event>
 7    1  0.1247599E-009  0.9157152E+02  0.7818608E-02  0.1299090E+00
          3   -1    0    0  501    0  0.00000000000E+00  0.00000000000E+00  0.23760626939E+02  0.23760841600E+02  0.10100000000E+00 0. -1.
         -3   -1    0    0    0  501 -0.00000000000E+00 -0.00000000000E+00 -0.88226650478E+02  0.88226708290E+02  0.10100000000E+00 0.  1.
         23    2    1    2    0    0  0.00000000000E+00  0.00000000000E+00 -0.64466023539E+02  0.11198754989E+03  0.91571519259E+02 0.  0.
    9000005    2    3    3    0    0  0.79261787056E+01  0.42643480878E+02 -0.18884622271E+02  0.49067323318E+02  0.13026223126E+02 0.  0.
         22    1    3    3    0    0 -0.79261787056E+01 -0.42643480878E+02 -0.45581401268E+02  0.62920226572E+02  0.00000000000E+00 0.  1.
         22    1    4    4    0    0  0.38773382623E+01  0.76273059823E+01 -0.90875137280E+01  0.12481684754E+02  0.00000000000E+00 0. -1.
         22    1    4    4    0    0  0.40488404433E+01  0.35016174896E+02 -0.97971085433E+01  0.36585638564E+02  0.00000000000E+00 0. -1.
<mgrwt>
<rscale>  0 0.91571519E+02</rscale>
<asrwt>0</asrwt>
<pdfrwt beam="1">  1        3 0.36555021E-02 0.91571519E+02</pdfrwt>
<pdfrwt beam="2">  1       -3 0.13573352E-01 0.91571519E+02</pdfrwt>
<totfact> 0.33409946E+04</totfact>
</mgrwt>
</event>
<event>
 7    1  0.1247599E-009  0.9178638E+02  0.7818608E-02  0.1298582E+00
         -3   -1    0    0    0  501 -0.00000000000E+00  0.00000000000E+00  0.13464219470E+03  0.13464223258E+03  0.10100000000E+00 0.  1.
          3   -1    0    0  501    0  0.00000000000E+00 -0.00000000000E+00 -0.15642627066E+02  0.15642953126E+02  0.10100000000E+00 0. -1.
         23    2    1    2    0    0  0.00000000000E+00  0.00000000000E+00  0.11899956763E+03  0.15028518571E+03  0.91786382139E+02 0.  0.
    9000005    2    3    3    0    0 -0.32471290464E+02  0.16877837397E+02  0.10384278823E+03  0.11067490849E+03  0.11241201098E+02 0.  0.
         22    1    3    3    0    0  0.32471290464E+02 -0.16877837397E+02  0.15156779406E+02  0.39610277221E+02  0.00000000000E+00 0. -1.
         22    1    4    4    0    0 -0.45163455486E+01  0.14160039864E+01  0.54116280379E+01  0.71894479916E+01  0.00000000000E+00 0. -1.
         22    1    4    4    0    0 -0.27954944915E+02  0.15461833410E+02  0.98431160189E+02  0.10348546049E+03  0.00000000000E+00 0. -1.
<mgrwt>
<rscale>  0 0.91786382E+02</rscale>
<asrwt>0</asrwt>
<pdfrwt beam="2">  1        3 0.24065859E-02 0.91786382E+02</pdfrwt>
<pdfrwt beam="1">  1       -3 0.20714213E-01 0.91786382E+02</pdfrwt>
<totfact> 0.30730019E+04</totfact>
</mgrwt>
</event>
<event>
 7    1  0.1247599E-009  0.8977270E+02  0.7818608E-02  0.1303403E+00
         -3   -1    0    0    0  501 -0.00000000000E+00  0.00000000000E+00  0.44634939476E+02  0.44635053747E+02  0.10100000000E+00 0.  1.
          3   -1    0    0  501    0  0.00000000000E+00 -0.00000000000E+00 -0.45138944694E+02  0.45139057690E+02  0.10100000000E+00 0. -1.
         23    2    1    2    0    0 -0.35527136788E-14 -0.17763568394E-14 -0.50400521855E+00  0.89774111437E+02  0.89772696646E+02 0.  0.
    9000005    2    3    3    0    0 -0.21542040480E+02 -0.10988350770E+02 -0.37356266376E+02  0.45695857012E+02  0.10383513367E+02 0.  0.
         22    1    3    3    0    0  0.21542040480E+02  0.10988350770E+02  0.36852261158E+02  0.44078254425E+02  0.00000000000E+00 0.  1.
         22    1    4    4    0    0 -0.20834028003E+02 -0.10841864363E+02 -0.38036456090E+02  0.44703184870E+02  0.00000000000E+00 0. -1.
         22    1    4    4    0    0 -0.70801247688E+00 -0.14648640769E+00  0.68018971360E+00  0.99267214202E+00  0.00000000000E+00 0. -1.
<mgrwt>
<rscale>  0 0.89772697E+02</rscale>
<asrwt>0</asrwt>
<pdfrwt beam="2">  1        3 0.69444705E-02 0.89772697E+02</pdfrwt>
<pdfrwt beam="1">  1       -3 0.68669312E-02 0.89772697E+02</pdfrwt>
<totfact> 0.36974680E+04</totfact>
</mgrwt>
</event>
<event>
 7    1  0.1247599E-009  0.9078630E+02  0.7818608E-02  0.1300959E+00
         -3   -1    0    0    0  501 -0.00000000000E+00  0.00000000000E+00  0.21905691754E+03  0.21905694083E+03  0.10100000000E+00 0.  1.
          3   -1    0    0  501    0  0.00000000000E+00 -0.00000000000E+00 -0.94061104347E+01  0.94066526729E+01  0.10100000000E+00 0. -1.
         23    2    1    2    0    0  0.00000000000E+00  0.00000000000E+00  0.20965080711E+03  0.22846359350E+03  0.90786302016E+02 0.  0.
    9000005    2    3    3    0    0  0.24672747625E+02 -0.35424583560E+02  0.83578680171E+02  0.95205097387E+02  0.14661827771E+02 0.  0.
         22    1    3    3    0    0 -0.24672747625E+02  0.35424583560E+02  0.12607212694E+03  0.13325849611E+03  0.00000000000E+00 0.  1.
         22    1    4    4    0    0  0.25287884351E+02 -0.29681555508E+02  0.77853147431E+02  0.87072294085E+02  0.00000000000E+00 0. -1.
         22    1    4    4    0    0 -0.61513672527E+00 -0.57430280520E+01  0.57255327403E+01  0.81328033025E+01  0.00000000000E+00 0. -1.
<mgrwt>
<rscale>  0 0.90786302E+02</rscale>
<asrwt>0</asrwt>
<pdfrwt beam="2">  1        3 0.14471374E-02 0.90786302E+02</pdfrwt>
<pdfrwt beam="1">  1       -3 0.33701109E-01 0.90786302E+02</pdfrwt>
<totfact> 0.27402815E+04</totfact>
</mgrwt>
</event>
<event>
 7    1  0.1247599E-009  0.8921596E+02  0.7818608E-02  0.1304762E+00
          3   -1    0    0  501    0  0.00000000000E+00  0.00000000000E+00  0.37296029690E+02  0.37296166446E+02  0.10100000000E+00 0. -1.
         -3   -1    0    0    0  501 -0.00000000000E+00 -0.00000000000E+00 -0.53353173055E+02  0.53353268654E+02  0.10100000000E+00 0.  1.
         23    2    1    2    0    0  0.00000000000E+00  0.17763568394E-14 -0.16057143366E+02  0.90649435101E+02  0.89215963992E+02 0.  0.
    9000005    2    3    3    0    0  0.35404497741E+02 -0.12662820090E+02  0.14792834305E+02  0.42012549970E+02  0.11506560532E+02 0.  0.
         22    1    3    3    0    0 -0.35404497741E+02  0.12662820090E+02 -0.30849977671E+02  0.48636885131E+02  0.00000000000E+00 0.  1.
         22    1    4    4    0    0  0.47622585914E+01 -0.65072369917E+01  0.32760380283E+01  0.87037730508E+01  0.00000000000E+00 0. -1.
         22    1    4    4    0    0  0.30642239149E+02 -0.61555830986E+01  0.11516796277E+02  0.33308776919E+02  0.00000000000E+00 0. -1.
<mgrwt>
<rscale>  0 0.89215964E+02</rscale>
<asrwt>0</asrwt>
<pdfrwt beam="1">  1        3 0.57378686E-02 0.89215964E+02</pdfrwt>
<pdfrwt beam="2">  1       -3 0.82081984E-02 0.89215964E+02</pdfrwt>
<totfact> 0.37532987E+04</totfact>
</mgrwt>
</event>
<event>
 7    1  0.1247599E-009  0.8906658E+02  0.7818608E-02  0.1305128E+00
         -3   -1    0    0    0  501 -0.00000000000E+00  0.00000000000E+00  0.31447814124E+02  0.31447976313E+02  0.10100000000E+00 0.  1.
          3   -1    0    0  501    0  0.00000000000E+00 -0.00000000000E+00 -0.63063278327E+02  0.63063359206E+02  0.10100000000E+00 0. -1.
         23    2    1    2    0    0  0.00000000000E+00 -0.17763568394E-14 -0.31615464203E+02  0.94511335519E+02  0.89066576025E+02 0.  0.
    9000005    2    3    3    0    0 -0.12674892685E+02  0.11308268870E+02 -0.59104122153E+02  0.62197930170E+02  0.93142585584E+01 0.  0.
         22    1    3    3    0    0  0.12674892685E+02 -0.11308268870E+02  0.27488657950E+02  0.32313405350E+02  0.00000000000E+00 0.  1.
         22    1    4    4    0    0 -0.12624163641E+02  0.11554136378E+02 -0.45821848597E+02  0.48913284330E+02  0.00000000000E+00 0.  1.
         22    1    4    4    0    0 -0.50729043449E-01 -0.24586750851E+00 -0.13282273556E+02  0.13284645840E+02  0.00000000000E+00 0.  1.
<mgrwt>
<rscale>  0 0.89066576E+02</rscale>
<asrwt>0</asrwt>
<pdfrwt beam="2">  1        3 0.97020615E-02 0.89066576E+02</pdfrwt>
<pdfrwt beam="1">  1       -3 0.48381440E-02 0.89066576E+02</pdfrwt>
<totfact> 0.37386583E+04</totfact>
</mgrwt>
</event>
<event>
 7    1  0.1247599E-009  0.9012527E+02  0.7818608E-02  0.1302549E+00
          3   -1    0    0  501    0  0.00000000000E+00  0.00000000000E+00  0.11722523446E+03  0.11722527797E+03  0.10100000000E+00 0. -1.
         -3   -1    0    0    0  501 -0.00000000000E+00 -0.00000000000E+00 -0.17322366069E+02  0.17322660513E+02  0.10100000000E+00 0.  1.
         23    2    1    2    0    0  0.00000000000E+00  0.00000000000E+00  0.99902868391E+02  0.13454793848E+03  0.90125271912E+02 0.  0.
    9000005    2    3    3    0    0 -0.28621562909E+02 -0.31505235411E+02  0.65942596965E+02  0.80095447659E+02  0.15971252908E+02 0.  0.
         22    1    3    3    0    0  0.28621562909E+02  0.31505235411E+02  0.33960271425E+02  0.54452490824E+02  0.00000000000E+00 0.  1.
         22    1    4    4    0    0 -0.75955773599E+00  0.43564676864E-01  0.10291806560E+02  0.10319888958E+02  0.00000000000E+00 0. -1.
         22    1    4    4    0    0 -0.27862005173E+02 -0.31548800088E+02  0.55650790405E+02  0.69775558700E+02  0.00000000000E+00 0. -1.
<mgrwt>
<rscale>  0 0.90125272E+02</rscale>
<asrwt>0</asrwt>
<pdfrwt beam="1">  1        3 0.18034677E-01 0.90125272E+02</pdfrwt>
<pdfrwt beam="2">  1       -3 0.26650054E-02 0.90125272E+02</pdfrwt>
<totfact> 0.33308683E+04</totfact>
</mgrwt>
</event>
<event>
 7    1  0.1247599E-009  0.9073589E+02  0.7818608E-02  0.1301079E+00
         -3   -1    0    0    0  501 -0.00000000000E+00  0.00000000000E+00  0.45731162042E+02  0.45731273574E+02  0.10100000000E+00 0. -1.
          3   -1    0    0  501    0  0.00000000000E+00 -0.00000000000E+00 -0.45007394245E+02  0.45007507570E+02  0.10100000000E+00 0.  1.
         23    2    1    2    0    0  0.00000000000E+00 -0.17763568394E-14  0.72376779683E+00  0.90738781144E+02  0.90735894571E+02 0.  0.
    9000005    2    3    3    0    0  0.28520191594E+01 -0.10543127767E+02  0.44385683472E+02  0.45731510211E+02  0.14108765203E+01 0.  0.
         22    1    3    3    0    0 -0.28520191594E+01  0.10543127767E+02 -0.43661915675E+02  0.45007270933E+02  0.00000000000E+00 0.  1.
         22    1    4    4    0    0  0.25928892712E+01 -0.72141471039E+01  0.30114813986E+02  0.31075215440E+02  0.00000000000E+00 0. -1.
         22    1    4    4    0    0  0.25912988812E+00 -0.33289806633E+01  0.14270869485E+02  0.14656294771E+02  0.00000000000E+00 0. -1.
<mgrwt>
<rscale>  0 0.90735895E+02</rscale>
<asrwt>0</asrwt>
<pdfrwt beam="2">  1        3 0.69242318E-02 0.90735895E+02</pdfrwt>
<pdfrwt beam="1">  1       -3 0.70355806E-02 0.90735895E+02</pdfrwt>
<totfact> 0.35842269E+04</totfact>
</mgrwt>
</event>
<event>
 6    1  0.1247599E-009  0.1332788E+03  0.7818608E-02  0.1222670E+00
          3   -1    0    0  501    0  0.00000000000E+00  0.00000000000E+00  0.58963653530E+02  0.58963740032E+02  0.10100000000E+00 0. -1.
         -3   -1    0    0    0  501 -0.00000000000E+00 -0.00000000000E+00 -0.75314220288E+02  0.75314288011E+02  0.10100000000E+00 0.  1.
    9000005    2    1    2    0    0 -0.54482757741E+02  0.88877727184E+01 -0.45217230343E+02  0.71983183462E+02  0.94666459973E+01 0.  0.
         22    1    1    2    0    0  0.54482757741E+02 -0.88877727184E+01  0.28866663584E+02  0.62294844582E+02  0.00000000000E+00 0. -1.
         22    1    3    3    0    0 -0.15711307817E+01  0.20667843005E+01 -0.14220437728E+01  0.29601111077E+01  0.00000000000E+00 0. -1.
         22    1    3    3    0    0 -0.52911626959E+02  0.68209884178E+01 -0.43795186570E+02  0.69023072354E+02  0.00000000000E+00 0. -1.
<mgrwt>
<rscale>  0 0.13327883E+03</rscale>
<asrwt>0</asrwt>
<pdfrwt beam="1">  1        3 0.90713431E-02 0.13327883E+03</pdfrwt>
<pdfrwt beam="2">  1       -3 0.11586815E-01 0.13327883E+03</pdfrwt>
<totfact> 0.11253654E+04</totfact>
</mgrwt>
</event>
<event>
 7    1  0.1247599E-009  0.9036528E+02  0.7818608E-02  0.1301970E+00
         -3   -1    0    0    0  501 -0.00000000000E+00  0.00000000000E+00  0.16354909130E+03  0.16354912248E+03  0.10100000000E+00 0.  1.
          3   -1    0    0  501    0  0.00000000000E+00 -0.00000000000E+00 -0.12482075929E+02  0.12482484548E+02  0.10100000000E+00 0. -1.
         23    2    1    2    0    0  0.71054273576E-14 -0.35527136788E-14  0.15106701537E+03  0.17603160703E+03  0.90365278409E+02 0.  0.
    9000005    2    3    3    0    0 -0.33352329919E+02  0.27443375540E+02  0.52780656281E+02  0.68673676935E+02  0.80473259073E+01 0.  0.
         22    1    3    3    0    0  0.33352329919E+02 -0.27443375540E+02  0.98286359086E+02  0.10735793010E+03  0.00000000000E+00 0.  1.
         22    1    4    4    0    0 -0.14433755507E+02  0.10005558274E+02  0.27308454157E+02  0.32468387130E+02  0.00000000000E+00 0. -1.
         22    1    4    4    0    0 -0.18918574411E+02  0.17437817266E+02  0.25472202124E+02  0.36205289805E+02  0.00000000000E+00 0. -1.
<mgrwt>
<rscale>  0 0.90365278E+02</rscale>
<asrwt>0</asrwt>
<pdfrwt beam="2">  1        3 0.19203532E-02 0.90365278E+02</pdfrwt>
<pdfrwt beam="1">  1       -3 0.25161432E-01 0.90365278E+02</pdfrwt>
<totfact> 0.30513500E+04</totfact>
</mgrwt>
</event>
<event>
 7    1  0.1247599E-009  0.8594313E+02  0.7818608E-02  0.1312984E+00
         -3   -1    0    0    0  501 -0.00000000000E+00  0.00000000000E+00  0.11168237645E+02  0.11168694333E+02  0.10100000000E+00 0. -1.
          3   -1    0    0  501    0  0.00000000000E+00 -0.00000000000E+00 -0.16533605563E+03  0.16533608648E+03  0.10100000000E+00 0.  1.
         23    2    1    2    0    0  0.00000000000E+00  0.00000000000E+00 -0.15416781799E+03  0.17650478082E+03  0.85943129729E+02 0.  0.
    9000005    2    3    3    0    0 -0.40615636531E+02 -0.45031726666E+01 -0.64686467702E+02  0.78133949042E+02  0.15832447509E+02 0.  0.
         22    1    3    3    0    0  0.40615636531E+02  0.45031726666E+01 -0.89481350286E+02  0.98370831774E+02  0.00000000000E+00 0.  1.
         22    1    4    4    0    0 -0.37175485495E+02  0.98425468446E+00 -0.57300459358E+02  0.68310527166E+02  0.00000000000E+00 0.  1.
         22    1    4    4    0    0 -0.34401510369E+01 -0.54874273510E+01 -0.73860083447E+01  0.98234218762E+01  0.00000000000E+00 0.  1.
<mgrwt>
<rscale>  0 0.85943130E+02</rscale>
<asrwt>0</asrwt>
<pdfrwt beam="2">  1        3 0.25436352E-01 0.85943130E+02</pdfrwt>
<pdfrwt beam="1">  1       -3 0.17182280E-02 0.85943130E+02</pdfrwt>
<totfact> 0.34887618E+04</totfact>
</mgrwt>
</event>
<event>
 7    1  0.1247599E-009  0.8977047E+02  0.7818608E-02  0.1303408E+00
         -3   -1    0    0    0  501 -0.00000000000E+00  0.00000000000E+00  0.85386749960E+02  0.85386809694E+02  0.10100000000E+00 0.  1.
          3   -1    0    0  501    0  0.00000000000E+00 -0.00000000000E+00 -0.23594637579E+02  0.23594853750E+02  0.10100000000E+00 0. -1.
         23    2    1    2    0    0  0.00000000000E+00 -0.11102230246E-15  0.61792112381E+02  0.10898166344E+03  0.89770472956E+02 0.  0.
    9000005    2    3    3    0    0 -0.38290402920E+02 -0.76557135514E+00  0.56834786083E+02  0.70364100868E+02  0.15942795445E+02 0.  0.
         22    1    3    3    0    0  0.38290402920E+02  0.76557135514E+00  0.49573262979E+01  0.38617562576E+02  0.00000000000E+00 0. -1.
         22    1    4    4    0    0 -0.37234393902E+02 -0.44621328553E+01  0.49715506723E+02  0.62273126849E+02  0.00000000000E+00 0. -1.
         22    1    4    4    0    0 -0.10560090186E+01  0.36965615002E+01  0.71192793599E+01  0.80909740190E+01  0.00000000000E+00 0. -1.
<mgrwt>
<rscale>  0 0.89770473E+02</rscale>
<asrwt>0</asrwt>
<pdfrwt beam="2">  1        3 0.36299655E-02 0.89770473E+02</pdfrwt>
<pdfrwt beam="1">  1       -3 0.13136444E-01 0.89770473E+02</pdfrwt>
<totfact> 0.35484243E+04</totfact>
</mgrwt>
</event>
<event>
 7    1  0.1247599E-009  0.9095639E+02  0.7818608E-02  0.1300552E+00
         -3   -1    0    0    0  501 -0.00000000000E+00  0.00000000000E+00  0.15959092983E+02  0.15959412578E+02  0.10100000000E+00 0.  1.
          3   -1    0    0  501    0  0.00000000000E+00 -0.00000000000E+00 -0.12959634295E+03  0.12959638231E+03  0.10100000000E+00 0. -1.
         23    2    1    2    0    0  0.00000000000E+00  0.00000000000E+00 -0.11363724997E+03  0.14555579489E+03  0.90956389796E+02 0.  0.
    9000005    2    3    3    0    0 -0.34950680977E+02 -0.17236062358E+02 -0.93918422855E+02  0.10188127040E+03  0.63632665137E+01 0.  0.
         22    1    3    3    0    0  0.34950680977E+02  0.17236062358E+02 -0.19718827117E+02  0.43674524488E+02  0.00000000000E+00 0.  1.
         22    1    4    4    0    0 -0.16952802280E+02 -0.71786048235E+01 -0.36637839588E+02  0.41003184779E+02  0.00000000000E+00 0. -1.
         22    1    4    4    0    0 -0.17997878697E+02 -0.10057457535E+02 -0.57280583267E+02  0.60878085622E+02  0.00000000000E+00 0. -1.
<mgrwt>
<rscale>  0 0.90956390E+02</rscale>
<asrwt>0</asrwt>
<pdfrwt beam="2">  1        3 0.19937926E-01 0.90956390E+02</pdfrwt>
<pdfrwt beam="1">  1       -3 0.24552728E-02 0.90956390E+02</pdfrwt>
<totfact> 0.31788957E+04</totfact>
</mgrwt>
</event>
<event>
 7    1  0.1247599E-009  0.9384919E+02  0.7818608E-02  0.1293789E+00
         -3   -1    0    0    0  501 -0.00000000000E+00  0.00000000000E+00  0.21380366101E+03  0.21380368487E+03  0.10100000000E+00 0.  1.
          3   -1    0    0  501    0  0.00000000000E+00 -0.00000000000E+00 -0.10298512090E+02  0.10299007344E+02  0.10100000000E+00 0. -1.
         23    2    1    2    0    0  0.88817841970E-15  0.17763568394E-14  0.20350514892E+03  0.22410269221E+03  0.93849192957E+02 0.  0.
    9000005    2    3    3    0    0 -0.67016106662E+01 -0.15649533147E+02  0.20610726232E+03  0.20688089011E+03  0.54479022485E+01 0.  0.
         22    1    3    3    0    0  0.67016106662E+01  0.15649533147E+02 -0.26021134037E+01  0.17221802095E+02  0.00000000000E+00 0. -1.
         22    1    4    4    0    0 -0.63400956792E+01 -0.14382727236E+02  0.16362905085E+03  0.16438225554E+03  0.00000000000E+00 0. -1.
         22    1    4    4    0    0 -0.36151498700E+00 -0.12668059106E+01  0.42478211476E+02  0.42498634572E+02  0.00000000000E+00 0. -1.
<mgrwt>
<rscale>  0 0.93849193E+02</rscale>
<asrwt>0</asrwt>
<pdfrwt beam="2">  1        3 0.15844265E-02 0.93849193E+02</pdfrwt>
<pdfrwt beam="1">  1       -3 0.32892908E-01 0.93849193E+02</pdfrwt>
<totfact> 0.25246172E+04</totfact>
</mgrwt>
</event>
<event>
 7    1  0.1247599E-009  0.9237573E+02  0.7818608E-02  0.1297198E+00
          3   -1    0    0  501    0  0.00000000000E+00  0.00000000000E+00  0.87801600214E+02  0.87801658305E+02  0.10100000000E+00 0. -1.
         -3   -1    0    0    0  501 -0.00000000000E+00 -0.00000000000E+00 -0.24296869391E+02  0.24297079314E+02  0.10100000000E+00 0.  1.
         23    2    1    2    0    0  0.00000000000E+00  0.00000000000E+00  0.63504730824E+02  0.11209873762E+03  0.92375733495E+02 0.  0.
    9000005    2    3    3    0    0  0.13236971210E+01  0.20069225825E+02  0.81951966774E+02  0.84807227703E+02  0.84625654117E+01 0.  0.
         22    1    3    3    0    0 -0.13236971210E+01 -0.20069225825E+02 -0.18447235950E+02  0.27291509916E+02  0.00000000000E+00 0.  1.
         22    1    4    4    0    0 -0.33942405394E+01  0.81645735361E+01  0.38835510947E+02  0.39829361536E+02  0.00000000000E+00 0.  1.
         22    1    4    4    0    0  0.47179376604E+01  0.11904652288E+02  0.43116455827E+02  0.44977866167E+02  0.00000000000E+00 0.  1.
<mgrwt>
<rscale>  0 0.92375733E+02</rscale>
<asrwt>0</asrwt>
<pdfrwt beam="1">  1        3 0.13507959E-01 0.92375733E+02</pdfrwt>
<pdfrwt beam="2">  1       -3 0.37380005E-02 0.92375733E+02</pdfrwt>
<totfact> 0.32614134E+04</totfact>
</mgrwt>
</event>
<event>
 7    1  0.1247599E-009  0.8657811E+02  0.7818608E-02  0.1311356E+00
          3   -1    0    0  501    0  0.00000000000E+00  0.00000000000E+00  0.21104637599E+02  0.21104879274E+02  0.10100000000E+00 0. -1.
         -3   -1    0    0    0  501 -0.00000000000E+00 -0.00000000000E+00 -0.88792137815E+02  0.88792195258E+02  0.10100000000E+00 0.  1.
         23    2    1    2    0    0  0.00000000000E+00  0.00000000000E+00 -0.67687500216E+02  0.10989707453E+03  0.86578111006E+02 0.  0.
    9000005    2    3    3    0    0  0.32885753077E+02 -0.48513758552E+01 -0.67965031352E+02  0.76654246333E+02  0.12313382599E+02 0.  0.
         22    1    3    3    0    0 -0.32885753077E+02  0.48513758552E+01  0.27753113642E+00  0.33242828199E+02  0.00000000000E+00 0. -1.
         22    1    4    4    0    0  0.15217853388E+02 -0.84452744845E+01 -0.32266847461E+02  0.36661357966E+02  0.00000000000E+00 0. -1.
         22    1    4    4    0    0  0.17667899689E+02  0.35938986293E+01 -0.35698183892E+02  0.39992888367E+02  0.00000000000E+00 0. -1.
<mgrwt>
<rscale>  0 0.86578111E+02</rscale>
<asrwt>0</asrwt>
<pdfrwt beam="1">  1        3 0.32468904E-02 0.86578111E+02</pdfrwt>
<pdfrwt beam="2">  1       -3 0.13660352E-01 0.86578111E+02</pdfrwt>
<totfact> 0.39058530E+04</totfact>
</mgrwt>
</event>
<event>
 7    1  0.1247599E-009  0.9245171E+02  0.7818608E-02  0.1297021E+00
         -3   -1    0    0    0  501 -0.00000000000E+00  0.00000000000E+00  0.81786643991E+01  0.81792880101E+01  0.10100000000E+00 0.  1.
          3   -1    0    0  501    0  0.00000000000E+00 -0.00000000000E+00 -0.26125818424E+03  0.26125820376E+03  0.10100000000E+00 0. -1.
         23    2    1    2    0    0  0.71054273576E-14 -0.69388939039E-15 -0.25307951984E+03  0.26943749177E+03  0.92451709611E+02 0.  0.
    9000005    2    3    3    0    0  0.43640942980E+02 -0.20543795805E+00 -0.93432770357E+02  0.10393323585E+03  0.12956111612E+02 0.  0.
         22    1    3    3    0    0 -0.43640942980E+02  0.20543795805E+00 -0.15964674949E+03  0.16550425593E+03  0.00000000000E+00 0. -1.
         22    1    4    4    0    0  0.15670654018E+02 -0.49336425412E+01 -0.25729297007E+02  0.30527151039E+02  0.00000000000E+00 0.  1.
         22    1    4    4    0    0  0.27970288961E+02  0.47282045831E+01 -0.67703473350E+02  0.73406084808E+02  0.00000000000E+00 0.  1.
<mgrwt>
<rscale>  0 0.92451710E+02</rscale>
<asrwt>0</asrwt>
<pdfrwt beam="2">  1        3 0.40193610E-01 0.92451710E+02</pdfrwt>
<pdfrwt beam="1">  1       -3 0.12583057E-02 0.92451710E+02</pdfrwt>
<totfact> 0.24336582E+04</totfact>
</mgrwt>
</event>
<event>
 7    1  0.1247599E-009  0.8969506E+02  0.7818608E-02  0.1303592E+00
         -3   -1    0    0    0  501 -0.00000000000E+00  0.00000000000E+00  0.92936271845E+02  0.92936326727E+02  0.10100000000E+00 0.  1.
          3   -1    0    0  501    0  0.00000000000E+00 -0.00000000000E+00 -0.21641540796E+02  0.21641776475E+02  0.10100000000E+00 0. -1.
         23    2    1    2    0    0  0.00000000000E+00  0.35527136788E-14  0.71294731050E+02  0.11457810320E+03  0.89695055928E+02 0.  0.
    9000005    2    3    3    0    0  0.13786072527E+02  0.19570779472E+02 -0.12053607072E+02  0.27860073517E+02  0.76041467688E+01 0.  0.
         22    1    3    3    0    0 -0.13786072527E+02 -0.19570779472E+02  0.83348338122E+02  0.86718029685E+02  0.00000000000E+00 0.  1.
         22    1    4    4    0    0  0.11347681855E+02  0.10503913731E+02 -0.94294431524E+01  0.18111225395E+02  0.00000000000E+00 0.  1.
         22    1    4    4    0    0  0.24383906719E+01  0.90668657404E+01 -0.26241639198E+01  0.97488481218E+01  0.00000000000E+00 0.  1.
<mgrwt>
<rscale>  0 0.89695056E+02</rscale>
<asrwt>0</asrwt>
<pdfrwt beam="2">  1        3 0.33294902E-02 0.89695056E+02</pdfrwt>
<pdfrwt beam="1">  1       -3 0.14297910E-01 0.89695056E+02</pdfrwt>
<totfact> 0.35150179E+04</totfact>
</mgrwt>
</event>
<event>
 7    1  0.1247599E-009  0.8882312E+02  0.7818608E-02  0.1305727E+00
         -3   -1    0    0    0  501 -0.00000000000E+00  0.00000000000E+00  0.34680464274E+02  0.34680611345E+02  0.10100000000E+00 0.  1.
          3   -1    0    0  501    0  0.00000000000E+00 -0.00000000000E+00 -0.56872821534E+02  0.56872911216E+02  0.10100000000E+00 0. -1.
         23    2    1    2    0    0  0.00000000000E+00  0.35527136788E-14 -0.22192357260E+02  0.91553522561E+02  0.88823120709E+02 0.  0.
    9000005    2    3    3    0    0 -0.97129897405E+01  0.19149997110E+02 -0.50096320167E+02  0.56344209802E+02  0.14281600925E+02 0.  0.
         22    1    3    3    0    0  0.97129897405E+01 -0.19149997110E+02  0.27903962907E+02  0.35209312758E+02  0.00000000000E+00 0.  1.
         22    1    4    4    0    0  0.16645682536E+01  0.13514554139E+01 -0.19152848596E+00  0.21526500802E+01  0.00000000000E+00 0. -1.
         22    1    4    4    0    0 -0.11377557994E+02  0.17798541697E+02 -0.49904791681E+02  0.54191559722E+02  0.00000000000E+00 0. -1.
<mgrwt>
<rscale>  0 0.88823121E+02</rscale>
<asrwt>0</asrwt>
<pdfrwt beam="2">  1        3 0.87496830E-02 0.88823121E+02</pdfrwt>
<pdfrwt beam="1">  1       -3 0.53354743E-02 0.88823121E+02</pdfrwt>
<totfact> 0.37909289E+04</totfact>
</mgrwt>
</event>
<event>
 7    1  0.1247599E-009  0.8943241E+02  0.7818608E-02  0.1304232E+00
         -3   -1    0    0    0  501 -0.00000000000E+00  0.00000000000E+00  0.38036276812E+02  0.38036410907E+02  0.10100000000E+00 0.  1.
          3   -1    0    0  501    0  0.00000000000E+00 -0.00000000000E+00 -0.52568985181E+02  0.52569082205E+02  0.10100000000E+00 0. -1.
         23    2    1    2    0    0  0.00000000000E+00 -0.35527136788E-14 -0.14532708369E+02  0.90605493113E+02  0.89432408945E+02 0.  0.
    9000005    2    3    3    0    0 -0.30238827904E+02  0.31235551788E+02 -0.15835389184E+02  0.47111316654E+02  0.88696221860E+01 0.  0.
         22    1    3    3    0    0  0.30238827904E+02 -0.31235551788E+02  0.13026808153E+01  0.43494176459E+02  0.00000000000E+00 0. -1.
         22    1    4    4    0    0 -0.65210493574E+01  0.12270309228E+02 -0.34688990997E+01  0.14321935422E+02  0.00000000000E+00 0.  1.
         22    1    4    4    0    0 -0.23717778546E+02  0.18965242561E+02 -0.12366490085E+02  0.32789381232E+02  0.00000000000E+00 0.  1.
<mgrwt>
<rscale>  0 0.89432409E+02</rscale>
<asrwt>0</asrwt>
<pdfrwt beam="2">  1        3 0.80875540E-02 0.89432409E+02</pdfrwt>
<pdfrwt beam="1">  1       -3 0.58517527E-02 0.89432409E+02</pdfrwt>
<totfact> 0.37289998E+04</totfact>
</mgrwt>
</event>
<event>
 7    1  0.1247599E-009  0.9202711E+02  0.7818608E-02  0.1298016E+00
          3   -1    0    0  501    0  0.00000000000E+00  0.00000000000E+00  0.12080130256E+02  0.12080552470E+02  0.10100000000E+00 0. -1.
         -3   -1    0    0    0  501 -0.00000000000E+00 -0.00000000000E+00 -0.17526343732E+03  0.17526346642E+03  0.10100000000E+00 0.  1.
         23    2    1    2    0    0  0.00000000000E+00  0.00000000000E+00 -0.16318330706E+03  0.18734401889E+03  0.92027113994E+02 0.  0.
    9000005    2    3    3    0    0 -0.32629892716E+02  0.25246922798E+02 -0.12035979640E+03  0.12787999553E+03  0.12833380542E+02 0.  0.
         22    1    3    3    0    0  0.32629892716E+02 -0.25246922798E+02 -0.42823510657E+02  0.59464023362E+02  0.00000000000E+00 0. -1.
         22    1    4    4    0    0 -0.13087464967E+02  0.11256290371E+02 -0.69733657822E+02  0.71838491391E+02  0.00000000000E+00 0. -1.
         22    1    4    4    0    0 -0.19542427749E+02  0.13990632427E+02 -0.50626138582E+02  0.56041504135E+02  0.00000000000E+00 0. -1.
<mgrwt>
<rscale>  0 0.92027114E+02</rscale>
<asrwt>0</asrwt>
<pdfrwt beam="1">  1        3 0.18585164E-02 0.92027114E+02</pdfrwt>
<pdfrwt beam="2">  1       -3 0.26963639E-01 0.92027114E+02</pdfrwt>
<totfact> 0.28442393E+04</totfact>
</mgrwt>
</event>
<event>
 7    1  0.1247599E-009  0.9418302E+02  0.7818608E-02  0.1293027E+00
         -3   -1    0    0    0  501 -0.00000000000E+00  0.00000000000E+00  0.99923468231E+01  0.99928572507E+01  0.10100000000E+00 0.  1.
          3   -1    0    0  501    0  0.00000000000E+00 -0.00000000000E+00 -0.22192470879E+03  0.22192473177E+03  0.10100000000E+00 0. -1.
         23    2    1    2    0    0  0.00000000000E+00  0.00000000000E+00 -0.21193236197E+03  0.23191758902E+03  0.94183024212E+02 0.  0.
    9000005    2    3    3    0    0  0.27955255679E+02 -0.16524285695E+02 -0.25915988898E+02  0.43087931958E+02  0.11418540276E+02 0.  0.
         22    1    3    3    0    0 -0.27955255679E+02  0.16524285695E+02 -0.18601637307E+03  0.18882965707E+03  0.00000000000E+00 0. -1.
         22    1    4    4    0    0  0.15166830916E+02 -0.25099591448E+01 -0.13043119204E+02  0.20160744369E+02  0.00000000000E+00 0. -1.
         22    1    4    4    0    0  0.12788424763E+02 -0.14014326551E+02 -0.12872869695E+02  0.22927187589E+02  0.00000000000E+00 0. -1.
<mgrwt>
<rscale>  0 0.94183024E+02</rscale>
<asrwt>0</asrwt>
<pdfrwt beam="2">  1        3 0.34142300E-01 0.94183024E+02</pdfrwt>
<pdfrwt beam="1">  1       -3 0.15373253E-02 0.94183024E+02</pdfrwt>
<totfact> 0.24668942E+04</totfact>
</mgrwt>
</event>
<event>
 7    1  0.1247599E-009  0.9043859E+02  0.7818608E-02  0.1301793E+00
          3   -1    0    0  501    0  0.00000000000E+00  0.00000000000E+00  0.43450483228E+02  0.43450600614E+02  0.10100000000E+00 0. -1.
         -3   -1    0    0    0  501 -0.00000000000E+00 -0.00000000000E+00 -0.47059874708E+02  0.47059983091E+02  0.10100000000E+00 0.  1.
         23    2    1    2    0    0  0.00000000000E+00  0.00000000000E+00 -0.36093914802E+01  0.90510583706E+02  0.90438587206E+02 0.  0.
    9000005    2    3    3    0    0 -0.39524210694E+02  0.90372687222E+01 -0.20137928540E+02  0.46726705460E+02  0.11576414829E+02 0.  0.
         22    1    3    3    0    0  0.39524210694E+02 -0.90372687222E+01  0.16528537060E+02  0.43783878246E+02  0.00000000000E+00 0.  1.
         22    1    4    4    0    0 -0.11638075125E+02  0.13033409645E+01 -0.43797426982E+00  0.11719014965E+02  0.00000000000E+00 0. -1.
         22    1    4    4    0    0 -0.27886135569E+02  0.77339277577E+01 -0.19699954270E+02  0.35007690494E+02  0.00000000000E+00 0. -1.
<mgrwt>
<rscale>  0 0.90438587E+02</rscale>
<asrwt>0</asrwt>
<pdfrwt beam="1">  1        3 0.66847072E-02 0.90438587E+02</pdfrwt>
<pdfrwt beam="2">  1       -3 0.72399980E-02 0.90438587E+02</pdfrwt>
<totfact> 0.36181577E+04</totfact>
</mgrwt>
</event>
<event>
 7    1  0.1247599E-009  0.9631614E+02  0.7818608E-02  0.1288239E+00
         -3   -1    0    0    0  501 -0.00000000000E+00  0.00000000000E+00  0.93910246663E+01  0.93915677756E+01  0.10100000000E+00 0.  1.
          3   -1    0    0  501    0  0.00000000000E+00 -0.00000000000E+00 -0.24695145525E+03  0.24695147591E+03  0.10100000000E+00 0. -1.
         23    2    1    2    0    0  0.00000000000E+00 -0.71054273576E-14 -0.23756043059E+03  0.25634304368E+03  0.96316135013E+02 0.  0.
    9000005    2    3    3    0    0 -0.44279389379E+01 -0.38961432407E+02 -0.19157766315E+03  0.19591114185E+03  0.11898513474E+02 0.  0.
         22    1    3    3    0    0  0.44279389379E+01  0.38961432407E+02 -0.45982767437E+02  0.60431901836E+02  0.00000000000E+00 0.  1.
         22    1    4    4    0    0 -0.19774608184E+01 -0.19429311324E+02 -0.67019265227E+02  0.69806807701E+02  0.00000000000E+00 0. -1.
         22    1    4    4    0    0 -0.24504781195E+01 -0.19532121083E+02 -0.12455839792E+03  0.12610433414E+03  0.00000000000E+00 0. -1.
<mgrwt>
<rscale>  0 0.96316135E+02</rscale>
<asrwt>0</asrwt>
<pdfrwt beam="2">  1        3 0.37992570E-01 0.96316135E+02</pdfrwt>
<pdfrwt beam="1">  1       -3 0.14448166E-02 0.96316135E+02</pdfrwt>
<totfact> 0.22269540E+04</totfact>
</mgrwt>
</event>
<event>
 7    1  0.1247599E-009  0.9118415E+02  0.7818608E-02  0.1300009E+00
          3   -1    0    0  501    0  0.00000000000E+00  0.00000000000E+00  0.16404102442E+03  0.16404105551E+03  0.10100000000E+00 0. -1.
         -3   -1    0    0    0  501 -0.00000000000E+00 -0.00000000000E+00 -0.12671214213E+02  0.12671616733E+02  0.10100000000E+00 0.  1.
         23    2    1    2    0    0  0.35527136788E-14  0.00000000000E+00  0.15136981021E+03  0.17671267225E+03  0.91184149335E+02 0.  0.
    9000005    2    3    3    0    0  0.25387786045E+02  0.36956031814E+02  0.72918398268E+02  0.86352769617E+02  0.11376293193E+02 0.  0.
         22    1    3    3    0    0 -0.25387786045E+02 -0.36956031814E+02  0.78451411939E+02  0.90359902628E+02  0.00000000000E+00 0. -1.
         22    1    4    4    0    0  0.83880113995E+01  0.71650491975E+01  0.11059750623E+02  0.15620971451E+02  0.00000000000E+00 0. -1.
         22    1    4    4    0    0  0.16999774646E+02  0.29790982617E+02  0.61858647645E+02  0.70731798166E+02  0.00000000000E+00 0. -1.
<mgrwt>
<rscale>  0 0.91184149E+02</rscale>
<asrwt>0</asrwt>
<pdfrwt beam="1">  1        3 0.25237113E-01 0.91184149E+02</pdfrwt>
<pdfrwt beam="2">  1       -3 0.19494510E-02 0.91184149E+02</pdfrwt>
<totfact> 0.29741813E+04</totfact>
</mgrwt>
</event>
<event>
 7    1  0.1247599E-009  0.9211027E+02  0.7818608E-02  0.1297820E+00
          3   -1    0    0  501    0  0.00000000000E+00  0.00000000000E+00  0.39672297826E+02  0.39672426391E+02  0.10100000000E+00 0. -1.
         -3   -1    0    0    0  501 -0.00000000000E+00 -0.00000000000E+00 -0.53464636967E+02  0.53464732367E+02  0.10100000000E+00 0.  1.
         23    2    1    2    0    0  0.00000000000E+00  0.00000000000E+00 -0.13792339142E+02  0.93137158758E+02  0.92110269365E+02 0.  0.
    9000005    2    3    3    0    0  0.98097811364E+01 -0.42615076924E+02  0.23249933153E+01  0.46531955264E+02  0.15733425552E+02 0.  0.
         22    1    3    3    0    0 -0.98097811364E+01  0.42615076924E+02 -0.16117332457E+02  0.46605203494E+02  0.00000000000E+00 0.  1.
         22    1    4    4    0    0  0.77763549262E+01 -0.26253047165E+02  0.88863363454E+01  0.28786475210E+02  0.00000000000E+00 0.  1.
         22    1    4    4    0    0  0.20334262103E+01 -0.16362029759E+02 -0.65613430302E+01  0.17745480054E+02  0.00000000000E+00 0.  1.
<mgrwt>
<rscale>  0 0.92110269E+02</rscale>
<asrwt>0</asrwt>
<pdfrwt beam="1">  1        3 0.61034477E-02 0.92110269E+02</pdfrwt>
<pdfrwt beam="2">  1       -3 0.82253460E-02 0.92110269E+02</pdfrwt>
<totfact> 0.34224216E+04</totfact>
</mgrwt>
</event>
<event>
 7    1  0.1247599E-009  0.9130746E+02  0.7818608E-02  0.1299716E+00
          3   -1    0    0  501    0  0.00000000000E+00  0.00000000000E+00  0.13969966761E+02  0.13970331861E+02  0.10100000000E+00 0. -1.
         -3   -1    0    0    0  501 -0.00000000000E+00 -0.00000000000E+00 -0.14919365870E+03  0.14919369288E+03  0.10100000000E+00 0.  1.
         23    2    1    2    0    0  0.71054273576E-14  0.00000000000E+00 -0.13522369194E+03  0.16316402475E+03  0.91307459224E+02 0.  0.
    9000005    2    3    3    0    0 -0.39948199267E+02  0.14047025028E+02 -0.93106783111E+02  0.10343956120E+03  0.15417270283E+02 0.  0.
         22    1    3    3    0    0  0.39948199267E+02 -0.14047025028E+02 -0.42116908826E+02  0.59724463546E+02  0.00000000000E+00 0.  1.
         22    1    4    4    0    0 -0.92238941061E+00  0.36900150135E+01 -0.15473085202E+02  0.15933718295E+02  0.00000000000E+00 0. -1.
         22    1    4    4    0    0 -0.39025809856E+02  0.10357010014E+02 -0.77633697909E+02  0.87505842904E+02  0.00000000000E+00 0. -1.
<mgrwt>
<rscale>  0 0.91307459E+02</rscale>
<asrwt>0</asrwt>
<pdfrwt beam="1">  1        3 0.21492565E-02 0.91307459E+02</pdfrwt>
<pdfrwt beam="2">  1       -3 0.22952900E-01 0.91307459E+02</pdfrwt>
<totfact> 0.30403046E+04</totfact>
</mgrwt>
</event>
<event>
 7    1  0.1247599E-009  0.8944955E+02  0.7818608E-02  0.1304190E+00
          3   -1    0    0  501    0  0.00000000000E+00  0.00000000000E+00  0.58636381150E+02  0.58636468135E+02  0.10100000000E+00 0. -1.
         -3   -1    0    0    0  501 -0.00000000000E+00 -0.00000000000E+00 -0.34113541284E+02  0.34113690799E+02  0.10100000000E+00 0.  1.
         23    2    1    2    0    0  0.00000000000E+00  0.00000000000E+00  0.24522839866E+02  0.92750158934E+02  0.89449551744E+02 0.  0.
    9000005    2    3    3    0    0 -0.13683235472E+02  0.35011467921E+02 -0.12549748380E+02  0.39954225206E+02  0.50803649935E+01 0.  0.
         22    1    3    3    0    0  0.13683235472E+02 -0.35011467921E+02  0.37072588246E+02  0.52795933728E+02  0.00000000000E+00 0. -1.
         22    1    4    4    0    0 -0.80909108730E+01  0.15751589854E+02 -0.40099878514E+01  0.18156415512E+02  0.00000000000E+00 0.  1.
         22    1    4    4    0    0 -0.55923245995E+01  0.19259878067E+02 -0.85397605283E+01  0.21797809694E+02  0.00000000000E+00 0.  1.
<mgrwt>
<rscale>  0 0.89449552E+02</rscale>
<asrwt>0</asrwt>
<pdfrwt beam="1">  1        3 0.90209998E-02 0.89449552E+02</pdfrwt>
<pdfrwt beam="2">  1       -3 0.52482554E-02 0.89449552E+02</pdfrwt>
<totfact> 0.37096434E+04</totfact>
</mgrwt>
</event>
<event>
 7    1  0.1247599E-009  0.1221012E+03  0.7818608E-02  0.1239671E+00
          3   -1    0    0  501    0  0.00000000000E+00  0.00000000000E+00  0.14930813800E+03  0.14930817216E+03  0.10100000000E+00 0. -1.
         -3   -1    0    0    0  501 -0.00000000000E+00 -0.00000000000E+00 -0.24962819624E+02  0.24963023947E+02  0.10100000000E+00 0.  1.
         23    2    1    2    0    0  0.00000000000E+00  0.00000000000E+00  0.12434531837E+03  0.17427119611E+03  0.12210115311E+03 0.  0.
    9000005    2    3    3    0    0  0.57339379477E+02  0.14228402679E+02  0.41407069401E+02  0.72442884600E+02  0.65707116175E+01 0.  0.
         22    1    3    3    0    0 -0.57339379477E+02 -0.14228402679E+02  0.82938248974E+02  0.10182831151E+03  0.00000000000E+00 0. -1.
         22    1    4    4    0    0  0.27997396619E+02  0.69241567710E+01  0.16217433218E+02  0.33087812025E+02  0.00000000000E+00 0.  1.
         22    1    4    4    0    0  0.29341982858E+02  0.73042459081E+01  0.25189636183E+02  0.39355072575E+02  0.00000000000E+00 0.  1.
<mgrwt>
<rscale>  0 0.12210115E+03</rscale>
<asrwt>0</asrwt>
<pdfrwt beam="1">  1        3 0.22970501E-01 0.12210115E+03</pdfrwt>
<pdfrwt beam="2">  1       -3 0.38404522E-02 0.12210115E+03</pdfrwt>
<totfact> 0.13374758E+04</totfact>
</mgrwt>
</event>
<event>
 7    1  0.1247599E-009  0.9209710E+02  0.7818608E-02  0.1297851E+00
          3   -1    0    0  501    0  0.00000000000E+00  0.00000000000E+00  0.71704246829E+02  0.71704317961E+02  0.10100000000E+00 0.  1.
         -3   -1    0    0    0  501 -0.00000000000E+00 -0.00000000000E+00 -0.29572258458E+02  0.29572430933E+02  0.10100000000E+00 0. -1.
         23    2    1    2    0    0  0.00000000000E+00  0.35527136788E-14  0.42131988371E+02  0.10127674889E+03  0.92097097797E+02 0.  0.
    9000005    2    3    3    0    0 -0.27789744705E+02  0.26276552782E+02 -0.51797673658E+01  0.40439840954E+02  0.12075744681E+02 0.  0.
         22    1    3    3    0    0  0.27789744705E+02 -0.26276552782E+02  0.47311755736E+02  0.60836907940E+02  0.00000000000E+00 0.  1.
         22    1    4    4    0    0 -0.42774795392E+01  0.11504873791E+02 -0.52957344232E+00  0.12285739709E+02  0.00000000000E+00 0.  1.
         22    1    4    4    0    0 -0.23512265166E+02  0.14771678990E+02 -0.46501939234E+01  0.28154101246E+02  0.00000000000E+00 0.  1.
<mgrwt>
<rscale>  0 0.92097098E+02</rscale>
<asrwt>0</asrwt>
<pdfrwt beam="1">  1        3 0.11031441E-01 0.92097098E+02</pdfrwt>
<pdfrwt beam="2">  1       -3 0.45495969E-02 0.92097098E+02</pdfrwt>
<totfact> 0.33642352E+04</totfact>
</mgrwt>
</event>
<event>
 7    1  0.1247599E-009  0.9352352E+02  0.7818608E-02  0.1294537E+00
          3   -1    0    0  501    0  0.00000000000E+00  0.00000000000E+00  0.27106823559E+03  0.27106825440E+03  0.10100000000E+00 0.  1.
         -3   -1    0    0    0  501 -0.00000000000E+00 -0.00000000000E+00 -0.80664979191E+01  0.80671302009E+01  0.10100000000E+00 0. -1.
         23    2    1    2    0    0  0.00000000000E+00  0.35527136788E-14  0.26300173767E+03  0.27913538460E+03  0.93523520687E+02 0.  0.
    9000005    2    3    3    0    0 -0.40055738330E+02  0.22155162612E+02  0.10352047676E+03  0.11321496397E+03  0.24136184512E+01 0.  0.
         22    1    3    3    0    0  0.40055738330E+02 -0.22155162612E+02  0.15948126090E+03  0.16592042063E+03  0.00000000000E+00 0.  1.
         22    1    4    4    0    0 -0.24242030852E+01  0.11747834684E+01  0.75723621168E+01  0.80372597833E+01  0.00000000000E+00 0.  1.
         22    1    4    4    0    0 -0.37631535245E+02  0.20980379143E+02  0.95948114647E+02  0.10517770419E+03  0.00000000000E+00 0.  1.
<mgrwt>
<rscale>  0 0.93523521E+02</rscale>
<asrwt>0</asrwt>
<pdfrwt beam="1">  1        3 0.41702848E-01 0.93523521E+02</pdfrwt>
<pdfrwt beam="2">  1       -3 0.12410500E-02 0.93523521E+02</pdfrwt>
<totfact> 0.23216634E+04</totfact>
</mgrwt>
</event>
<event>
 7    1  0.1247599E-009  0.9188456E+02  0.7818608E-02  0.1298351E+00
          3   -1    0    0  501    0  0.00000000000E+00  0.00000000000E+00  0.24590951558E+01  0.24611684187E+01  0.10100000000E+00 0. -1.
         -3   -1    0    0    0  501 -0.00000000000E+00 -0.00000000000E+00 -0.85795734400E+03  0.85795734994E+03  0.10100000000E+00 0.  1.
         23    2    1    2    0    0 -0.35527136788E-14  0.00000000000E+00 -0.85549824884E+03  0.86041851836E+03  0.91884563271E+02 0.  0.
    9000005    2    3    3    0    0 -0.28805134485E+02 -0.19173505330E+02 -0.70940395413E+03  0.71028224018E+03  0.70378617345E+01 0.  0.
         22    1    3    3    0    0  0.28805134485E+02  0.19173505330E+02 -0.14609429472E+03  0.15013627819E+03  0.00000000000E+00 0. -1.
         22    1    4    4    0    0 -0.10794615401E+02 -0.38589816014E+01 -0.26907590072E+03  0.26931998776E+03  0.00000000000E+00 0. -1.
         22    1    4    4    0    0 -0.18010519084E+02 -0.15314523729E+02 -0.44032805341E+03  0.44096225241E+03  0.00000000000E+00 0. -1.
<mgrwt>
<rscale>  0 0.91884563E+02</rscale>
<asrwt>0</asrwt>
<pdfrwt beam="1">  1        3 0.37848296E-03 0.91884563E+02</pdfrwt>
<pdfrwt beam="2">  1       -3 0.13199336E+00 0.91884563E+02</pdfrwt>
<totfact> 0.11338139E+04</totfact>
</mgrwt>
</event>
<event>
 7    1  0.1247599E-009  0.9205717E+02  0.7818608E-02  0.1297945E+00
         -3   -1    0    0    0  501 -0.00000000000E+00  0.00000000000E+00  0.99847197152E+02  0.99847248235E+02  0.10100000000E+00 0.  1.
          3   -1    0    0  501    0  0.00000000000E+00 -0.00000000000E+00 -0.21218550207E+02  0.21218790585E+02  0.10100000000E+00 0. -1.
         23    2    1    2    0    0 -0.71054273576E-14  0.44408920985E-15  0.78628646944E+02  0.12106603882E+03  0.92057165040E+02 0.  0.
    9000005    2    3    3    0    0 -0.39824204997E+02  0.22795997000E+01  0.13955434397E+02  0.45080590873E+02  0.15695274632E+02 0.  0.
         22    1    3    3    0    0  0.39824204997E+02 -0.22795997000E+01  0.64673212548E+02  0.75985447947E+02  0.00000000000E+00 0.  1.
         22    1    4    4    0    0 -0.15790544206E+02 -0.15808546574E+01 -0.19712334125E+01  0.15991439864E+02  0.00000000000E+00 0.  1.
         22    1    4    4    0    0 -0.24033660791E+02  0.38604543574E+01  0.15926667809E+02  0.29089151008E+02  0.00000000000E+00 0.  1.
<mgrwt>
<rscale>  0 0.92057165E+02</rscale>
<asrwt>0</asrwt>
<pdfrwt beam="2">  1        3 0.32644148E-02 0.92057165E+02</pdfrwt>
<pdfrwt beam="1">  1       -3 0.15361129E-01 0.92057165E+02</pdfrwt>
<totfact> 0.32318904E+04</totfact>
</mgrwt>
</event>
<event>
 7    1  0.1247599E-009  0.9368224E+02  0.7818608E-02  0.1294172E+00
          3   -1    0    0  501    0  0.00000000000E+00  0.00000000000E+00  0.35843888582E+02  0.35844030879E+02  0.10100000000E+00 0. -1.
         -3   -1    0    0    0  501 -0.00000000000E+00 -0.00000000000E+00 -0.61212091759E+02  0.61212175084E+02  0.10100000000E+00 0.  1.
         23    2    1    2    0    0  0.00000000000E+00  0.00000000000E+00 -0.25368203178E+02  0.97056205963E+02  0.93682236222E+02 0.  0.
    9000005    2    3    3    0    0 -0.33091909113E+02 -0.30801958426E+02 -0.20127178189E+01  0.46170905650E+02  0.91578602242E+01 0.  0.
         22    1    3    3    0    0  0.33091909113E+02  0.30801958426E+02 -0.23355485359E+02  0.50885300313E+02  0.00000000000E+00 0. -1.
         22    1    4    4    0    0 -0.24864308145E+01  0.27168629056E+00 -0.33608749463E+00  0.25237088659E+01  0.00000000000E+00 0. -1.
         22    1    4    4    0    0 -0.30605478299E+02 -0.31073644716E+02 -0.16766303243E+01  0.43647196784E+02  0.00000000000E+00 0. -1.
<mgrwt>
<rscale>  0 0.93682236E+02</rscale>
<asrwt>0</asrwt>
<pdfrwt beam="1">  1        3 0.55144617E-02 0.93682236E+02</pdfrwt>
<pdfrwt beam="2">  1       -3 0.94172623E-02 0.93682236E+02</pdfrwt>
<totfact> 0.32402133E+04</totfact>
</mgrwt>
</event>
<event>
 7    1  0.1247599E-009  0.8795796E+02  0.7818608E-02  0.1307874E+00
         -3   -1    0    0    0  501 -0.00000000000E+00  0.00000000000E+00  0.35493198010E+01  0.35507565461E+01  0.10100000000E+00 0.  1.
          3   -1    0    0  501    0  0.00000000000E+00 -0.00000000000E+00 -0.54482387595E+03  0.54482388531E+03  0.10100000000E+00 0. -1.
         23    2    1    2    0    0 -0.35527136788E-14  0.17763568394E-14 -0.54127455615E+03  0.54837464185E+03  0.87957959835E+02 0.  0.
    9000005    2    3    3    0    0  0.21537988539E+02 -0.13238047214E+02 -0.49420692373E+03  0.49494718763E+03  0.96490532826E+01 0.  0.
         22    1    3    3    0    0 -0.21537988539E+02  0.13238047214E+02 -0.47067632411E+02  0.53427454227E+02  0.00000000000E+00 0.  1.
         22    1    4    4    0    0  0.61818432626E+00 -0.19147257434E+01 -0.13204054696E+02  0.13356473597E+02  0.00000000000E+00 0.  1.
         22    1    4    4    0    0  0.20919804213E+02 -0.11323321471E+02 -0.48100286904E+03  0.48159071403E+03  0.00000000000E+00 0.  1.
<mgrwt>
<rscale>  0 0.87957960E+02</rscale>
<asrwt>0</asrwt>
<pdfrwt beam="2">  1        3 0.83819103E-01 0.87957960E+02</pdfrwt>
<pdfrwt beam="1">  1       -3 0.54616087E-03 0.87957960E+02</pdfrwt>
<totfact> 0.18482804E+04</totfact>
</mgrwt>
</event>
<event>
 7    1  0.1247599E-009  0.9285938E+02  0.7818608E-02  0.1296071E+00
          3   -1    0    0  501    0  0.00000000000E+00  0.00000000000E+00  0.82444917217E+02  0.82444979083E+02  0.10100000000E+00 0. -1.
         -3   -1    0    0    0  501 -0.00000000000E+00 -0.00000000000E+00 -0.26147183082E+02  0.26147378150E+02  0.10100000000E+00 0.  1.
         23    2    1    2    0    0  0.00000000000E+00  0.00000000000E+00  0.56297734135E+02  0.10859235723E+03  0.92859383913E+02 0.  0.
    9000005    2    3    3    0    0 -0.42383812423E+00  0.28469293277E+02 -0.13014165527E+02  0.33660256413E+02  0.12367863963E+02 0.  0.
         22    1    3    3    0    0  0.42383812423E+00 -0.28469293277E+02  0.69311899663E+02  0.74932100820E+02  0.00000000000E+00 0. -1.
         22    1    4    4    0    0  0.55486423533E+01  0.15792162699E+02 -0.47848122143E+01  0.17409028192E+02  0.00000000000E+00 0. -1.
         22    1    4    4    0    0 -0.59724804775E+01  0.12677130578E+02 -0.82293533131E+01  0.16251228221E+02  0.00000000000E+00 0. -1.
<mgrwt>
<rscale>  0 0.92859384E+02</rscale>
<asrwt>0</asrwt>
<pdfrwt beam="1">  1        3 0.12683853E-01 0.92859384E+02</pdfrwt>
<pdfrwt beam="2">  1       -3 0.40226633E-02 0.92859384E+02</pdfrwt>
<totfact> 0.32389904E+04</totfact>
</mgrwt>
</event>
<event>
 7    1  0.1247599E-009  0.9022727E+02  0.7818608E-02  0.1302302E+00
          3   -1    0    0  501    0  0.00000000000E+00  0.00000000000E+00  0.95791770401E+02  0.95791823647E+02  0.10100000000E+00 0. -1.
         -3   -1    0    0    0  501 -0.00000000000E+00 -0.00000000000E+00 -0.21246321612E+02  0.21246561676E+02  0.10100000000E+00 0.  1.
         23    2    1    2    0    0  0.00000000000E+00  0.00000000000E+00  0.74545448788E+02  0.11703838532E+03  0.90227266964E+02 0.  0.
    9000005    2    3    3    0    0  0.17374702239E+02  0.36952053554E+02  0.13072136000E+02  0.43239315376E+02  0.56056324190E+01 0.  0.
         22    1    3    3    0    0 -0.17374702239E+02 -0.36952053554E+02  0.61473312788E+02  0.73799069946E+02  0.00000000000E+00 0. -1.
         22    1    4    4    0    0  0.71630532807E+01  0.11847124627E+02  0.21106008631E+01  0.14004225442E+02  0.00000000000E+00 0.  1.
         22    1    4    4    0    0  0.10211648959E+02  0.25104928927E+02  0.10961535137E+02  0.29235089934E+02  0.00000000000E+00 0.  1.
<mgrwt>
<rscale>  0 0.90227267E+02</rscale>
<asrwt>0</asrwt>
<pdfrwt beam="1">  1        3 0.14737218E-01 0.90227267E+02</pdfrwt>
<pdfrwt beam="2">  1       -3 0.32686874E-02 0.90227267E+02</pdfrwt>
<totfact> 0.34413252E+04</totfact>
</mgrwt>
</event>
<event>
 7    1  0.1247599E-009  0.8842020E+02  0.7818608E-02  0.1306723E+00
         -3   -1    0    0    0  501 -0.00000000000E+00  0.00000000000E+00  0.65974570812E+02  0.65974648122E+02  0.10100000000E+00 0. -1.
          3   -1    0    0  501    0  0.00000000000E+00 -0.00000000000E+00 -0.29625366803E+02  0.29625538969E+02  0.10100000000E+00 0.  1.
         23    2    1    2    0    0  0.00000000000E+00  0.00000000000E+00  0.36349204009E+02  0.95600187091E+02  0.88420196447E+02 0.  0.
    9000005    2    3    3    0    0  0.23051932646E+02  0.36322266578E+02  0.26335839864E+02  0.51430445077E+02  0.10040695763E+02 0.  0.
         22    1    3    3    0    0 -0.23051932646E+02 -0.36322266578E+02  0.10013364145E+02  0.44169742014E+02  0.00000000000E+00 0.  1.
         22    1    4    4    0    0  0.19119294282E+02  0.31687227077E+02  0.26211600307E+02  0.45350587255E+02  0.00000000000E+00 0.  1.
         22    1    4    4    0    0  0.39326383637E+01  0.46350395005E+01  0.12423955723E+00  0.60798578222E+01  0.00000000000E+00 0.  1.
<mgrwt>
<rscale>  0 0.88420196E+02</rscale>
<asrwt>0</asrwt>
<pdfrwt beam="2">  1        3 0.45577679E-02 0.88420196E+02</pdfrwt>
<pdfrwt beam="1">  1       -3 0.10149953E-01 0.88420196E+02</pdfrwt>
<totfact> 0.38043259E+04</totfact>
</mgrwt>
</event>
<event>
 7    1  0.1247599E-009  0.9169088E+02  0.7818608E-02  0.1298808E+00
         -3   -1    0    0    0  501 -0.00000000000E+00  0.00000000000E+00  0.23085805235E+02  0.23086026171E+02  0.10100000000E+00 0.  1.
          3   -1    0    0  501    0  0.00000000000E+00 -0.00000000000E+00 -0.91042465904E+02  0.91042521927E+02  0.10100000000E+00 0. -1.
         23    2    1    2    0    0  0.22204460493E-15  0.00000000000E+00 -0.67956660669E+02  0.11412854810E+03  0.91690881562E+02 0.  0.
    9000005    2    3    3    0    0  0.86033651924E+00  0.19095016502E+02  0.16002623236E+02  0.28020934103E+02  0.12795661901E+02 0.  0.
         22    1    3    3    0    0 -0.86033651924E+00 -0.19095016502E+02 -0.83959283904E+02  0.86107613994E+02  0.00000000000E+00 0. -1.
         22    1    4    4    0    0 -0.59797030487E+01  0.86100684237E+01  0.72237400905E+01  0.12730771685E+02  0.00000000000E+00 0. -1.
         22    1    4    4    0    0  0.68400395679E+01  0.10484948078E+02  0.87788831451E+01  0.15290162418E+02  0.00000000000E+00 0. -1.
<mgrwt>
<rscale>  0 0.91690882E+02</rscale>
<asrwt>0</asrwt>
<pdfrwt beam="2">  1        3 0.14006554E-01 0.91690882E+02</pdfrwt>
<pdfrwt beam="1">  1       -3 0.35516837E-02 0.91690882E+02</pdfrwt>
<totfact> 0.33141586E+04</totfact>
</mgrwt>
</event>
<event>
 7    1  0.1247599E-009  0.9040547E+02  0.7818608E-02  0.1301873E+00
         -3   -1    0    0    0  501 -0.00000000000E+00  0.00000000000E+00  0.46072193701E+02  0.46072304408E+02  0.10100000000E+00 0.  1.
          3   -1    0    0  501    0  0.00000000000E+00 -0.00000000000E+00 -0.44349464311E+02  0.44349579318E+02  0.10100000000E+00 0. -1.
         23    2    1    2    0    0  0.17763568394E-14  0.00000000000E+00  0.17227293903E+01  0.90421883725E+02  0.90405471404E+02 0.  0.
    9000005    2    3    3    0    0 -0.14307735616E+02 -0.42108129982E+02  0.26146693196E+01  0.45940410437E+02  0.11219576927E+02 0.  0.
         22    1    3    3    0    0  0.14307735616E+02  0.42108129982E+02 -0.89193992928E+00  0.44481473288E+02  0.00000000000E+00 0. -1.
         22    1    4    4    0    0 -0.65503905141E+01 -0.20769874850E+02 -0.43154126482E+01  0.22201759018E+02  0.00000000000E+00 0.  1.
         22    1    4    4    0    0 -0.77573451022E+01 -0.21338255132E+02  0.69300819677E+01  0.23738651419E+02  0.00000000000E+00 0.  1.
<mgrwt>
<rscale>  0 0.90405471E+02</rscale>
<asrwt>0</asrwt>
<pdfrwt beam="2">  1        3 0.68230119E-02 0.90405471E+02</pdfrwt>
<pdfrwt beam="1">  1       -3 0.70880471E-02 0.90405471E+02</pdfrwt>
<totfact> 0.36224536E+04</totfact>
</mgrwt>
</event>
<event>
 7    1  0.1631252E-009  0.8936038E+02  0.7818608E-02  0.1304408E+00
         -3   -1    0    0    0  501 -0.00000000000E+00  0.00000000000E+00  0.21316325936E+03  0.21316328329E+03  0.10100000000E+00 0.  1.
          3   -1    0    0  501    0  0.00000000000E+00 -0.00000000000E+00 -0.93649161417E+01  0.93654607650E+01  0.10100000000E+00 0. -1.
         23    2    1    2    0    0  0.00000000000E+00  0.00000000000E+00  0.20379834322E+03  0.22252874405E+03  0.89360378419E+02 0.  0.
    9000005    2    3    3    0    0 -0.26405453754E+02 -0.32563077515E+02  0.78177153143E+02  0.90096552342E+02  0.15751808318E+02 0.  0.
         22    1    3    3    0    0  0.26405453754E+02  0.32563077515E+02  0.12562119008E+03  0.13243219171E+03  0.00000000000E+00 0. -1.
         22    1    4    4    0    0 -0.40058767103E+01 -0.32325256455E+01  0.21366304513E+01  0.55732808966E+01  0.00000000000E+00 0.  1.
         22    1    4    4    0    0 -0.22399577044E+02 -0.29330551869E+02  0.76040522692E+02  0.84523271446E+02  0.00000000000E+00 0.  1.
<mgrwt>
<rscale>  0 0.89360378E+02</rscale>
<asrwt>0</asrwt>
<pdfrwt beam="2">  1        3 0.14408002E-02 0.89360378E+02</pdfrwt>
<pdfrwt beam="1">  1       -3 0.32794388E-01 0.89360378E+02</pdfrwt>
<totfact> 0.28892934E+04</totfact>
</mgrwt>
</event>
<event>
 7    1  0.1247599E-009  0.9127950E+02  0.7818608E-02  0.1299782E+00
          3   -1    0    0  501    0  0.00000000000E+00  0.00000000000E+00  0.17577285285E+02  0.17577575459E+02  0.10100000000E+00 0. -1.
         -3   -1    0    0    0  501 -0.00000000000E+00 -0.00000000000E+00 -0.11850318758E+03  0.11850323062E+03  0.10100000000E+00 0.  1.
         23    2    1    2    0    0  0.00000000000E+00  0.17763568394E-14 -0.10092590229E+03  0.13608080608E+03  0.91279504978E+02 0.  0.
    9000005    2    3    3    0    0 -0.41719154184E+02  0.15202556194E+02 -0.61110092710E+02  0.76441018742E+02  0.11712402595E+02 0.  0.
         22    1    3    3    0    0  0.41719154184E+02 -0.15202556194E+02 -0.39815809580E+02  0.59639787334E+02  0.00000000000E+00 0. -1.
         22    1    4    4    0    0 -0.22615259140E+01  0.12607848893E+01 -0.27734916000E+00  0.26040354362E+01  0.00000000000E+00 0. -1.
         22    1    4    4    0    0 -0.39457628270E+02  0.13941771305E+02 -0.60832743550E+02  0.73836983305E+02  0.00000000000E+00 0. -1.
<mgrwt>
<rscale>  0 0.91279505E+02</rscale>
<asrwt>0</asrwt>
<pdfrwt beam="1">  1        3 0.27042234E-02 0.91279505E+02</pdfrwt>
<pdfrwt beam="2">  1       -3 0.18231285E-01 0.91279505E+02</pdfrwt>
<totfact> 0.32083692E+04</totfact>
</mgrwt>
</event>
<event>
 7    1  0.1247599E-009  0.9248200E+02  0.7818608E-02  0.1296950E+00
         -3   -1    0    0    0  501 -0.00000000000E+00  0.00000000000E+00  0.24256494230E+02  0.24256704503E+02  0.10100000000E+00 0.  1.
          3   -1    0    0  501    0  0.00000000000E+00 -0.00000000000E+00 -0.88150211568E+02  0.88150269430E+02  0.10100000000E+00 0. -1.
         23    2    1    2    0    0 -0.17763568394E-14  0.00000000000E+00 -0.63893717338E+02  0.11240697393E+03  0.92482001889E+02 0.  0.
    9000005    2    3    3    0    0 -0.10380629357E+02 -0.12345336823E+02  0.18507587919E+02  0.28441862635E+02  0.14361195369E+02 0.  0.
         22    1    3    3    0    0  0.10380629357E+02  0.12345336823E+02 -0.82401305258E+02  0.83965111298E+02  0.00000000000E+00 0. -1.
         22    1    4    4    0    0 -0.46466426729E+01 -0.14683382004E+02  0.13416575060E+02  0.20425412641E+02  0.00000000000E+00 0.  1.
         22    1    4    4    0    0 -0.57339866845E+01  0.23380451814E+01  0.50910128595E+01  0.80164499938E+01  0.00000000000E+00 0.  1.
<mgrwt>
<rscale>  0 0.92482002E+02</rscale>
<asrwt>0</asrwt>
<pdfrwt beam="2">  1        3 0.13561592E-01 0.92482002E+02</pdfrwt>
<pdfrwt beam="1">  1       -3 0.37317890E-02 0.92482002E+02</pdfrwt>
<totfact> 0.32491149E+04</totfact>
</mgrwt>
</event>
<event>
 7    1  0.1247599E-009  0.8972087E+02  0.7818608E-02  0.1303529E+00
         -3   -1    0    0    0  501 -0.00000000000E+00  0.00000000000E+00  0.19777884080E+03  0.19777886659E+03  0.10100000000E+00 0.  1.
          3   -1    0    0  501    0  0.00000000000E+00 -0.00000000000E+00 -0.10175020983E+02  0.10175522248E+02  0.10100000000E+00 0. -1.
         23    2    1    2    0    0  0.00000000000E+00 -0.44408920985E-15  0.18760381982E+03  0.20795438884E+03  0.89720870630E+02 0.  0.
    9000005    2    3    3    0    0  0.36330664110E+02  0.27341840705E+01  0.15243261515E+03  0.15731441890E+03  0.13591589891E+02 0.  0.
         22    1    3    3    0    0 -0.36330664110E+02 -0.27341840705E+01  0.35171204665E+02  0.50639969933E+02  0.00000000000E+00 0.  1.
         22    1    4    4    0    0  0.29643507226E+00  0.58026705496E+00  0.21127759940E+02  0.21137805556E+02  0.00000000000E+00 0. -1.
         22    1    4    4    0    0  0.36034229038E+02  0.21539170156E+01  0.13130485521E+03  0.13617661335E+03  0.00000000000E+00 0. -1.
<mgrwt>
<rscale>  0 0.89720871E+02</rscale>
<asrwt>0</asrwt>
<pdfrwt beam="2">  1        3 0.15654283E-02 0.89720871E+02</pdfrwt>
<pdfrwt beam="1">  1       -3 0.30427555E-01 0.89720871E+02</pdfrwt>
<totfact> 0.29334209E+04</totfact>
</mgrwt>
</event>
<event>
 7    1  0.1247599E-009  0.8931610E+02  0.7818608E-02  0.1304516E+00
         -3   -1    0    0    0  501 -0.00000000000E+00  0.00000000000E+00  0.11918212838E+03  0.11918217118E+03  0.10100000000E+00 0.  1.
          3   -1    0    0  501    0  0.00000000000E+00 -0.00000000000E+00 -0.16733364782E+02  0.16733669590E+02  0.10100000000E+00 0. -1.
         23    2    1    2    0    0  0.00000000000E+00  0.00000000000E+00  0.10244876360E+03  0.13591584077E+03  0.89316104977E+02 0.  0.
    9000005    2    3    3    0    0 -0.22482411569E+02 -0.12391989416E+02 -0.20010095203E+01  0.28357599166E+02  0.11879779446E+02 0.  0.
         22    1    3    3    0    0  0.22482411569E+02  0.12391989416E+02  0.10444977312E+03  0.10755824160E+03  0.00000000000E+00 0.  1.
         22    1    4    4    0    0 -0.20681644083E+02 -0.63088588966E+01  0.25598791893E+00  0.21624005928E+02  0.00000000000E+00 0.  1.
         22    1    4    4    0    0 -0.18007674863E+01 -0.60831305190E+01 -0.22569974393E+01  0.67335932377E+01  0.00000000000E+00 0.  1.
<mgrwt>
<rscale>  0 0.89316105E+02</rscale>
<asrwt>0</asrwt>
<pdfrwt beam="2">  1        3 0.25743906E-02 0.89316105E+02</pdfrwt>
<pdfrwt beam="1">  1       -3 0.18335738E-01 0.89316105E+02</pdfrwt>
<totfact> 0.34038570E+04</totfact>
</mgrwt>
</event>
<event>
 7    1  0.1247599E-009  0.9092343E+02  0.7818608E-02  0.1300631E+00
          3   -1    0    0  501    0  0.00000000000E+00  0.00000000000E+00  0.75232734568E+02  0.75232802364E+02  0.10100000000E+00 0. -1.
         -3   -1    0    0    0  501 -0.00000000000E+00 -0.00000000000E+00 -0.27471478983E+02  0.27471664647E+02  0.10100000000E+00 0.  1.
         23    2    1    2    0    0  0.00000000000E+00 -0.17763568394E-14  0.47761255585E+02  0.10270446701E+03  0.90923429374E+02 0.  0.
    9000005    2    3    3    0    0 -0.44293322476E+02 -0.86321424820E+01  0.28158920709E+02  0.53504224813E+02  0.57762407764E+01 0.  0.
         22    1    3    3    0    0  0.44293322476E+02  0.86321424820E+01  0.19602334875E+02  0.49200242198E+02  0.00000000000E+00 0.  1.
         22    1    4    4    0    0 -0.23302134823E+02 -0.16508719490E+01  0.15092049234E+02  0.27811594984E+02  0.00000000000E+00 0.  1.
         22    1    4    4    0    0 -0.20991187653E+02 -0.69812705330E+01  0.13066871475E+02  0.25692629829E+02  0.00000000000E+00 0.  1.
<mgrwt>
<rscale>  0 0.90923429E+02</rscale>
<asrwt>0</asrwt>
<pdfrwt beam="1">  1        3 0.11574286E-01 0.90923429E+02</pdfrwt>
<pdfrwt beam="2">  1       -3 0.42264009E-02 0.90923429E+02</pdfrwt>
<totfact> 0.34733960E+04</totfact>
</mgrwt>
</event>
<event>
 7    1  0.1247599E-009  0.9149907E+02  0.7818608E-02  0.1299262E+00
          3   -1    0    0  501    0  0.00000000000E+00  0.00000000000E+00  0.73878822875E+02  0.73878891914E+02  0.10100000000E+00 0.  1.
         -3   -1    0    0    0  501 -0.00000000000E+00 -0.00000000000E+00 -0.28330274633E+02  0.28330454670E+02  0.10100000000E+00 0. -1.
         23    2    1    2    0    0 -0.35527136788E-14  0.35527136788E-14  0.45548548242E+02  0.10220934658E+03  0.91499072575E+02 0.  0.
    9000005    2    3    3    0    0 -0.25594952989E+02  0.24264584549E+02 -0.70815637872E+01  0.38854785784E+02  0.14685848657E+02 0.  0.
         22    1    3    3    0    0  0.25594952989E+02 -0.24264584549E+02  0.52630112029E+02  0.63354560799E+02  0.00000000000E+00 0.  1.
         22    1    4    4    0    0  0.88446299489E+00  0.54928262472E+01 -0.24058668784E+01  0.60614858251E+01  0.00000000000E+00 0.  1.
         22    1    4    4    0    0 -0.26479415984E+02  0.18771758302E+02 -0.46756969088E+01  0.32793299959E+02  0.00000000000E+00 0.  1.
<mgrwt>
<rscale>  0 0.91499073E+02</rscale>
<asrwt>0</asrwt>
<pdfrwt beam="1">  1        3 0.11365992E-01 0.91499073E+02</pdfrwt>
<pdfrwt beam="2">  1       -3 0.43585230E-02 0.91499073E+02</pdfrwt>
<totfact> 0.34177787E+04</totfact>
</mgrwt>
</event>
<event>
 7    1  0.1247599E-009  0.8849707E+02  0.7818608E-02  0.1306533E+00
         -3   -1    0    0    0  501 -0.00000000000E+00  0.00000000000E+00  0.18787254672E+02  0.18787526158E+02  0.10100000000E+00 0.  1.
          3   -1    0    0  501    0  0.00000000000E+00 -0.00000000000E+00 -0.10421496444E+03  0.10421501338E+03  0.10100000000E+00 0. -1.
         23    2    1    2    0    0  0.00000000000E+00  0.00000000000E+00 -0.85427709767E+02  0.12300253954E+03  0.88497068522E+02 0.  0.
    9000005    2    3    3    0    0 -0.23641890969E+02  0.22952560778E+01  0.90718408320E+01  0.25563470001E+02  0.26430083904E+01 0.  0.
         22    1    3    3    0    0  0.23641890969E+02 -0.22952560778E+01 -0.94499550599E+02  0.97439069538E+02  0.00000000000E+00 0. -1.
         22    1    4    4    0    0 -0.68305544513E+01  0.17441581811E+01  0.21039501315E+01  0.73569809044E+01  0.00000000000E+00 0.  1.
         22    1    4    4    0    0 -0.16811336518E+02  0.55109789668E+00  0.69678907005E+01  0.18206489096E+02  0.00000000000E+00 0.  1.
<mgrwt>
<rscale>  0 0.88497069E+02</rscale>
<asrwt>0</asrwt>
<pdfrwt beam="2">  1        3 0.16033096E-01 0.88497069E+02</pdfrwt>
<pdfrwt beam="1">  1       -3 0.28903716E-02 0.88497069E+02</pdfrwt>
<totfact> 0.35820390E+04</totfact>
</mgrwt>
</event>
<event>
 7    1  0.1247599E-009  0.9171481E+02  0.7818608E-02  0.1298751E+00
          3   -1    0    0  501    0  0.00000000000E+00  0.00000000000E+00  0.77191322070E+02  0.77191388146E+02  0.10100000000E+00 0. -1.
         -3   -1    0    0    0  501 -0.00000000000E+00 -0.00000000000E+00 -0.27242546170E+02  0.27242733395E+02  0.10100000000E+00 0.  1.
         23    2    1    2    0    0  0.00000000000E+00  0.00000000000E+00  0.49948775900E+02  0.10443412154E+03  0.91714805392E+02 0.  0.
    9000005    2    3    3    0    0  0.19200850249E+02  0.24868438474E+02  0.62976966250E+02  0.70421688135E+02  0.24503059553E+01 0.  0.
         22    1    3    3    0    0 -0.19200850249E+02 -0.24868438474E+02 -0.13028190350E+02  0.34012433406E+02  0.00000000000E+00 0.  1.
         22    1    4    4    0    0  0.11570132170E+02  0.13156544486E+02  0.33947621759E+02  0.38202141882E+02  0.00000000000E+00 0.  1.
         22    1    4    4    0    0  0.76307180791E+01  0.11711893988E+02  0.29029344491E+02  0.32219546253E+02  0.00000000000E+00 0.  1.
<mgrwt>
<rscale>  0 0.91714805E+02</rscale>
<asrwt>0</asrwt>
<pdfrwt beam="1">  1        3 0.11875608E-01 0.91714805E+02</pdfrwt>
<pdfrwt beam="2">  1       -3 0.41911804E-02 0.91714805E+02</pdfrwt>
<totfact> 0.33799201E+04</totfact>
</mgrwt>
</event>
<event>
 7    1  0.1248147E-009  0.9234777E+02  0.7818608E-02  0.1297264E+00
         -3   -1    0    0    0  501 -0.00000000000E+00  0.00000000000E+00  0.81478066916E+02  0.81478129515E+02  0.10100000000E+00 0.  1.
          3   -1    0    0  501    0  0.00000000000E+00 -0.00000000000E+00 -0.26166722014E+02  0.26166916936E+02  0.10100000000E+00 0. -1.
         23    2    1    2    0    0  0.00000000000E+00  0.00000000000E+00  0.55311344902E+02  0.10764504645E+03  0.92347772851E+02 0.  0.
    9000005    2    3    3    0    0 -0.37872702548E+02 -0.18407056602E+02  0.46472568597E+02  0.64618481429E+02  0.15578420300E+02 0.  0.
         22    1    3    3    0    0  0.37872702548E+02  0.18407056602E+02  0.88387763053E+01  0.43026565023E+02  0.00000000000E+00 0. -1.
         22    1    4    4    0    0 -0.40057352174E+01  0.19783417816E+00  0.12634467178E+02  0.13255746447E+02  0.00000000000E+00 0. -1.
         22    1    4    4    0    0 -0.33866967331E+02 -0.18604890780E+02  0.33838101419E+02  0.51362734982E+02  0.00000000000E+00 0. -1.
<mgrwt>
<rscale>  0 0.92347773E+02</rscale>
<asrwt>0</asrwt>
<pdfrwt beam="2">  1        3 0.40256694E-02 0.92347773E+02</pdfrwt>
<pdfrwt beam="1">  1       -3 0.12535107E-01 0.92347773E+02</pdfrwt>
<totfact> 0.32948724E+04</totfact>
</mgrwt>
</event>
<event>
 7    1  0.1247599E-009  0.9176168E+02  0.7818608E-02  0.1298641E+00
         -3   -1    0    0    0  501 -0.00000000000E+00  0.00000000000E+00  0.12628786508E+02  0.12629190381E+02  0.10100000000E+00 0.  1.
          3   -1    0    0  501    0  0.00000000000E+00 -0.00000000000E+00 -0.16668367456E+03  0.16668370516E+03  0.10100000000E+00 0. -1.
         23    2    1    2    0    0  0.00000000000E+00  0.71054273576E-14 -0.15405488805E+03  0.17931289554E+03  0.91761680316E+02 0.  0.
    9000005    2    3    3    0    0  0.34845912372E+00  0.37317631266E+02 -0.12696007528E+03  0.13319504752E+03  0.15143742630E+02 0.  0.
         22    1    3    3    0    0 -0.34845912372E+00 -0.37317631266E+02 -0.27094812769E+02  0.46117848021E+02  0.00000000000E+00 0. -1.
         22    1    4    4    0    0  0.30154626015E+00  0.34473073361E+02 -0.12517712076E+03  0.12983757267E+03  0.00000000000E+00 0. -1.
         22    1    4    4    0    0  0.46912863572E-01  0.28445579057E+01 -0.17829545270E+01  0.33574748459E+01  0.00000000000E+00 0. -1.
<mgrwt>
<rscale>  0 0.91761680E+02</rscale>
<asrwt>0</asrwt>
<pdfrwt beam="2">  1        3 0.25643674E-01 0.91761680E+02</pdfrwt>
<pdfrwt beam="1">  1       -3 0.19429238E-02 0.91761680E+02</pdfrwt>
<totfact> 0.29096077E+04</totfact>
</mgrwt>
</event>
<event>
 7    1  0.1247599E-009  0.9160455E+02  0.7818608E-02  0.1299012E+00
         -3   -1    0    0    0  501 -0.00000000000E+00  0.00000000000E+00  0.55893620109E+02  0.55893711363E+02  0.10100000000E+00 0.  1.
          3   -1    0    0  501    0  0.00000000000E+00 -0.00000000000E+00 -0.37532687611E+02  0.37532823505E+02  0.10100000000E+00 0. -1.
         23    2    1    2    0    0  0.00000000000E+00  0.00000000000E+00  0.18360932499E+02  0.93426534868E+02  0.91604549970E+02 0.  0.
    9000005    2    3    3    0    0 -0.77518895393E+01  0.36982612295E+02 -0.15392733149E+02  0.42759826388E+02  0.12793010409E+02 0.  0.
         22    1    3    3    0    0  0.77518895393E+01 -0.36982612295E+02  0.33753665648E+02  0.50666708480E+02  0.00000000000E+00 0.  1.
         22    1    4    4    0    0 -0.41854134916E+01  0.34462993064E+02 -0.16215042305E+02  0.38316356481E+02  0.00000000000E+00 0. -1.
         22    1    4    4    0    0 -0.35664760477E+01  0.25196192312E+01  0.82230915549E+00  0.44434699072E+01  0.00000000000E+00 0. -1.
<mgrwt>
<rscale>  0 0.91604550E+02</rscale>
<asrwt>0</asrwt>
<pdfrwt beam="2">  1        3 0.57742772E-02 0.91604550E+02</pdfrwt>
<pdfrwt beam="1">  1       -3 0.85990359E-02 0.91604550E+02</pdfrwt>
<totfact> 0.34720871E+04</totfact>
</mgrwt>
</event>
<event>
 7    1  0.1247599E-009  0.9013362E+02  0.7818608E-02  0.1302528E+00
         -3   -1    0    0    0  501 -0.00000000000E+00  0.00000000000E+00  0.14510594057E+02  0.14510945555E+02  0.10100000000E+00 0.  1.
          3   -1    0    0  501    0  0.00000000000E+00 -0.00000000000E+00 -0.13996582650E+03  0.13996586294E+03  0.10100000000E+00 0. -1.
         23    2    1    2    0    0  0.00000000000E+00  0.00000000000E+00 -0.12545523244E+03  0.15447680849E+03  0.90133617566E+02 0.  0.
    9000005    2    3    3    0    0  0.20961038957E+02  0.36552283297E+02 -0.89679282668E+02  0.99201559508E+02  0.48105197752E+01 0.  0.
         22    1    3    3    0    0 -0.20961038957E+02 -0.36552283297E+02 -0.35775949774E+02  0.55275248987E+02  0.00000000000E+00 0.  1.
         22    1    4    4    0    0  0.87440235011E+01  0.14999774510E+02 -0.42585512651E+02  0.45988879853E+02  0.00000000000E+00 0. -1.
         22    1    4    4    0    0  0.12217015456E+02  0.21552508786E+02 -0.47093770017E+02  0.53212679655E+02  0.00000000000E+00 0. -1.
<mgrwt>
<rscale>  0 0.90133618E+02</rscale>
<asrwt>0</asrwt>
<pdfrwt beam="2">  1        3 0.21533233E-01 0.90133618E+02</pdfrwt>
<pdfrwt beam="1">  1       -3 0.22324290E-02 0.90133618E+02</pdfrwt>
<totfact> 0.32015515E+04</totfact>
</mgrwt>
</event>
<event>
 7    1  0.1247599E-009  0.9087508E+02  0.7818608E-02  0.1300746E+00
         -3   -1    0    0    0  501 -0.00000000000E+00  0.00000000000E+00  0.12233361112E+02  0.12233778039E+02  0.10100000000E+00 0.  1.
          3   -1    0    0  501    0  0.00000000000E+00 -0.00000000000E+00 -0.16876223402E+03  0.16876226425E+03  0.10100000000E+00 0. -1.
         23    2    1    2    0    0  0.00000000000E+00 -0.88817841970E-15 -0.15652887291E+03  0.18099604228E+03  0.90875075065E+02 0.  0.
    9000005    2    3    3    0    0  0.36278924100E+02 -0.56204013761E+01 -0.13009534597E+03  0.13575799865E+03  0.12557305004E+02 0.  0.
         22    1    3    3    0    0 -0.36278924100E+02  0.56204013761E+01 -0.26433526945E+02  0.45238043639E+02  0.00000000000E+00 0.  1.
         22    1    4    4    0    0  0.22312670184E+02  0.27524225492E+01 -0.78250256324E+02  0.81415807405E+02  0.00000000000E+00 0. -1.
         22    1    4    4    0    0  0.13966253916E+02 -0.83728239253E+01 -0.51845089642E+02  0.54342191241E+02  0.00000000000E+00 0. -1.
<mgrwt>
<rscale>  0 0.90875075E+02</rscale>
<asrwt>0</asrwt>
<pdfrwt beam="2">  1        3 0.25963453E-01 0.90875075E+02</pdfrwt>
<pdfrwt beam="1">  1       -3 0.18820901E-02 0.90875075E+02</pdfrwt>
<totfact> 0.29776689E+04</totfact>
</mgrwt>
</event>
<event>
 7    1  0.1247599E-009  0.9232156E+02  0.7818608E-02  0.1297325E+00
         -3   -1    0    0    0  501 -0.00000000000E+00  0.00000000000E+00  0.33220199984E+02  0.33220353520E+02  0.10100000000E+00 0.  1.
          3   -1    0    0  501    0  0.00000000000E+00 -0.00000000000E+00 -0.64141888632E+02  0.64141968151E+02  0.10100000000E+00 0. -1.
         23    2    1    2    0    0  0.17763568394E-14  0.00000000000E+00 -0.30921688648E+02  0.97362321671E+02  0.92321562228E+02 0.  0.
    9000005    2    3    3    0    0  0.10954556664E+02  0.16762682760E+02 -0.58941579521E+02  0.62922459164E+02  0.91725801021E+01 0.  0.
         22    1    3    3    0    0 -0.10954556664E+02 -0.16762682760E+02  0.28019890873E+02  0.34439862507E+02  0.00000000000E+00 0.  1.
         22    1    4    4    0    0  0.11229885449E+02  0.10436709334E+02 -0.46503398768E+02  0.48965307370E+02  0.00000000000E+00 0.  1.
         22    1    4    4    0    0 -0.27532878494E+00  0.63259734259E+01 -0.12438180753E+02  0.13957151793E+02  0.00000000000E+00 0.  1.
<mgrwt>
<rscale>  0 0.92321562E+02</rscale>
<asrwt>0</asrwt>
<pdfrwt beam="2">  1        3 0.98680008E-02 0.92321562E+02</pdfrwt>
<pdfrwt beam="1">  1       -3 0.51108179E-02 0.92321562E+02</pdfrwt>
<totfact> 0.33700629E+04</totfact>
</mgrwt>
</event>
<event>
 7    1  0.1247599E-009  0.9235794E+02  0.7818608E-02  0.1297240E+00
         -3   -1    0    0    0  501 -0.00000000000E+00  0.00000000000E+00  0.43994003408E+02  0.43994119345E+02  0.10100000000E+00 0.  1.
          3   -1    0    0  501    0  0.00000000000E+00 -0.00000000000E+00 -0.48472216629E+02  0.48472321854E+02  0.10100000000E+00 0. -1.
         23    2    1    2    0    0  0.00000000000E+00  0.00000000000E+00 -0.44782132204E+01  0.92466441198E+02  0.92357936065E+02 0.  0.
    9000005    2    3    3    0    0  0.11972309333E+01  0.26587017490E+02  0.34823883772E+02  0.45001109757E+02  0.10202653453E+02 0.  0.
         22    1    3    3    0    0 -0.11972309333E+01 -0.26587017490E+02 -0.39302096992E+02  0.47465331442E+02  0.00000000000E+00 0. -1.
         22    1    4    4    0    0 -0.12295417601E+01  0.97238820095E+01  0.20578125154E+02  0.22793088627E+02  0.00000000000E+00 0. -1.
         22    1    4    4    0    0  0.24267726934E+01  0.16863135480E+02  0.14245758617E+02  0.22208021130E+02  0.00000000000E+00 0. -1.
<mgrwt>
<rscale>  0 0.92357936E+02</rscale>
<asrwt>0</asrwt>
<pdfrwt beam="2">  1        3 0.74572811E-02 0.92357936E+02</pdfrwt>
<pdfrwt beam="1">  1       -3 0.67683253E-02 0.92357936E+02</pdfrwt>
<totfact> 0.34022415E+04</totfact>
</mgrwt>
</event>
<event>
 7    1  0.1247599E-009  0.9102174E+02  0.7818608E-02  0.1300396E+00
         -3   -1    0    0    0  501 -0.00000000000E+00  0.00000000000E+00  0.16795971235E+04  0.16795971265E+04  0.10100000000E+00 0.  1.
          3   -1    0    0  501    0  0.00000000000E+00 -0.00000000000E+00 -0.12311051129E+01  0.12352411907E+01  0.10100000000E+00 0. -1.
         23    2    1    2    0    0  0.00000000000E+00 -0.44408920985E-15  0.16783660184E+04  0.16808323677E+04  0.91021737644E+02 0.  0.
    9000005    2    3    3    0    0  0.21845890919E+02 -0.38052894139E+01  0.15708041850E+04  0.15710085489E+04  0.12261727746E+02 0.  0.
         22    1    3    3    0    0 -0.21845890919E+02  0.38052894139E+01  0.10756183343E+03  0.10982381886E+03  0.00000000000E+00 0. -1.
         22    1    4    4    0    0  0.15721704113E+02  0.29087997320E+01  0.88846251932E+03  0.88860637030E+03  0.00000000000E+00 0.  1.
         22    1    4    4    0    0  0.61241868055E+01 -0.67140891459E+01  0.68234166563E+03  0.68240217857E+03  0.00000000000E+00 0.  1.
<mgrwt>
<rscale>  0 0.91021738E+02</rscale>
<asrwt>0</asrwt>
<pdfrwt beam="2">  1        3 0.18971967E-03 0.91021738E+02</pdfrwt>
<pdfrwt beam="1">  1       -3 0.25839921E+00 0.91021738E+02</pdfrwt>
<totfact> 0.50790282E+03</totfact>
</mgrwt>
</event>
<event>
 7    1  0.1247599E-009  0.9185760E+02  0.7818608E-02  0.1298415E+00
         -3   -1    0    0    0  501 -0.00000000000E+00  0.00000000000E+00  0.13546746752E+02  0.13547123258E+02  0.10100000000E+00 0.  1.
          3   -1    0    0  501    0  0.00000000000E+00 -0.00000000000E+00 -0.15571414315E+03  0.15571417590E+03  0.10100000000E+00 0. -1.
         23    2    1    2    0    0 -0.71054273576E-14  0.00000000000E+00 -0.14216739640E+03  0.16926129916E+03  0.91857600644E+02 0.  0.
    9000005    2    3    3    0    0 -0.38950636718E+02  0.22202434861E+02 -0.72362949190E+02  0.86298891625E+02  0.14177519737E+02 0.  0.
         22    1    3    3    0    0  0.38950636718E+02 -0.22202434861E+02 -0.69804447207E+02  0.82962407537E+02  0.00000000000E+00 0. -1.
         22    1    4    4    0    0 -0.25075584000E+02  0.18560676186E+02 -0.38714050359E+02  0.49719828124E+02  0.00000000000E+00 0.  1.
         22    1    4    4    0    0 -0.13875052718E+02  0.36417586744E+01 -0.33648898830E+02  0.36579063502E+02  0.00000000000E+00 0.  1.
<mgrwt>
<rscale>  0 0.91857601E+02</rscale>
<asrwt>0</asrwt>
<pdfrwt beam="2">  1        3 0.23956052E-01 0.91857601E+02</pdfrwt>
<pdfrwt beam="1">  1       -3 0.20841465E-02 0.91857601E+02</pdfrwt>
<totfact> 0.29566719E+04</totfact>
</mgrwt>
</event>
<event>
 7    1  0.1247599E-009  0.1009804E+03  0.7818608E-02  0.1278248E+00
         -3   -1    0    0    0  501 -0.00000000000E+00  0.00000000000E+00  0.88743890086E+02  0.88743947561E+02  0.10100000000E+00 0.  1.
          3   -1    0    0  501    0  0.00000000000E+00 -0.00000000000E+00 -0.28725886285E+02  0.28726063842E+02  0.10100000000E+00 0. -1.
         23    2    1    2    0    0 -0.71054273576E-14 -0.35527136788E-14  0.60018003801E+02  0.11747001140E+03  0.10098040799E+03 0.  0.
    9000005    2    3    3    0    0  0.33738794550E+02  0.25967765012E+02  0.60847201941E+02  0.74886932053E+02  0.96457001217E+01 0.  0.
         22    1    3    3    0    0 -0.33738794550E+02 -0.25967765012E+02 -0.82919813990E+00  0.42583079350E+02  0.00000000000E+00 0. -1.
         22    1    4    4    0    0  0.69952861356E+01  0.44124837609E+01  0.61814939488E+01  0.10325449554E+02  0.00000000000E+00 0. -1.
         22    1    4    4    0    0  0.26743508414E+02  0.21555281251E+02  0.54665707992E+02  0.64561482499E+02  0.00000000000E+00 0. -1.
<mgrwt>
<rscale>  0 0.10098041E+03</rscale>
<asrwt>0</asrwt>
<pdfrwt beam="2">  1        3 0.44193852E-02 0.10098041E+03</pdfrwt>
<pdfrwt beam="1">  1       -3 0.13652924E-01 0.10098041E+03</pdfrwt>
<totfact> 0.25274789E+04</totfact>
</mgrwt>
</event>
<event>
 7    1  0.1247599E-009  0.9346374E+02  0.7818608E-02  0.1294674E+00
         -3   -1    0    0    0  501 -0.00000000000E+00  0.00000000000E+00  0.10154982620E+03  0.10154987642E+03  0.10100000000E+00 0.  1.
          3   -1    0    0  501    0  0.00000000000E+00 -0.00000000000E+00 -0.21505206925E+02  0.21505444099E+02  0.10100000000E+00 0. -1.
         23    2    1    2    0    0  0.35527136788E-14  0.00000000000E+00  0.80044619271E+02  0.12305532052E+03  0.93463740748E+02 0.  0.
    9000005    2    3    3    0    0  0.31808732313E+02  0.17135145577E+02  0.78403618991E+02  0.86887634016E+02  0.98450397999E+01 0.  0.
         22    1    3    3    0    0 -0.31808732313E+02 -0.17135145577E+02  0.16410002799E+01  0.36167686506E+02  0.00000000000E+00 0. -1.
         22    1    4    4    0    0  0.67308593680E+01  0.17044120026E+00  0.96930862382E+01  0.11802094681E+02  0.00000000000E+00 0.  1.
         22    1    4    4    0    0  0.25077872945E+02  0.16964704377E+02  0.68710532753E+02  0.75085539335E+02  0.00000000000E+00 0.  1.
<mgrwt>
<rscale>  0 0.93463741E+02</rscale>
<asrwt>0</asrwt>
<pdfrwt beam="2">  1        3 0.33085156E-02 0.93463741E+02</pdfrwt>
<pdfrwt beam="1">  1       -3 0.15623072E-01 0.93463741E+02</pdfrwt>
<totfact> 0.30884818E+04</totfact>
</mgrwt>
</event>
<event>
 7    1  0.1247599E-009  0.7038684E+02  0.7818608E-02  0.1358782E+00
          3   -1    0    0  501    0  0.00000000000E+00  0.00000000000E+00  0.12327955122E+03  0.12327959259E+03  0.10100000000E+00 0. -1.
         -3   -1    0    0    0  501 -0.00000000000E+00 -0.00000000000E+00 -0.10046599486E+02  0.10047107157E+02  0.10100000000E+00 0.  1.
         23    2    1    2    0    0  0.00000000000E+00  0.00000000000E+00  0.11323295173E+03  0.13332669975E+03  0.70386841865E+02 0.  0.
    9000005    2    3    3    0    0 -0.21265796539E+02 -0.18313320517E+02  0.94045090862E+02  0.99329849665E+02  0.15307779345E+02 0.  0.
         22    1    3    3    0    0  0.21265796539E+02  0.18313320517E+02  0.19187860870E+02  0.33996850083E+02  0.00000000000E+00 0.  1.
         22    1    4    4    0    0 -0.43309794294E+01 -0.13196049171E+02  0.49157992533E+02  0.51082299541E+02  0.00000000000E+00 0.  1.
         22    1    4    4    0    0 -0.16934817110E+02 -0.51172713460E+01  0.44887098329E+02  0.48247550124E+02  0.00000000000E+00 0.  1.
<mgrwt>
<rscale>  0 0.70386842E+02</rscale>
<asrwt>0</asrwt>
<pdfrwt beam="1">  1        3 0.18966127E-01 0.70386842E+02</pdfrwt>
<pdfrwt beam="2">  1       -3 0.15456729E-02 0.70386842E+02</pdfrwt>
<totfact> 0.64523365E+04</totfact>
</mgrwt>
</event>
<event>
 7    1  0.1247599E-009  0.9051192E+02  0.7818608E-02  0.1301617E+00
          3   -1    0    0  501    0  0.00000000000E+00  0.00000000000E+00  0.84907778287E+01  0.84913785180E+01  0.10100000000E+00 0. -1.
         -3   -1    0    0    0  501 -0.00000000000E+00 -0.00000000000E+00 -0.24120575040E+03  0.24120577154E+03  0.10100000000E+00 0.  1.
         23    2    1    2    0    0  0.35527136788E-14 -0.22204460493E-15 -0.23271497257E+03  0.24969715006E+03  0.90511923474E+02 0.  0.
    9000005    2    3    3    0    0  0.18424914762E+02 -0.18502283697E+01 -0.23014565818E+03  0.23100217198E+03  0.72165540288E+01 0.  0.
         22    1    3    3    0    0 -0.18424914762E+02  0.18502283697E+01 -0.25693143894E+01  0.18694978080E+02  0.00000000000E+00 0. -1.
         22    1    4    4    0    0  0.18390325590E+02 -0.51214134068E+00 -0.20618535817E+03  0.20700451272E+03  0.00000000000E+00 0.  1.
         22    1    4    4    0    0  0.34589171528E-01 -0.13380870290E+01 -0.23960300009E+02  0.23997659257E+02  0.00000000000E+00 0.  1.
<mgrwt>
<rscale>  0 0.90511923E+02</rscale>
<asrwt>0</asrwt>
<pdfrwt beam="1">  1        3 0.13063215E-02 0.90511923E+02</pdfrwt>
<pdfrwt beam="2">  1       -3 0.37108620E-01 0.90511923E+02</pdfrwt>
<totfact> 0.26631500E+04</totfact>
</mgrwt>
</event>
<event>
 7    1  0.1834140E-009  0.9785838E+02  0.7818608E-02  0.1284865E+00
          3   -1    0    0  501    0  0.00000000000E+00  0.00000000000E+00  0.20166920804E+03  0.20166923334E+03  0.10100000000E+00 0. -1.
         -3   -1    0    0    0  501 -0.00000000000E+00 -0.00000000000E+00 -0.11871009331E+02  0.11871438983E+02  0.10100000000E+00 0.  1.
         23    2    1    2    0    0  0.17763568394E-14  0.00000000000E+00  0.18979819871E+03  0.21354067232E+03  0.97858379813E+02 0.  0.
    9000005    2    3    3    0    0 -0.15461267013E+02  0.17119948768E+02  0.18862469480E+03  0.19044260887E+03  0.12528701533E+02 0.  0.
         22    1    3    3    0    0  0.15461267013E+02 -0.17119948768E+02  0.11735039107E+01  0.23098063445E+02  0.00000000000E+00 0.  1.
         22    1    4    4    0    0 -0.45779679130E+01  0.10723118429E+02  0.54962137235E+02  0.56185225714E+02  0.00000000000E+00 0. -1.
         22    1    4    4    0    0 -0.10883299100E+02  0.63968303386E+01  0.13366255757E+03  0.13425738316E+03  0.00000000000E+00 0. -1.
<mgrwt>
<rscale>  0 0.97858380E+02</rscale>
<asrwt>0</asrwt>
<pdfrwt beam="1">  1        3 0.31026070E-01 0.97858380E+02</pdfrwt>
<pdfrwt beam="2">  1       -3 0.18263440E-02 0.97858380E+02</pdfrwt>
<totfact> 0.22962690E+04</totfact>
</mgrwt>
</event>
<event>
 7    1  0.1247599E-009  0.9300056E+02  0.7818608E-02  0.1295744E+00
          3   -1    0    0  501    0  0.00000000000E+00  0.00000000000E+00  0.68448344695E+02  0.68448419211E+02  0.10100000000E+00 0. -1.
         -3   -1    0    0    0  501 -0.00000000000E+00 -0.00000000000E+00 -0.31589721002E+02  0.31589882462E+02  0.10100000000E+00 0.  1.
         23    2    1    2    0    0  0.00000000000E+00  0.00000000000E+00  0.36858623694E+02  0.10003830167E+03  0.93000557316E+02 0.  0.
    9000005    2    3    3    0    0  0.15327276782E+02  0.41967345530E+02  0.31758419361E+02  0.55069472596E+02  0.52788357919E+01 0.  0.
         22    1    3    3    0    0 -0.15327276782E+02 -0.41967345530E+02  0.51002043330E+01  0.44968829077E+02  0.00000000000E+00 0.  1.
         22    1    4    4    0    0  0.15670193301E+02  0.39759169269E+02  0.30516773760E+02  0.52513045806E+02  0.00000000000E+00 0.  1.
         22    1    4    4    0    0 -0.34291651844E+00  0.22081762602E+01  0.12416456006E+01  0.25564267900E+01  0.00000000000E+00 0.  1.
<mgrwt>
<rscale>  0 0.93000557E+02</rscale>
<asrwt>0</asrwt>
<pdfrwt beam="1">  1        3 0.10530533E-01 0.93000557E+02</pdfrwt>
<pdfrwt beam="2">  1       -3 0.48599752E-02 0.93000557E+02</pdfrwt>
<totfact> 0.32843932E+04</totfact>
</mgrwt>
</event>
<event>
 7    1  0.1247599E-009  0.9059260E+02  0.7818608E-02  0.1301423E+00
         -3   -1    0    0    0  501 -0.00000000000E+00  0.00000000000E+00  0.11834699811E+02  0.11835130781E+02  0.10100000000E+00 0.  1.
          3   -1    0    0  501    0  0.00000000000E+00 -0.00000000000E+00 -0.17336412215E+03  0.17336415157E+03  0.10100000000E+00 0. -1.
         23    2    1    2    0    0  0.00000000000E+00  0.00000000000E+00 -0.16152942234E+03  0.18519928236E+03  0.90592604018E+02 0.  0.
    9000005    2    3    3    0    0  0.10666002783E+02  0.51959778474E+00 -0.17063678155E+03  0.17116441189E+03  0.81431616902E+01 0.  0.
         22    1    3    3    0    0 -0.10666002783E+02 -0.51959778474E+00  0.91073592088E+01  0.14034870465E+02  0.00000000000E+00 0.  1.
         22    1    4    4    0    0  0.80714796231E+01  0.12875528373E+01 -0.67633385559E+02  0.68125482881E+02  0.00000000000E+00 0. -1.
         22    1    4    4    0    0  0.25945231597E+01 -0.76795505255E+00 -0.10300339599E+03  0.10303892901E+03  0.00000000000E+00 0. -1.
<mgrwt>
<rscale>  0 0.90592604E+02</rscale>
<asrwt>0</asrwt>
<pdfrwt beam="2">  1        3 0.26671437E-01 0.90592604E+02</pdfrwt>
<pdfrwt beam="1">  1       -3 0.18207586E-02 0.90592604E+02</pdfrwt>
<totfact> 0.29794195E+04</totfact>
</mgrwt>
</event>
<event>
 7    1  0.1247599E-009  0.9265796E+02  0.7818608E-02  0.1296540E+00
         -3   -1    0    0    0  501 -0.00000000000E+00  0.00000000000E+00  0.24635507368E+03  0.24635509438E+03  0.10100000000E+00 0.  1.
          3   -1    0    0  501    0  0.00000000000E+00 -0.00000000000E+00 -0.87122094524E+01  0.87127948755E+01  0.10100000000E+00 0. -1.
         23    2    1    2    0    0  0.00000000000E+00  0.00000000000E+00  0.23764286423E+03  0.25506788926E+03  0.92657958174E+02 0.  0.
    9000005    2    3    3    0    0  0.37602296087E+02  0.25206782437E+02  0.12464022263E+03  0.13333493743E+03  0.13917826399E+02 0.  0.
         22    1    3    3    0    0 -0.37602296087E+02 -0.25206782437E+02  0.11300264160E+03  0.12173295183E+03  0.00000000000E+00 0.  1.
         22    1    4    4    0    0  0.25803762330E+02  0.10556792396E+02  0.85056695341E+02  0.89509337158E+02  0.00000000000E+00 0. -1.
         22    1    4    4    0    0  0.11798533757E+02  0.14649990041E+02  0.39583527285E+02  0.43825600274E+02  0.00000000000E+00 0. -1.
<mgrwt>
<rscale>  0 0.92657958E+02</rscale>
<asrwt>0</asrwt>
<pdfrwt beam="2">  1        3 0.13403868E-02 0.92657958E+02</pdfrwt>
<pdfrwt beam="1">  1       -3 0.37900820E-01 0.92657958E+02</pdfrwt>
<totfact> 0.24775834E+04</totfact>
</mgrwt>
</event>
<event>
 7    1  0.1326350E-009  0.9772603E+02  0.7818608E-02  0.1285152E+00
         -3   -1    0    0    0  501 -0.00000000000E+00  0.00000000000E+00  0.13025515507E+02  0.13025907079E+02  0.10100000000E+00 0.  1.
          3   -1    0    0  501    0  0.00000000000E+00 -0.00000000000E+00 -0.18329816647E+03  0.18329819429E+03  0.10100000000E+00 0. -1.
         23    2    1    2    0    0  0.00000000000E+00  0.17763568394E-14 -0.17027265096E+03  0.19632410137E+03  0.97726030896E+02 0.  0.
    9000005    2    3    3    0    0 -0.28978533480E+02  0.93126953593E+01 -0.16089968424E+03  0.16447548755E+03  0.15394671723E+02 0.  0.
         22    1    3    3    0    0  0.28978533480E+02 -0.93126953593E+01 -0.93729667186E+01  0.31848613825E+02  0.00000000000E+00 0.  1.
         22    1    4    4    0    0 -0.20128025714E+02  0.59446115745E+01 -0.13955671128E+03  0.14112601280E+03  0.00000000000E+00 0.  1.
         22    1    4    4    0    0 -0.88505077657E+01  0.33680837848E+01 -0.21342972964E+02  0.23349474748E+02  0.00000000000E+00 0.  1.
<mgrwt>
<rscale>  0 0.97726031E+02</rscale>
<asrwt>0</asrwt>
<pdfrwt beam="2">  1        3 0.28199748E-01 0.97726031E+02</pdfrwt>
<pdfrwt beam="1">  1       -3 0.20039578E-02 0.97726031E+02</pdfrwt>
<totfact> 0.23768803E+04</totfact>
</mgrwt>
</event>
<event>
 7    1  0.1247599E-009  0.9440492E+02  0.7818608E-02  0.1292522E+00
          3   -1    0    0  501    0  0.00000000000E+00  0.00000000000E+00  0.14399248068E+02  0.14399602284E+02  0.10100000000E+00 0. -1.
         -3   -1    0    0    0  501 -0.00000000000E+00 -0.00000000000E+00 -0.15473302849E+03  0.15473306145E+03  0.10100000000E+00 0.  1.
         23    2    1    2    0    0  0.00000000000E+00 -0.11102230246E-15 -0.14033378042E+03  0.16913266373E+03  0.94404915207E+02 0.  0.
    9000005    2    3    3    0    0  0.29073722120E+02 -0.61734198902E+00 -0.13621870129E+03  0.13976267386E+03  0.11506867205E+02 0.  0.
         22    1    3    3    0    0 -0.29073722120E+02  0.61734198902E+00 -0.41150791233E+01  0.29369989874E+02  0.00000000000E+00 0. -1.
         22    1    4    4    0    0  0.20264013011E+01 -0.28376100247E+01 -0.26935358048E+02  0.27160114986E+02  0.00000000000E+00 0.  1.
         22    1    4    4    0    0  0.27047320819E+02  0.22202680357E+01 -0.10928334325E+03  0.11260255887E+03  0.00000000000E+00 0.  1.
<mgrwt>
<rscale>  0 0.94404915E+02</rscale>
<asrwt>0</asrwt>
<pdfrwt beam="1">  1        3 0.22152988E-02 0.94404915E+02</pdfrwt>
<pdfrwt beam="2">  1       -3 0.23805110E-01 0.94404915E+02</pdfrwt>
<totfact> 0.27457790E+04</totfact>
</mgrwt>
</event>
<event>
 7    1  0.1247599E-009  0.9075365E+02  0.7818608E-02  0.1301037E+00
         -3   -1    0    0    0  501 -0.00000000000E+00  0.00000000000E+00  0.12597966263E+02  0.12598371123E+02  0.10100000000E+00 0.  1.
          3   -1    0    0  501    0  0.00000000000E+00 -0.00000000000E+00 -0.16344050877E+03  0.16344053998E+03  0.10100000000E+00 0. -1.
         23    2    1    2    0    0 -0.35527136788E-14  0.00000000000E+00 -0.15084254251E+03  0.17603891110E+03  0.90753653323E+02 0.  0.
    9000005    2    3    3    0    0 -0.18932434193E+02  0.40131374870E+02 -0.69619132149E+02  0.83485106729E+02  0.12408673217E+02 0.  0.
         22    1    3    3    0    0  0.18932434193E+02 -0.40131374870E+02 -0.81223410360E+02  0.92553804373E+02  0.00000000000E+00 0.  1.
         22    1    4    4    0    0 -0.20691152416E+00  0.64782560820E+01 -0.17642819342E+02  0.18795735915E+02  0.00000000000E+00 0. -1.
         22    1    4    4    0    0 -0.18725522669E+02  0.33653118788E+02 -0.51976312807E+02  0.64689370814E+02  0.00000000000E+00 0. -1.
<mgrwt>
<rscale>  0 0.90753653E+02</rscale>
<asrwt>0</asrwt>
<pdfrwt beam="2">  1        3 0.25144726E-01 0.90753653E+02</pdfrwt>
<pdfrwt beam="1">  1       -3 0.19381823E-02 0.90753653E+02</pdfrwt>
<totfact> 0.30162341E+04</totfact>
</mgrwt>
</event>
<event>
 7    1  0.1247599E-009  0.8763464E+02  0.7818608E-02  0.1308683E+00
         -3   -1    0    0    0  501 -0.00000000000E+00  0.00000000000E+00  0.34854253318E+02  0.34854399656E+02  0.10100000000E+00 0.  1.
          3   -1    0    0  501    0  0.00000000000E+00 -0.00000000000E+00 -0.55085007991E+02  0.55085100584E+02  0.10100000000E+00 0. -1.
         23    2    1    2    0    0  0.00000000000E+00  0.35527136788E-14 -0.20230754672E+02  0.89939500240E+02  0.87634640804E+02 0.  0.
    9000005    2    3    3    0    0 -0.34279836988E+02  0.20841826247E+02  0.50943115115E+01  0.42496398292E+02  0.13057676393E+02 0.  0.
         22    1    3    3    0    0  0.34279836988E+02 -0.20841826247E+02 -0.25325066184E+02  0.47443101948E+02  0.00000000000E+00 0. -1.
         22    1    4    4    0    0 -0.23557260028E+02  0.11350264501E+02  0.89978970800E+01  0.27653845233E+02  0.00000000000E+00 0.  1.
         22    1    4    4    0    0 -0.10722576959E+02  0.94915617462E+01 -0.39035855685E+01  0.14842553059E+02  0.00000000000E+00 0.  1.
<mgrwt>
<rscale>  0 0.87634641E+02</rscale>
<asrwt>0</asrwt>
<pdfrwt beam="2">  1        3 0.84746351E-02 0.87634641E+02</pdfrwt>
<pdfrwt beam="1">  1       -3 0.53622112E-02 0.87634641E+02</pdfrwt>
<totfact> 0.39457909E+04</totfact>
</mgrwt>
</event>
<event>
 7    1  0.1247599E-009  0.8542144E+02  0.7818608E-02  0.1314334E+00
          3   -1    0    0  501    0  0.00000000000E+00  0.00000000000E+00  0.37632954700E+01  0.37646505541E+01  0.10100000000E+00 0. -1.
         -3   -1    0    0    0  501 -0.00000000000E+00 -0.00000000000E+00 -0.48464757457E+03  0.48464758509E+03  0.10100000000E+00 0.  1.
         23    2    1    2    0    0  0.71054273576E-14  0.88817841970E-15 -0.48088427910E+03  0.48841223565E+03  0.85421437856E+02 0.  0.
    9000005    2    3    3    0    0 -0.36016446834E+02 -0.67417895343E+01 -0.35855153684E+03  0.36070970632E+03  0.14479347096E+02 0.  0.
         22    1    3    3    0    0  0.36016446834E+02  0.67417895343E+01 -0.12233274226E+03  0.12770252933E+03  0.00000000000E+00 0. -1.
         22    1    4    4    0    0 -0.10946845664E+02  0.31161795342E+01 -0.71912284480E+02  0.72807421764E+02  0.00000000000E+00 0. -1.
         22    1    4    4    0    0 -0.25069601170E+02 -0.98579690685E+01 -0.28663925236E+03  0.28790228455E+03  0.00000000000E+00 0. -1.
<mgrwt>
<rscale>  0 0.85421438E+02</rscale>
<asrwt>0</asrwt>
<pdfrwt beam="1">  1        3 0.57907396E-03 0.85421438E+02</pdfrwt>
<pdfrwt beam="2">  1       -3 0.74561221E-01 0.85421438E+02</pdfrwt>
<totfact> 0.21612617E+04</totfact>
</mgrwt>
</event>
<event>
 7    1  0.1247599E-009  0.1019777E+03  0.7818608E-02  0.1276191E+00
          3   -1    0    0  501    0  0.00000000000E+00  0.00000000000E+00  0.39993880769E+03  0.39993882044E+03  0.10100000000E+00 0. -1.
         -3   -1    0    0    0  501 -0.00000000000E+00 -0.00000000000E+00 -0.65002405702E+01  0.65010251861E+01  0.10100000000E+00 0.  1.
         23    2    1    2    0    0  0.00000000000E+00  0.00000000000E+00  0.39343856712E+03  0.40643984563E+03  0.10197765450E+03 0.  0.
    9000005    2    3    3    0    0 -0.36020362682E+02  0.33890626579E+02  0.17498914251E+03  0.18246173909E+03  0.15001504481E+02 0.  0.
         22    1    3    3    0    0  0.36020362682E+02 -0.33890626579E+02  0.21844942461E+03  0.22397810654E+03  0.00000000000E+00 0. -1.
         22    1    4    4    0    0 -0.12922829384E+02  0.16916963864E+02  0.98599564572E+02  0.10087148913E+03  0.00000000000E+00 0. -1.
         22    1    4    4    0    0 -0.23097533298E+02  0.16973662715E+02  0.76389577937E+02  0.81590249956E+02  0.00000000000E+00 0. -1.
<mgrwt>
<rscale>  0 0.10197765E+03</rscale>
<asrwt>0</asrwt>
<pdfrwt beam="1">  1        3 0.61529120E-01 0.10197765E+03</pdfrwt>
<pdfrwt beam="2">  1       -3 0.10000982E-02 0.10197765E+03</pdfrwt>
<totfact> 0.15105938E+04</totfact>
</mgrwt>
</event>
<event>
 7    1  0.1247599E-009  0.9113831E+02  0.7818608E-02  0.1300118E+00
         -3   -1    0    0    0  501 -0.00000000000E+00  0.00000000000E+00  0.18809709063E+02  0.18809980224E+02  0.10100000000E+00 0.  1.
          3   -1    0    0  501    0  0.00000000000E+00 -0.00000000000E+00 -0.11039656306E+03  0.11039660926E+03  0.10100000000E+00 0. -1.
         23    2    1    2    0    0  0.00000000000E+00  0.00000000000E+00 -0.91586853993E+02  0.12920658948E+03  0.91138306661E+02 0.  0.
    9000005    2    3    3    0    0 -0.22275999457E+02 -0.31907803827E+02 -0.16376682428E+02  0.44525434531E+02  0.14141799602E+02 0.  0.
         22    1    3    3    0    0  0.22275999457E+02  0.31907803827E+02 -0.75210171565E+02  0.84681154950E+02  0.00000000000E+00 0. -1.
         22    1    4    4    0    0 -0.30439573249E+01  0.96075794718E+00 -0.35850368331E+00  0.32120487107E+01  0.00000000000E+00 0.  1.
         22    1    4    4    0    0 -0.19232042132E+02 -0.32868561774E+02 -0.16018178745E+02  0.41313385821E+02  0.00000000000E+00 0.  1.
<mgrwt>
<rscale>  0 0.91138307E+02</rscale>
<asrwt>0</asrwt>
<pdfrwt beam="2">  1        3 0.16984111E-01 0.91138307E+02</pdfrwt>
<pdfrwt beam="1">  1       -3 0.28938259E-02 0.91138307E+02</pdfrwt>
<totfact> 0.32665637E+04</totfact>
</mgrwt>
</event>
<event>
 7    1  0.1247599E-009  0.7950177E+02  0.7818608E-02  0.1330471E+00
          3   -1    0    0  501    0  0.00000000000E+00  0.00000000000E+00  0.28415325929E+03  0.28415327724E+03  0.10100000000E+00 0. -1.
         -3   -1    0    0    0  501 -0.00000000000E+00 -0.00000000000E+00 -0.55603709120E+01  0.55612881312E+01  0.10100000000E+00 0.  1.
         23    2    1    2    0    0  0.00000000000E+00 -0.35527136788E-14  0.27859288838E+03  0.28971456537E+03  0.79501773146E+02 0.  0.
    9000005    2    3    3    0    0  0.57946956482E+01 -0.20229938825E+02  0.26103596550E+03  0.26230882759E+03  0.14943788779E+02 0.  0.
         22    1    3    3    0    0 -0.57946956482E+01  0.20229938825E+02  0.17556922877E+02  0.27405737783E+02  0.00000000000E+00 0.  1.
         22    1    4    4    0    0  0.85052672213E+01 -0.56533547586E+01  0.13918028916E+03  0.13955447997E+03  0.00000000000E+00 0.  1.
         22    1    4    4    0    0 -0.27105715731E+01 -0.14576584066E+02  0.12185567634E+03  0.12275434762E+03  0.00000000000E+00 0.  1.
<mgrwt>
<rscale>  0 0.79501773E+02</rscale>
<asrwt>0</asrwt>
<pdfrwt beam="1">  1        3 0.43715933E-01 0.79501773E+02</pdfrwt>
<pdfrwt beam="2">  1       -3 0.85551410E-03 0.79501773E+02</pdfrwt>
<totfact> 0.35187605E+04</totfact>
</mgrwt>
</event>
<event>
 7    1  0.1247599E-009  0.9113542E+02  0.7818608E-02  0.1300125E+00
         -3   -1    0    0    0  501 -0.00000000000E+00  0.00000000000E+00  0.90500084486E+02  0.90500140845E+02  0.10100000000E+00 0.  1.
          3   -1    0    0  501    0  0.00000000000E+00 -0.00000000000E+00 -0.22943626774E+02  0.22943849079E+02  0.10100000000E+00 0. -1.
         23    2    1    2    0    0  0.00000000000E+00  0.00000000000E+00  0.67556457712E+02  0.11344398992E+03  0.91135415021E+02 0.  0.
    9000005    2    3    3    0    0  0.21270516243E+02  0.11801668098E+02  0.80955195499E+02  0.85672774512E+02  0.13941534469E+02 0.  0.
         22    1    3    3    0    0 -0.21270516243E+02 -0.11801668098E+02 -0.13398737787E+02  0.27771215411E+02  0.00000000000E+00 0. -1.
         22    1    4    4    0    0  0.16108270451E+02  0.14790906714E+02  0.67509197769E+02  0.70962941609E+02  0.00000000000E+00 0. -1.
         22    1    4    4    0    0  0.51622457920E+01 -0.29892386159E+01  0.13445997729E+02  0.14709832904E+02  0.00000000000E+00 0. -1.
<mgrwt>
<rscale>  0 0.91135415E+02</rscale>
<asrwt>0</asrwt>
<pdfrwt beam="2">  1        3 0.35298101E-02 0.91135415E+02</pdfrwt>
<pdfrwt beam="1">  1       -3 0.13923111E-01 0.91135415E+02</pdfrwt>
<totfact> 0.33744262E+04</totfact>
</mgrwt>
</event>
<event>
 7    1  0.1247599E-009  0.9155831E+02  0.7818608E-02  0.1299121E+00
         -3   -1    0    0    0  501 -0.00000000000E+00  0.00000000000E+00  0.86954239731E+01  0.86960105262E+01  0.10100000000E+00 0.  1.
          3   -1    0    0  501    0  0.00000000000E+00 -0.00000000000E+00 -0.24100666732E+03  0.24100668849E+03  0.10100000000E+00 0. -1.
         23    2    1    2    0    0  0.88817841970E-15  0.71054273576E-14 -0.23231124335E+03  0.24970269901E+03  0.91558309876E+02 0.  0.
    9000005    2    3    3    0    0 -0.75594829837E+01 -0.35998351263E+02 -0.44656669152E+02  0.58477004364E+02  0.85038146092E+01 0.  0.
         22    1    3    3    0    0  0.75594829837E+01  0.35998351263E+02 -0.18765457420E+03  0.19122569465E+03  0.00000000000E+00 0. -1.
         22    1    4    4    0    0 -0.85227878383E+01 -0.27113922218E+02 -0.30117064536E+02  0.41410629878E+02  0.00000000000E+00 0. -1.
         22    1    4    4    0    0  0.96330485460E+00 -0.88844290451E+01 -0.14539604616E+02  0.17066374486E+02  0.00000000000E+00 0. -1.
<mgrwt>
<rscale>  0 0.91558310E+02</rscale>
<asrwt>0</asrwt>
<pdfrwt beam="2">  1        3 0.37077990E-01 0.91558310E+02</pdfrwt>
<pdfrwt beam="1">  1       -3 0.13378045E-02 0.91558310E+02</pdfrwt>
<totfact> 0.25824855E+04</totfact>
</mgrwt>
</event>
<event>
 7    1  0.1247599E-009  0.9570713E+02  0.7818608E-02  0.1289591E+00
          3   -1    0    0  501    0  0.00000000000E+00  0.00000000000E+00  0.49593546225E+01  0.49603829764E+01  0.10100000000E+00 0. -1.
         -3   -1    0    0    0  501 -0.00000000000E+00 -0.00000000000E+00 -0.46169742086E+03  0.46169743191E+03  0.10100000000E+00 0.  1.
         23    2    1    2    0    0 -0.71054273576E-14  0.00000000000E+00 -0.45673806624E+03  0.46665781488E+03  0.95707131613E+02 0.  0.
    9000005    2    3    3    0    0 -0.45437258432E+02 -0.10636805977E+02 -0.22902756902E+03  0.23421479683E+03  0.15008583925E+02 0.  0.
         22    1    3    3    0    0  0.45437258432E+02  0.10636805977E+02 -0.22771049722E+03  0.23244301805E+03  0.00000000000E+00 0.  1.
         22    1    4    4    0    0 -0.60334737343E+01  0.28173878337E+01 -0.19962974047E+02  0.21044258417E+02  0.00000000000E+00 0.  1.
         22    1    4    4    0    0 -0.39403784697E+02 -0.13454193810E+02 -0.20906459497E+03  0.21317053842E+03  0.00000000000E+00 0.  1.
<mgrwt>
<rscale>  0 0.95707132E+02</rscale>
<asrwt>0</asrwt>
<pdfrwt beam="1">  1        3 0.76305795E-03 0.95707132E+02</pdfrwt>
<pdfrwt beam="2">  1       -3 0.71030419E-01 0.95707132E+02</pdfrwt>
<totfact> 0.16446475E+04</totfact>
</mgrwt>
</event>
<event>
 7    1  0.1247599E-009  0.9024287E+02  0.7818608E-02  0.1302265E+00
          3   -1    0    0  501    0  0.00000000000E+00  0.00000000000E+00  0.69707704858E+01  0.69715021455E+01  0.10100000000E+00 0. -1.
         -3   -1    0    0    0  501 -0.00000000000E+00 -0.00000000000E+00 -0.29205265501E+03  0.29205267247E+03  0.10100000000E+00 0.  1.
         23    2    1    2    0    0 -0.17763568394E-14  0.71054273576E-14 -0.28508188452E+03  0.29902417462E+03  0.90242872977E+02 0.  0.
    9000005    2    3    3    0    0 -0.12532763895E+02  0.42161403884E+02 -0.13399902811E+03  0.14166889618E+03  0.13404568781E+02 0.  0.
         22    1    3    3    0    0  0.12532763895E+02 -0.42161403884E+02 -0.15108285642E+03  0.15735527843E+03  0.00000000000E+00 0.  1.
         22    1    4    4    0    0 -0.50859250369E+01  0.35226995426E+02 -0.10955161551E+03  0.11518838614E+03  0.00000000000E+00 0. -1.
         22    1    4    4    0    0 -0.74468388581E+01  0.69344084575E+01 -0.24447412599E+02  0.26480510048E+02  0.00000000000E+00 0. -1.
<mgrwt>
<rscale>  0 0.90242873E+02</rscale>
<asrwt>0</asrwt>
<pdfrwt beam="1">  1        3 0.10724841E-02 0.90242873E+02</pdfrwt>
<pdfrwt beam="2">  1       -3 0.44931226E-01 0.90242873E+02</pdfrwt>
<totfact> 0.24734503E+04</totfact>
</mgrwt>
</event>
<event>
 7    1  0.1247599E-009  0.9348816E+02  0.7818608E-02  0.1294618E+00
          3   -1    0    0  501    0  0.00000000000E+00  0.00000000000E+00  0.51656624826E+02  0.51656723565E+02  0.10100000000E+00 0. -1.
         -3   -1    0    0    0  501 -0.00000000000E+00 -0.00000000000E+00 -0.42298516006E+02  0.42298636589E+02  0.10100000000E+00 0.  1.
         23    2    1    2    0    0 -0.17763568394E-14 -0.71054273576E-14  0.93581088209E+01  0.93955360154E+02  0.93488157009E+02 0.  0.
    9000005    2    3    3    0    0 -0.99078162478E+01 -0.30118880376E+02  0.38239888524E+02  0.51066329193E+02  0.11839304249E+02 0.  0.
         22    1    3    3    0    0  0.99078162478E+01  0.30118880376E+02 -0.28881779703E+02  0.42889030960E+02  0.00000000000E+00 0.  1.
         22    1    4    4    0    0  0.25085396089E+01 -0.89978411431E+01  0.10220155755E+02  0.13845775524E+02  0.00000000000E+00 0. -1.
         22    1    4    4    0    0 -0.12416355857E+02 -0.21121039233E+02  0.28019732769E+02  0.37220553669E+02  0.00000000000E+00 0. -1.
<mgrwt>
<rscale>  0 0.93488157E+02</rscale>
<asrwt>0</asrwt>
<pdfrwt beam="1">  1        3 0.79471899E-02 0.93488157E+02</pdfrwt>
<pdfrwt beam="2">  1       -3 0.65074809E-02 0.93488157E+02</pdfrwt>
<totfact> 0.32803919E+04</totfact>
</mgrwt>
</event>
<event>
 7    1  0.1247599E-009  0.9363665E+02  0.7818608E-02  0.1294277E+00
          3   -1    0    0  501    0  0.00000000000E+00  0.00000000000E+00  0.19524567644E+03  0.19524570256E+03  0.10100000000E+00 0. -1.
         -3   -1    0    0    0  501 -0.00000000000E+00 -0.00000000000E+00 -0.11226399930E+02  0.11226854252E+02  0.10100000000E+00 0.  1.
         23    2    1    2    0    0  0.00000000000E+00  0.00000000000E+00  0.18401927651E+03  0.20647255681E+03  0.93636651961E+02 0.  0.
    9000005    2    3    3    0    0 -0.42605139438E+02 -0.93168531322E+01  0.12717104922E+03  0.13482255608E+03  0.10131347896E+02 0.  0.
         22    1    3    3    0    0  0.42605139438E+02  0.93168531322E+01  0.56848227289E+02  0.71650000731E+02  0.00000000000E+00 0. -1.
         22    1    4    4    0    0 -0.27368154172E+02 -0.51071772447E+01  0.65781648570E+02  0.71430556563E+02  0.00000000000E+00 0. -1.
         22    1    4    4    0    0 -0.15236985266E+02 -0.42096758875E+01  0.61389400649E+02  0.63391999520E+02  0.00000000000E+00 0. -1.
<mgrwt>
<rscale>  0 0.93636652E+02</rscale>
<asrwt>0</asrwt>
<pdfrwt beam="1">  1        3 0.30037831E-01 0.93636652E+02</pdfrwt>
<pdfrwt beam="2">  1       -3 0.17271756E-02 0.93636652E+02</pdfrwt>
<totfact> 0.26210511E+04</totfact>
</mgrwt>
</event>
<event>
 7    1  0.1247599E-009  0.9063368E+02  0.7818608E-02  0.1301324E+00
         -3   -1    0    0    0  501 -0.00000000000E+00  0.00000000000E+00  0.22340328687E+02  0.22340556995E+02  0.10100000000E+00 0.  1.
          3   -1    0    0  501    0  0.00000000000E+00 -0.00000000000E+00 -0.91923433180E+02  0.91923488666E+02  0.10100000000E+00 0. -1.
         23    2    1    2    0    0  0.00000000000E+00  0.00000000000E+00 -0.69583104493E+02  0.11426404566E+03  0.90633678619E+02 0.  0.
    9000005    2    3    3    0    0  0.19193990637E+02 -0.11199911289E+02 -0.84300949599E+02  0.87609547841E+02  0.86565281725E+01 0.  0.
         22    1    3    3    0    0 -0.19193990637E+02  0.11199911289E+02  0.14717845107E+02  0.26654497821E+02  0.00000000000E+00 0.  1.
         22    1    4    4    0    0  0.18479081940E+02 -0.75947532385E+01 -0.74808478657E+02  0.77430389545E+02  0.00000000000E+00 0. -1.
         22    1    4    4    0    0  0.71490869731E+00 -0.36051580508E+01 -0.94924709422E+01  0.10179158295E+02  0.00000000000E+00 0. -1.
<mgrwt>
<rscale>  0 0.90633679E+02</rscale>
<asrwt>0</asrwt>
<pdfrwt beam="2">  1        3 0.14142088E-01 0.90633679E+02</pdfrwt>
<pdfrwt beam="1">  1       -3 0.34369955E-02 0.90633679E+02</pdfrwt>
<totfact> 0.34193289E+04</totfact>
</mgrwt>
</event>
<event>
 7    1  0.1581838E-009  0.9381413E+02  0.7818608E-02  0.1293870E+00
         -3   -1    0    0    0  501 -0.00000000000E+00  0.00000000000E+00  0.39281980820E+02  0.39282110663E+02  0.10100000000E+00 0.  1.
          3   -1    0    0  501    0  0.00000000000E+00 -0.00000000000E+00 -0.56011997826E+02  0.56012088887E+02  0.10100000000E+00 0. -1.
         23    2    1    2    0    0  0.35527136788E-14 -0.35527136788E-14 -0.16730017006E+02  0.95294199549E+02  0.93814130059E+02 0.  0.
    9000005    2    3    3    0    0 -0.18783030947E+02  0.25625228914E+02  0.25144999828E+02  0.42730222880E+02  0.13570052416E+02 0.  0.
         22    1    3    3    0    0  0.18783030947E+02 -0.25625228914E+02 -0.41875016834E+02  0.52563976669E+02  0.00000000000E+00 0. -1.
         22    1    4    4    0    0 -0.18730666703E+02  0.21000947284E+02  0.25652443833E+02  0.38077887764E+02  0.00000000000E+00 0.  1.
         22    1    4    4    0    0 -0.52364243395E-01  0.46242816303E+01 -0.50744400540E+00  0.46523351157E+01  0.00000000000E+00 0.  1.
<mgrwt>
<rscale>  0 0.93814130E+02</rscale>
<asrwt>0</asrwt>
<pdfrwt beam="2">  1        3 0.86172474E-02 0.93814130E+02</pdfrwt>
<pdfrwt beam="1">  1       -3 0.60433987E-02 0.93814130E+02</pdfrwt>
<totfact> 0.32399934E+04</totfact>
</mgrwt>
</event>
<event>
 7    1  0.1247599E-009  0.9467200E+02  0.7818608E-02  0.1291917E+00
         -3   -1    0    0    0  501 -0.00000000000E+00  0.00000000000E+00  0.20853947040E+02  0.20854191620E+02  0.10100000000E+00 0.  1.
          3   -1    0    0  501    0  0.00000000000E+00 -0.00000000000E+00 -0.10744624046E+03  0.10744628793E+03  0.10100000000E+00 0. -1.
         23    2    1    2    0    0 -0.35527136788E-14  0.00000000000E+00 -0.86592293418E+02  0.12830047955E+03  0.94672000997E+02 0.  0.
    9000005    2    3    3    0    0  0.31528653698E+02 -0.31456877969E+01  0.39183434367E+01  0.32404041973E+02  0.55423068460E+01 0.  0.
         22    1    3    3    0    0 -0.31528653698E+02  0.31456877969E+01 -0.90510636854E+02  0.95896437574E+02  0.00000000000E+00 0. -1.
         22    1    4    4    0    0  0.95461248773E+01  0.12222857411E+01  0.25182172696E+01  0.99480601537E+01  0.00000000000E+00 0.  1.
         22    1    4    4    0    0  0.21982528821E+02 -0.43679735380E+01  0.14001261671E+01  0.22455981819E+02  0.00000000000E+00 0.  1.
<mgrwt>
<rscale>  0 0.94672001E+02</rscale>
<asrwt>0</asrwt>
<pdfrwt beam="2">  1        3 0.16530213E-01 0.94672001E+02</pdfrwt>
<pdfrwt beam="1">  1       -3 0.32083221E-02 0.94672001E+02</pdfrwt>
<totfact> 0.29504647E+04</totfact>
</mgrwt>
</event>
<event>
 7    1  0.1247599E-009  0.8979054E+02  0.7818608E-02  0.1303360E+00
          3   -1    0    0  501    0  0.00000000000E+00  0.00000000000E+00  0.59234856447E+01  0.59243466461E+01  0.10100000000E+00 0. -1.
         -3   -1    0    0    0  501 -0.00000000000E+00 -0.00000000000E+00 -0.34024455068E+03  0.34024456567E+03  0.10100000000E+00 0.  1.
         23    2    1    2    0    0  0.00000000000E+00  0.00000000000E+00 -0.33432106503E+03  0.34616891231E+03  0.89790541418E+02 0.  0.
    9000005    2    3    3    0    0 -0.33754674708E+02 -0.22922335775E+01 -0.27974113315E+03  0.28195363871E+03  0.99055745652E+01 0.  0.
         22    1    3    3    0    0  0.33754674708E+02  0.22922335775E+01 -0.54579931881E+02  0.64215273600E+02  0.00000000000E+00 0. -1.
         22    1    4    4    0    0 -0.31997952690E+02 -0.43247854285E+01 -0.24681587228E+03  0.24891895780E+03  0.00000000000E+00 0.  1.
         22    1    4    4    0    0 -0.17567220187E+01  0.20325518510E+01 -0.32925260874E+02  0.33034680911E+02  0.00000000000E+00 0.  1.
<mgrwt>
<rscale>  0 0.89790541E+02</rscale>
<asrwt>0</asrwt>
<pdfrwt beam="1">  1        3 0.91137313E-03 0.89790541E+02</pdfrwt>
<pdfrwt beam="2">  1       -3 0.52345368E-01 0.89790541E+02</pdfrwt>
<totfact> 0.23271421E+04</totfact>
</mgrwt>
</event>
<event>
 7    1  0.1247599E-009  0.9120272E+02  0.7818608E-02  0.1299965E+00
         -3   -1    0    0    0  501 -0.00000000000E+00  0.00000000000E+00  0.46621909903E+03  0.46621910997E+03  0.10100000000E+00 0.  1.
          3   -1    0    0  501    0  0.00000000000E+00 -0.00000000000E+00 -0.44597318443E+01  0.44608753763E+01  0.10100000000E+00 0. -1.
         23    2    1    2    0    0  0.00000000000E+00  0.00000000000E+00  0.46175936719E+03  0.47067998535E+03  0.91202716090E+02 0.  0.
    9000005    2    3    3    0    0 -0.35598368125E+02  0.26323779936E+02  0.23071499759E+03  0.23543184842E+03  0.15445385607E+02 0.  0.
         22    1    3    3    0    0  0.35598368125E+02 -0.26323779936E+02  0.23104436960E+03  0.23524813693E+03  0.00000000000E+00 0.  1.
         22    1    4    4    0    0 -0.29342973679E+02  0.27833835812E+02  0.19720828877E+03  0.20131279562E+03  0.00000000000E+00 0.  1.
         22    1    4    4    0    0 -0.62553944454E+01 -0.15100558764E+01  0.33506708819E+02  0.34119052804E+02  0.00000000000E+00 0.  1.
<mgrwt>
<rscale>  0 0.91202716E+02</rscale>
<asrwt>0</asrwt>
<pdfrwt beam="2">  1        3 0.68620140E-03 0.91202716E+02</pdfrwt>
<pdfrwt beam="1">  1       -3 0.71726104E-01 0.91202716E+02</pdfrwt>
<totfact> 0.18610708E+04</totfact>
</mgrwt>
</event>
<event>
 7    1  0.1247599E-009  0.8895005E+02  0.7818608E-02  0.1305414E+00
         -3   -1    0    0    0  501 -0.00000000000E+00  0.00000000000E+00  0.43557971632E+03  0.43557972803E+03  0.10100000000E+00 0.  1.
          3   -1    0    0  501    0  0.00000000000E+00 -0.00000000000E+00 -0.45405648466E+01  0.45416880261E+01  0.10100000000E+00 0. -1.
         23    2    1    2    0    0  0.00000000000E+00  0.00000000000E+00  0.43103915147E+03  0.44012141605E+03  0.88950046476E+02 0.  0.
    9000005    2    3    3    0    0  0.36388652896E+02  0.13226036700E+02  0.31889485338E+03  0.32148160107E+03  0.12547119347E+02 0.  0.
         22    1    3    3    0    0 -0.36388652896E+02 -0.13226036700E+02  0.11214429809E+03  0.11863981499E+03  0.00000000000E+00 0. -1.
         22    1    4    4    0    0  0.23662451077E+02  0.26322148092E+01  0.16742298805E+03  0.16910735370E+03  0.00000000000E+00 0.  1.
         22    1    4    4    0    0  0.12726201819E+02  0.10593821891E+02  0.15147186533E+03  0.15237424737E+03  0.00000000000E+00 0.  1.
<mgrwt>
<rscale>  0 0.88950046E+02</rscale>
<asrwt>0</asrwt>
<pdfrwt beam="2">  1        3 0.69863539E-03 0.88950046E+02</pdfrwt>
<pdfrwt beam="1">  1       -3 0.67012385E-01 0.88950046E+02</pdfrwt>
<totfact> 0.20764904E+04</totfact>
</mgrwt>
</event>
<event>
 7    1  0.1476353E-009  0.7932331E+02  0.7818608E-02  0.1330983E+00
         -3   -1    0    0    0  501 -0.00000000000E+00  0.00000000000E+00  0.90627887685E+02  0.90627943965E+02  0.10100000000E+00 0.  1.
          3   -1    0    0  501    0  0.00000000000E+00 -0.00000000000E+00 -0.17356996243E+02  0.17357290099E+02  0.10100000000E+00 0. -1.
         23    2    1    2    0    0 -0.33306690739E-15  0.00000000000E+00  0.73270891443E+02  0.10798523406E+03  0.79323308321E+02 0.  0.
    9000005    2    3    3    0    0  0.58069721951E+00  0.27429654964E+02  0.74084251507E+02  0.80537379224E+02  0.15654710164E+02 0.  0.
         22    1    3    3    0    0 -0.58069721951E+00 -0.27429654964E+02 -0.81336006379E+00  0.27447854839E+02  0.00000000000E+00 0. -1.
         22    1    4    4    0    0 -0.63111954329E+01  0.64257704488E+01  0.28246126015E+02  0.29647349772E+02  0.00000000000E+00 0. -1.
         22    1    4    4    0    0  0.68918926524E+01  0.21003884515E+02  0.45838125491E+02  0.50890029452E+02  0.00000000000E+00 0. -1.
<mgrwt>
<rscale>  0 0.79323308E+02</rscale>
<asrwt>0</asrwt>
<pdfrwt beam="2">  1        3 0.26703340E-02 0.79323308E+02</pdfrwt>
<pdfrwt beam="1">  1       -3 0.13942779E-01 0.79323308E+02</pdfrwt>
<totfact> 0.49609853E+04</totfact>
</mgrwt>
</event>
<event>
 7    1  0.1247599E-009  0.9046415E+02  0.7818608E-02  0.1301732E+00
         -3   -1    0    0    0  501 -0.00000000000E+00  0.00000000000E+00  0.14578997708E+02  0.14579347556E+02  0.10100000000E+00 0.  1.
          3   -1    0    0  501    0  0.00000000000E+00 -0.00000000000E+00 -0.14033274380E+03  0.14033278015E+03  0.10100000000E+00 0. -1.
         23    2    1    2    0    0  0.00000000000E+00  0.00000000000E+00 -0.12575374610E+03  0.15491212771E+03  0.90464151204E+02 0.  0.
    9000005    2    3    3    0    0 -0.30686559959E+02 -0.32656486259E+02 -0.59748136804E+02  0.75132108184E+02  0.81781887800E+01 0.  0.
         22    1    3    3    0    0  0.30686559959E+02  0.32656486259E+02 -0.66005609292E+02  0.79780019522E+02  0.00000000000E+00 0.  1.
         22    1    4    4    0    0 -0.27992910434E+02 -0.32337683452E+02 -0.55121311634E+02  0.69768816830E+02  0.00000000000E+00 0. -1.
         22    1    4    4    0    0 -0.26936495250E+01 -0.31880280679E+00 -0.46268251695E+01  0.53632913535E+01  0.00000000000E+00 0. -1.
<mgrwt>
<rscale>  0 0.90464151E+02</rscale>
<asrwt>0</asrwt>
<pdfrwt beam="2">  1        3 0.21589682E-01 0.90464151E+02</pdfrwt>
<pdfrwt beam="1">  1       -3 0.22429525E-02 0.90464151E+02</pdfrwt>
<totfact> 0.31673951E+04</totfact>
</mgrwt>
</event>
<event>
 7    1  0.1247599E-009  0.7161894E+02  0.7818608E-02  0.1354673E+00
         -3   -1    0    0    0  501 -0.00000000000E+00  0.00000000000E+00  0.13119339404E+03  0.13119343292E+03  0.10100000000E+00 0.  1.
          3   -1    0    0  501    0  0.00000000000E+00 -0.00000000000E+00 -0.97739570969E+01  0.97744789290E+01  0.10100000000E+00 0. -1.
         23    2    1    2    0    0  0.00000000000E+00  0.00000000000E+00  0.12141943694E+03  0.14096791185E+03  0.71618939554E+02 0.  0.
    9000005    2    3    3    0    0  0.15865567159E+02  0.30370837131E+02  0.67138374661E+02  0.76776497376E+02  0.14593328196E+02 0.  0.
         22    1    3    3    0    0 -0.15865567159E+02 -0.30370837131E+02  0.54281062283E+02  0.64191414472E+02  0.00000000000E+00 0. -1.
         22    1    4    4    0    0  0.10833300169E+02  0.25708436398E+02  0.39887671618E+02  0.48675563085E+02  0.00000000000E+00 0.  1.
         22    1    4    4    0    0  0.50322669902E+01  0.46624007336E+01  0.27250703043E+02  0.28100934291E+02  0.00000000000E+00 0.  1.
<mgrwt>
<rscale>  0 0.71618940E+02</rscale>
<asrwt>0</asrwt>
<pdfrwt beam="2">  1        3 0.15037288E-02 0.71618940E+02</pdfrwt>
<pdfrwt beam="1">  1       -3 0.20183643E-01 0.71618940E+02</pdfrwt>
<totfact> 0.60694806E+04</totfact>
</mgrwt>
</event>
<event>
 7    1  0.1247599E-009  0.1065452E+03  0.7818608E-02  0.1267105E+00
         -3   -1    0    0    0  501 -0.00000000000E+00  0.00000000000E+00  0.30821724718E+01  0.30838268670E+01  0.10100000000E+00 0.  1.
          3   -1    0    0  501    0  0.00000000000E+00 -0.00000000000E+00 -0.92052034080E+03  0.92052034634E+03  0.10100000000E+00 0. -1.
         23    2    1    2    0    0  0.00000000000E+00 -0.17763568394E-14 -0.91743816833E+03  0.92360417321E+03  0.10654518319E+03 0.  0.
    9000005    2    3    3    0    0 -0.29892400307E+01  0.14245165754E+02 -0.90283343699E+03  0.90298480172E+03  0.78407192328E+01 0.  0.
         22    1    3    3    0    0  0.29892400307E+01 -0.14245165754E+02 -0.14604731340E+02  0.20619371494E+02  0.00000000000E+00 0.  1.
         22    1    4    4    0    0 -0.17421564816E+01  0.46511204550E+01 -0.53859172452E+03  0.53861462453E+03  0.00000000000E+00 0. -1.
         22    1    4    4    0    0 -0.12470835491E+01  0.95940452987E+01 -0.36424171247E+03  0.36437017719E+03  0.00000000000E+00 0. -1.
<mgrwt>
<rscale>  0 0.10654518E+03</rscale>
<asrwt>0</asrwt>
<pdfrwt beam="2">  1        3 0.14161842E+00 0.10654518E+03</pdfrwt>
<pdfrwt beam="1">  1       -3 0.47430880E-03 0.10654518E+03</pdfrwt>
<totfact> 0.71476145E+03</totfact>
</mgrwt>
</event>
<event>
 7    1  0.1247599E-009  0.8747624E+02  0.7818608E-02  0.1309081E+00
         -3   -1    0    0    0  501 -0.00000000000E+00  0.00000000000E+00  0.50497512457E+02  0.50497613462E+02  0.10100000000E+00 0.  1.
          3   -1    0    0  501    0  0.00000000000E+00 -0.00000000000E+00 -0.37883304527E+02  0.37883439164E+02  0.10100000000E+00 0. -1.
         23    2    1    2    0    0  0.00000000000E+00  0.71054273576E-14  0.12614207930E+02  0.88381052626E+02  0.87476238039E+02 0.  0.
    9000005    2    3    3    0    0  0.69151572621E+01  0.41218063610E+02 -0.28628992541E+01  0.43813250184E+02  0.12831856133E+02 0.  0.
         22    1    3    3    0    0 -0.69151572621E+01 -0.41218063610E+02  0.15477107184E+02  0.44567802442E+02  0.00000000000E+00 0.  1.
         22    1    4    4    0    0  0.91122859943E+01  0.33139480528E+02  0.14411682351E+01  0.34399649585E+02  0.00000000000E+00 0.  1.
         22    1    4    4    0    0 -0.21971287322E+01  0.80785830824E+01 -0.43040674893E+01  0.94136005989E+01  0.00000000000E+00 0.  1.
<mgrwt>
<rscale>  0 0.87476238E+02</rscale>
<asrwt>0</asrwt>
<pdfrwt beam="2">  1        3 0.58282188E-02 0.87476238E+02</pdfrwt>
<pdfrwt beam="1">  1       -3 0.77688662E-02 0.87476238E+02</pdfrwt>
<totfact> 0.39788738E+04</totfact>
</mgrwt>
</event>
<event>
 7    1  0.1247599E-009  0.9085237E+02  0.7818608E-02  0.1300801E+00
         -3   -1    0    0    0  501 -0.00000000000E+00  0.00000000000E+00  0.10984259822E+03  0.10984264465E+03  0.10100000000E+00 0.  1.
          3   -1    0    0  501    0  0.00000000000E+00 -0.00000000000E+00 -0.18786135724E+02  0.18786407226E+02  0.10100000000E+00 0. -1.
         23    2    1    2    0    0  0.00000000000E+00  0.00000000000E+00  0.91056462495E+02  0.12862905188E+03  0.90852372701E+02 0.  0.
    9000005    2    3    3    0    0 -0.38271393579E+02  0.21604597434E+02  0.54775571760E+02  0.71639919326E+02  0.14158269057E+02 0.  0.
         22    1    3    3    0    0  0.38271393579E+02 -0.21604597434E+02  0.36280890735E+02  0.56989132554E+02  0.00000000000E+00 0.  1.
         22    1    4    4    0    0 -0.19834035188E+02  0.17624531647E+02  0.25407172128E+02  0.36736051274E+02  0.00000000000E+00 0.  1.
         22    1    4    4    0    0 -0.18437358391E+02  0.39800657865E+01  0.29368399632E+02  0.34903868053E+02  0.00000000000E+00 0.  1.
<mgrwt>
<rscale>  0 0.90852373E+02</rscale>
<asrwt>0</asrwt>
<pdfrwt beam="2">  1        3 0.28901992E-02 0.90852373E+02</pdfrwt>
<pdfrwt beam="1">  1       -3 0.16898886E-01 0.90852373E+02</pdfrwt>
<totfact> 0.32985326E+04</totfact>
</mgrwt>
</event>
<event>
 7    1  0.1247599E-009  0.9474629E+02  0.7818608E-02  0.1291749E+00
         -3   -1    0    0    0  501 -0.00000000000E+00  0.00000000000E+00  0.12378222994E+02  0.12378635041E+02  0.10100000000E+00 0.  1.
          3   -1    0    0  501    0  0.00000000000E+00 -0.00000000000E+00 -0.18130005065E+03  0.18130007878E+03  0.10100000000E+00 0. -1.
         23    2    1    2    0    0  0.00000000000E+00  0.00000000000E+00 -0.16892182766E+03  0.19367871382E+03  0.94746294544E+02 0.  0.
    9000005    2    3    3    0    0 -0.45400367933E+02 -0.99290085883E+01 -0.10065267311E+03  0.11109266124E+03  0.71302283091E+01 0.  0.
         22    1    3    3    0    0  0.45400367933E+02  0.99290085883E+01 -0.68269154545E+02  0.82586052589E+02  0.00000000000E+00 0.  1.
         22    1    4    4    0    0 -0.10222229045E+02 -0.53230214360E+01 -0.23541068408E+02  0.26210883725E+02  0.00000000000E+00 0.  1.
         22    1    4    4    0    0 -0.35178138888E+02 -0.46059871523E+01 -0.77111604704E+02  0.84881777510E+02  0.00000000000E+00 0.  1.
<mgrwt>
<rscale>  0 0.94746295E+02</rscale>
<asrwt>0</asrwt>
<pdfrwt beam="2">  1        3 0.27892347E-01 0.94746295E+02</pdfrwt>
<pdfrwt beam="1">  1       -3 0.19043760E-02 0.94746295E+02</pdfrwt>
<totfact> 0.25980745E+04</totfact>
</mgrwt>
</event>
<event>
 7    1  0.1247599E-009  0.9132872E+02  0.7818608E-02  0.1299666E+00
          3   -1    0    0  501    0  0.00000000000E+00  0.00000000000E+00  0.21550190592E+03  0.21550192958E+03  0.10100000000E+00 0. -1.
         -3   -1    0    0    0  501 -0.00000000000E+00 -0.00000000000E+00 -0.96758853989E+01  0.96764125197E+01  0.10100000000E+00 0.  1.
         23    2    1    2    0    0  0.00000000000E+00  0.00000000000E+00  0.20582602052E+03  0.22517834210E+03  0.91328719638E+02 0.  0.
    9000005    2    3    3    0    0  0.12670375317E+02 -0.38182321591E+02  0.56815613374E+02  0.70832854545E+02  0.13071008654E+02 0.  0.
         22    1    3    3    0    0 -0.12670375317E+02  0.38182321591E+02  0.14901040714E+03  0.15434548756E+03  0.00000000000E+00 0. -1.
         22    1    4    4    0    0  0.55080274356E+01 -0.36596330692E+01  0.56632241136E+01  0.87065141012E+01  0.00000000000E+00 0.  1.
         22    1    4    4    0    0  0.71623478814E+01 -0.34522688521E+02  0.51152389260E+02  0.62126340444E+02  0.00000000000E+00 0.  1.
<mgrwt>
<rscale>  0 0.91328720E+02</rscale>
<asrwt>0</asrwt>
<pdfrwt beam="1">  1        3 0.33154180E-01 0.91328720E+02</pdfrwt>
<pdfrwt beam="2">  1       -3 0.14886402E-02 0.91328720E+02</pdfrwt>
<totfact> 0.27125101E+04</totfact>
</mgrwt>
</event>
<event>
 7    1  0.1247599E-009  0.8589717E+02  0.7818608E-02  0.1313103E+00
         -3   -1    0    0    0  501 -0.00000000000E+00  0.00000000000E+00  0.19400766101E+02  0.19401029001E+02  0.10100000000E+00 0.  1.
          3   -1    0    0  501    0  0.00000000000E+00 -0.00000000000E+00 -0.95076805957E+02  0.95076859603E+02  0.10100000000E+00 0. -1.
         23    2    1    2    0    0  0.17763568394E-14 -0.35527136788E-14 -0.75676039856E+02  0.11447788860E+03  0.85897170913E+02 0.  0.
    9000005    2    3    3    0    0  0.93214192489E+01  0.29081792922E+02 -0.77103875321E+02  0.83905380521E+02  0.12746205498E+02 0.  0.
         22    1    3    3    0    0 -0.93214192489E+01 -0.29081792922E+02  0.14278354643E+01  0.30572508083E+02  0.00000000000E+00 0.  1.
         22    1    4    4    0    0 -0.15020572537E+01  0.75055491355E+00 -0.11602929663E+02  0.11723799957E+02  0.00000000000E+00 0.  1.
         22    1    4    4    0    0  0.10823476503E+02  0.28331238008E+02 -0.65500945658E+02  0.72181580565E+02  0.00000000000E+00 0.  1.
<mgrwt>
<rscale>  0 0.85897171E+02</rscale>
<asrwt>0</asrwt>
<pdfrwt beam="2">  1        3 0.14627225E-01 0.85897171E+02</pdfrwt>
<pdfrwt beam="1">  1       -3 0.29847576E-02 0.85897171E+02</pdfrwt>
<totfact> 0.39514006E+04</totfact>
</mgrwt>
</event>
<event>
 7    1  0.1247599E-009  0.9522560E+02  0.7818608E-02  0.1290669E+00
         -3   -1    0    0    0  501 -0.00000000000E+00  0.00000000000E+00  0.30619407969E+02  0.30619574546E+02  0.10100000000E+00 0.  1.
          3   -1    0    0  501    0  0.00000000000E+00 -0.00000000000E+00 -0.74036912153E+02  0.74036981044E+02  0.10100000000E+00 0. -1.
         23    2    1    2    0    0  0.00000000000E+00  0.71054273576E-14 -0.43417504184E+02  0.10465655559E+03  0.95225600331E+02 0.  0.
    9000005    2    3    3    0    0 -0.52501065483E+01 -0.41707954330E+02  0.57285711098E+00  0.43810282409E+02  0.12324593556E+02 0.  0.
         22    1    3    3    0    0  0.52501065483E+01  0.41707954330E+02 -0.43990361295E+02  0.60846273181E+02  0.00000000000E+00 0. -1.
         22    1    4    4    0    0  0.19080933870E+01 -0.30157714176E+02  0.39671409616E+00  0.30220620887E+02  0.00000000000E+00 0.  1.
         22    1    4    4    0    0 -0.71581999354E+01 -0.11550240154E+02  0.17614301482E+00  0.13589661522E+02  0.00000000000E+00 0.  1.
<mgrwt>
<rscale>  0 0.95225600E+02</rscale>
<asrwt>0</asrwt>
<pdfrwt beam="2">  1        3 0.11390312E-01 0.95225600E+02</pdfrwt>
<pdfrwt beam="1">  1       -3 0.47106963E-02 0.95225600E+02</pdfrwt>
<totfact> 0.30487588E+04</totfact>
</mgrwt>
</event>
<event>
 7    1  0.1247599E-009  0.9177552E+02  0.7818608E-02  0.1298608E+00
          3   -1    0    0  501    0  0.00000000000E+00  0.00000000000E+00  0.46124214554E+02  0.46124325135E+02  0.10100000000E+00 0. -1.
         -3   -1    0    0    0  501 -0.00000000000E+00 -0.00000000000E+00 -0.45652295658E+02  0.45652407383E+02  0.10100000000E+00 0.  1.
         23    2    1    2    0    0  0.35527136788E-14 -0.35527136788E-14  0.47191889554E+00  0.91776732519E+02  0.91775519199E+02 0.  0.
    9000005    2    3    3    0    0  0.16235211087E+02 -0.24291555778E+02 -0.35140577712E+02  0.45712519991E+02  0.10547610198E+01 0.  0.
         22    1    3    3    0    0 -0.16235211087E+02  0.24291555778E+02  0.35612496608E+02  0.46064212528E+02  0.00000000000E+00 0. -1.
         22    1    4    4    0    0  0.15504135051E+02 -0.23526921020E+02 -0.33754429228E+02  0.43968803814E+02  0.00000000000E+00 0.  1.
         22    1    4    4    0    0  0.73107603635E+00 -0.76463475797E+00 -0.13861484845E+01  0.17437161768E+01  0.00000000000E+00 0.  1.
<mgrwt>
<rscale>  0 0.91775519E+02</rscale>
<asrwt>0</asrwt>
<pdfrwt beam="1">  1        3 0.70960501E-02 0.91775519E+02</pdfrwt>
<pdfrwt beam="2">  1       -3 0.70234472E-02 0.91775519E+02</pdfrwt>
<totfact> 0.34667382E+04</totfact>
</mgrwt>
</event>
<event>
 7    1  0.1247599E-009  0.9093043E+02  0.7818608E-02  0.1300614E+00
         -3   -1    0    0    0  501 -0.00000000000E+00  0.00000000000E+00  0.15901718983E+03  0.15901722191E+03  0.10100000000E+00 0.  1.
          3   -1    0    0  501    0  0.00000000000E+00 -0.00000000000E+00 -0.12998904929E+02  0.12999297302E+02  0.10100000000E+00 0. -1.
         23    2    1    2    0    0 -0.17763568394E-14  0.35527136788E-14  0.14601828491E+03  0.17201651921E+03  0.90930431401E+02 0.  0.
    9000005    2    3    3    0    0  0.93382206802E+01 -0.24619560719E+02  0.14289725321E+03  0.14550112794E+03  0.75913188786E+01 0.  0.
         22    1    3    3    0    0 -0.93382206802E+01  0.24619560719E+02  0.31210317006E+01  0.26515391273E+02  0.00000000000E+00 0. -1.
         22    1    4    4    0    0  0.49081171271E+01 -0.86808058623E+01  0.72709298757E+02  0.73389972952E+02  0.00000000000E+00 0.  1.
         22    1    4    4    0    0  0.44301035530E+01 -0.15938754857E+02  0.70187954449E+02  0.72111154987E+02  0.00000000000E+00 0.  1.
<mgrwt>
<rscale>  0 0.90930431E+02</rscale>
<asrwt>0</asrwt>
<pdfrwt beam="2">  1        3 0.19998641E-02 0.90930431E+02</pdfrwt>
<pdfrwt beam="1">  1       -3 0.24464217E-01 0.90930431E+02</pdfrwt>
<totfact> 0.30232629E+04</totfact>
</mgrwt>
</event>
<event>
 7    1  0.1247599E-009  0.9677192E+02  0.7818608E-02  0.1287234E+00
          3   -1    0    0  501    0  0.00000000000E+00  0.00000000000E+00  0.23729979220E+02  0.23730194158E+02  0.10100000000E+00 0. -1.
         -3   -1    0    0    0  501 -0.00000000000E+00 -0.00000000000E+00 -0.98659369130E+02  0.98659420828E+02  0.10100000000E+00 0.  1.
         23    2    1    2    0    0  0.00000000000E+00  0.00000000000E+00 -0.74929389910E+02  0.12238961499E+03  0.96771919399E+02 0.  0.
    9000005    2    3    3    0    0  0.15948659157E+02  0.44820388728E+02 -0.30501557963E+02  0.57296917806E+02  0.94532945201E+01 0.  0.
         22    1    3    3    0    0 -0.15948659157E+02 -0.44820388728E+02 -0.44427831947E+02  0.65092697180E+02  0.00000000000E+00 0. -1.
         22    1    4    4    0    0  0.91173757773E+01  0.19826768445E+02 -0.19053956199E+02  0.28970338881E+02  0.00000000000E+00 0.  1.
         22    1    4    4    0    0  0.68312833795E+01  0.24993620283E+02 -0.11447601764E+02  0.28326578925E+02  0.00000000000E+00 0.  1.
<mgrwt>
<rscale>  0 0.96771919E+02</rscale>
<asrwt>0</asrwt>
<pdfrwt beam="1">  1        3 0.36507866E-02 0.96771919E+02</pdfrwt>
<pdfrwt beam="2">  1       -3 0.15178385E-01 0.96771919E+02</pdfrwt>
<totfact> 0.28123126E+04</totfact>
</mgrwt>
</event>
<event>
 7    1  0.1247599E-009  0.9233145E+02  0.7818608E-02  0.1297302E+00
          3   -1    0    0  501    0  0.00000000000E+00  0.00000000000E+00  0.51993962219E+02  0.51994060317E+02  0.10100000000E+00 0. -1.
         -3   -1    0    0    0  501 -0.00000000000E+00 -0.00000000000E+00 -0.40990602982E+02  0.40990727413E+02  0.10100000000E+00 0.  1.
         23    2    1    2    0    0  0.00000000000E+00  0.00000000000E+00  0.11003359237E+02  0.92984787729E+02  0.92331450950E+02 0.  0.
    9000005    2    3    3    0    0 -0.10901438263E+02  0.44002714809E+02  0.27277815065E+01  0.46902627911E+02  0.11719020701E+02 0.  0.
         22    1    3    3    0    0  0.10901438263E+02 -0.44002714809E+02  0.82755777302E+01  0.46082159819E+02  0.00000000000E+00 0.  1.
         22    1    4    4    0    0 -0.96258031616E+01  0.41025955088E+02  0.56790790902E+01  0.42521018529E+02  0.00000000000E+00 0.  1.
         22    1    4    4    0    0 -0.12756351011E+01  0.29767597208E+01 -0.29512975837E+01  0.43816093818E+01  0.00000000000E+00 0.  1.
<mgrwt>
<rscale>  0 0.92331451E+02</rscale>
<asrwt>0</asrwt>
<pdfrwt beam="1">  1        3 0.79990883E-02 0.92331451E+02</pdfrwt>
<pdfrwt beam="2">  1       -3 0.63062637E-02 0.92331451E+02</pdfrwt>
<totfact> 0.34011233E+04</totfact>
</mgrwt>
</event>
<event>
 7    1  0.1247599E-009  0.9188444E+02  0.7818608E-02  0.1298351E+00
          3   -1    0    0  501    0  0.00000000000E+00  0.00000000000E+00  0.15527106179E+03  0.15527109464E+03  0.10100000000E+00 0. -1.
         -3   -1    0    0    0  501 -0.00000000000E+00 -0.00000000000E+00 -0.13593344860E+02  0.13593720075E+02  0.10100000000E+00 0.  1.
         23    2    1    2    0    0  0.35527136788E-14  0.88817841970E-15  0.14167771693E+03  0.16886481471E+03  0.91884439237E+02 0.  0.
    9000005    2    3    3    0    0  0.30441809067E+02  0.79532664814E+01  0.13126159112E+03  0.13572188389E+03  0.14172729940E+02 0.  0.
         22    1    3    3    0    0 -0.30441809067E+02 -0.79532664814E+01  0.10416125804E+02  0.33142930827E+02  0.00000000000E+00 0. -1.
         22    1    4    4    0    0  0.34335205966E+01  0.65052742205E+01  0.23941259516E+02  0.25045789338E+02  0.00000000000E+00 0. -1.
         22    1    4    4    0    0  0.27008288471E+02  0.14479922609E+01  0.10732033161E+03  0.11067609455E+03  0.00000000000E+00 0. -1.
<mgrwt>
<rscale>  0 0.91884439E+02</rscale>
<asrwt>0</asrwt>
<pdfrwt beam="1">  1        3 0.23887886E-01 0.91884439E+02</pdfrwt>
<pdfrwt beam="2">  1       -3 0.20913153E-02 0.91884439E+02</pdfrwt>
<totfact> 0.29565488E+04</totfact>
</mgrwt>
</event>
<event>
 7    1  0.1247599E-009  0.8568678E+02  0.7818608E-02  0.1313646E+00
         -3   -1    0    0    0  501 -0.00000000000E+00  0.00000000000E+00  0.10982731473E+03  0.10982736117E+03  0.10100000000E+00 0. -1.
          3   -1    0    0  501    0  0.00000000000E+00 -0.00000000000E+00 -0.16712909839E+02  0.16713215019E+02  0.10100000000E+00 0.  1.
         23    2    1    2    0    0  0.00000000000E+00  0.00000000000E+00  0.93114404888E+02  0.12654057619E+03  0.85686784419E+02 0.  0.
    9000005    2    3    3    0    0 -0.14804304095E+02 -0.34742931653E+02  0.18813368616E+02  0.43192614541E+02  0.92423153253E+01 0.  0.
         22    1    3    3    0    0  0.14804304095E+02  0.34742931653E+02  0.74301036272E+02  0.83347961647E+02  0.00000000000E+00 0. -1.
         22    1    4    4    0    0 -0.10409808875E+01 -0.40998451665E+01 -0.78394045677E+00  0.43019686467E+01  0.00000000000E+00 0. -1.
         22    1    4    4    0    0 -0.13763323208E+02 -0.30643086486E+02  0.19597309073E+02  0.38890645894E+02  0.00000000000E+00 0. -1.
<mgrwt>
<rscale>  0 0.85686784E+02</rscale>
<asrwt>0</asrwt>
<pdfrwt beam="2">  1        3 0.25712439E-02 0.85686784E+02</pdfrwt>
<pdfrwt beam="1">  1       -3 0.16896538E-01 0.85686784E+02</pdfrwt>
<totfact> 0.38795756E+04</totfact>
</mgrwt>
</event>
<event>
 7    1  0.1247599E-009  0.9022047E+02  0.7818608E-02  0.1302319E+00
         -3   -1    0    0    0  501 -0.00000000000E+00  0.00000000000E+00  0.13424348049E+02  0.13424727987E+02  0.10100000000E+00 0.  1.
          3   -1    0    0  501    0  0.00000000000E+00 -0.00000000000E+00 -0.15158273533E+03  0.15158276897E+03  0.10100000000E+00 0. -1.
         23    2    1    2    0    0 -0.35527136788E-14  0.00000000000E+00 -0.13815838728E+03  0.16500749696E+03  0.90220474830E+02 0.  0.
    9000005    2    3    3    0    0 -0.23062391784E+02  0.89082928539E+00 -0.13985785305E+03  0.14186542109E+03  0.57368239327E+01 0.  0.
         22    1    3    3    0    0  0.23062391784E+02 -0.89082928539E+00  0.16994657785E+01  0.23142075869E+02  0.00000000000E+00 0.  1.
         22    1    4    4    0    0 -0.56385724593E+00  0.38551320290E+00 -0.13637234629E+02  0.13654329853E+02  0.00000000000E+00 0.  1.
         22    1    4    4    0    0 -0.22498534538E+02  0.50531608249E+00 -0.12622061843E+03  0.12821109124E+03  0.00000000000E+00 0.  1.
<mgrwt>
<rscale>  0 0.90220475E+02</rscale>
<asrwt>0</asrwt>
<pdfrwt beam="2">  1        3 0.23320451E-01 0.90220475E+02</pdfrwt>
<pdfrwt beam="1">  1       -3 0.20653162E-02 0.90220475E+02</pdfrwt>
<totfact> 0.31291755E+04</totfact>
</mgrwt>
</event>
<event>
 7    1  0.1247599E-009  0.9481603E+02  0.7818608E-02  0.1291591E+00
          3   -1    0    0  501    0  0.00000000000E+00  0.00000000000E+00  0.38250487462E+02  0.38250620806E+02  0.10100000000E+00 0. -1.
         -3   -1    0    0    0  501 -0.00000000000E+00 -0.00000000000E+00 -0.58757661907E+02  0.58757748712E+02  0.10100000000E+00 0.  1.
         23    2    1    2    0    0 -0.35527136788E-14  0.00000000000E+00 -0.20507174445E+02  0.97008369519E+02  0.94816030042E+02 0.  0.
    9000005    2    3    3    0    0 -0.16542035240E+02  0.35382176358E+01 -0.54556292857E+02  0.58988632821E+02  0.14734714039E+02 0.  0.
         22    1    3    3    0    0  0.16542035240E+02 -0.35382176358E+01  0.34049118413E+02  0.38019736698E+02  0.00000000000E+00 0. -1.
         22    1    4    4    0    0 -0.14951457934E+02  0.31637388476E+01 -0.55166616518E+02  0.57244309027E+02  0.00000000000E+00 0.  1.
         22    1    4    4    0    0 -0.15905773055E+01  0.37447878822E+00  0.61032366102E+00  0.17443237941E+01  0.00000000000E+00 0.  1.
<mgrwt>
<rscale>  0 0.94816030E+02</rscale>
<asrwt>0</asrwt>
<pdfrwt beam="1">  1        3 0.58847073E-02 0.94816030E+02</pdfrwt>
<pdfrwt beam="2">  1       -3 0.90396572E-02 0.94816030E+02</pdfrwt>
<totfact> 0.31356280E+04</totfact>
</mgrwt>
</event>
<event>
 7    1  0.1247599E-009  0.9118875E+02  0.7818608E-02  0.1299998E+00
          3   -1    0    0  501    0  0.00000000000E+00  0.00000000000E+00  0.23572850455E+03  0.23572852619E+03  0.10100000000E+00 0. -1.
         -3   -1    0    0    0  501 -0.00000000000E+00 -0.00000000000E+00 -0.88185077642E+01  0.88190861310E+01  0.10100000000E+00 0.  1.
         23    2    1    2    0    0  0.00000000000E+00  0.71054273576E-14  0.22690999679E+03  0.24454761232E+03  0.91188749577E+02 0.  0.
    9000005    2    3    3    0    0  0.23492661391E+02  0.33600823624E+02  0.16500437149E+03  0.17029650505E+03  0.96714287505E+01 0.  0.
         22    1    3    3    0    0 -0.23492661391E+02 -0.33600823624E+02  0.61905625303E+02  0.74251107275E+02  0.00000000000E+00 0.  1.
         22    1    4    4    0    0  0.10529460369E+01 -0.60229722635E+00  0.43683520904E+01  0.45336472394E+01  0.00000000000E+00 0.  1.
         22    1    4    4    0    0  0.22439715354E+02  0.34203120850E+02  0.16063601940E+03  0.16576285781E+03  0.00000000000E+00 0.  1.
<mgrwt>
<rscale>  0 0.91188750E+02</rscale>
<asrwt>0</asrwt>
<pdfrwt beam="1">  1        3 0.36265972E-01 0.91188750E+02</pdfrwt>
<pdfrwt beam="2">  1       -3 0.13567396E-02 0.91188750E+02</pdfrwt>
<totfact> 0.26338637E+04</totfact>
</mgrwt>
</event>
<event>
 7    1  0.1247599E-009  0.9168708E+02  0.7818608E-02  0.1298817E+00
         -3   -1    0    0    0  501 -0.00000000000E+00  0.00000000000E+00  0.12078140927E+03  0.12078145150E+03  0.10100000000E+00 0.  1.
          3   -1    0    0  501    0  0.00000000000E+00 -0.00000000000E+00 -0.17400087495E+02  0.17400380624E+02  0.10100000000E+00 0. -1.
         23    2    1    2    0    0  0.17763568394E-14  0.00000000000E+00  0.10338132177E+03  0.13818183212E+03  0.91687082169E+02 0.  0.
    9000005    2    3    3    0    0 -0.14506986045E+02 -0.43268179556E+02  0.51209380093E+02  0.68867335045E+02  0.61417603713E+01 0.  0.
         22    1    3    3    0    0  0.14506986045E+02  0.43268179556E+02  0.52171941678E+02  0.69314497074E+02  0.00000000000E+00 0.  1.
         22    1    4    4    0    0 -0.78511903245E+01 -0.14547894083E+02  0.19681099266E+02  0.25702686243E+02  0.00000000000E+00 0. -1.
         22    1    4    4    0    0 -0.66557957208E+01 -0.28720285473E+02  0.31528280827E+02  0.43164648802E+02  0.00000000000E+00 0. -1.
<mgrwt>
<rscale>  0 0.91687082E+02</rscale>
<asrwt>0</asrwt>
<pdfrwt beam="2">  1        3 0.26769623E-02 0.91687082E+02</pdfrwt>
<pdfrwt beam="1">  1       -3 0.18581781E-01 0.91687082E+02</pdfrwt>
<totfact> 0.31565261E+04</totfact>
</mgrwt>
</event>
<event>
 7    1  0.1247599E-009  0.8826769E+02  0.7818608E-02  0.1307102E+00
         -3   -1    0    0    0  501 -0.00000000000E+00  0.00000000000E+00  0.20109746290E+03  0.20109748827E+03  0.10100000000E+00 0.  1.
          3   -1    0    0  501    0  0.00000000000E+00 -0.00000000000E+00 -0.96855420506E+01  0.96860686459E+01  0.10100000000E+00 0. -1.
         23    2    1    2    0    0 -0.35527136788E-14 -0.17763568394E-14  0.19141192085E+03  0.21078355691E+03  0.88267686161E+02 0.  0.
    9000005    2    3    3    0    0  0.18250013049E+02  0.15342922011E+02  0.18416412065E+03  0.18586370860E+03  0.77734552866E+01 0.  0.
         22    1    3    3    0    0 -0.18250013049E+02 -0.15342922011E+02  0.72478002005E+01  0.24919848312E+02  0.00000000000E+00 0. -1.
         22    1    4    4    0    0  0.10992481373E+02  0.11980830229E+02  0.99173770014E+02  0.10049781887E+03  0.00000000000E+00 0. -1.
         22    1    4    4    0    0  0.72575316760E+01  0.33620917828E+01  0.84990350639E+02  0.85365889727E+02  0.00000000000E+00 0. -1.
<mgrwt>
<rscale>  0 0.88267686E+02</rscale>
<asrwt>0</asrwt>
<pdfrwt beam="2">  1        3 0.14901259E-02 0.88267686E+02</pdfrwt>
<pdfrwt beam="1">  1       -3 0.30938112E-01 0.88267686E+02</pdfrwt>
<totfact> 0.30493529E+04</totfact>
</mgrwt>
</event>
<event>
 7    1  0.1247599E-009  0.9186225E+02  0.7818608E-02  0.1298404E+00
          3   -1    0    0  501    0  0.00000000000E+00  0.00000000000E+00  0.23246758475E+03  0.23246760669E+03  0.10100000000E+00 0.  1.
         -3   -1    0    0    0  501 -0.00000000000E+00 -0.00000000000E+00 -0.90748033638E+01  0.90753653971E+01  0.10100000000E+00 0. -1.
         23    2    1    2    0    0  0.00000000000E+00  0.00000000000E+00  0.22339278138E+03  0.24154297208E+03  0.91862247901E+02 0.  0.
    9000005    2    3    3    0    0  0.34951074498E+02 -0.22157845884E+02  0.16358339738E+03  0.16881257845E+03  0.50607314913E+01 0.  0.
         22    1    3    3    0    0 -0.34951074498E+02  0.22157845884E+02  0.59809384004E+02  0.72730393632E+02  0.00000000000E+00 0. -1.
         22    1    4    4    0    0  0.19056847628E+02 -0.95863904889E+01  0.78214840211E+02  0.81071718579E+02  0.00000000000E+00 0. -1.
         22    1    4    4    0    0  0.15894226871E+02 -0.12571455395E+02  0.85368557168E+02  0.87740859874E+02  0.00000000000E+00 0. -1.
<mgrwt>
<rscale>  0 0.91862248E+02</rscale>
<asrwt>0</asrwt>
<pdfrwt beam="1">  1        3 0.35764285E-01 0.91862248E+02</pdfrwt>
<pdfrwt beam="2">  1       -3 0.13961687E-02 0.91862248E+02</pdfrwt>
<totfact> 0.25954651E+04</totfact>
</mgrwt>
</event>
<event>
 7    1  0.1247599E-009  0.8937197E+02  0.7818608E-02  0.1304380E+00
         -3   -1    0    0    0  501 -0.00000000000E+00  0.00000000000E+00  0.40042979339E+02  0.40043106714E+02  0.10100000000E+00 0.  1.
          3   -1    0    0  501    0  0.00000000000E+00 -0.00000000000E+00 -0.49867088158E+02  0.49867190440E+02  0.10100000000E+00 0. -1.
         23    2    1    2    0    0  0.00000000000E+00  0.17763568394E-14 -0.98241088196E+01  0.89910297154E+02  0.89371966635E+02 0.  0.
    9000005    2    3    3    0    0  0.36711630319E+02  0.15758299846E+02 -0.22997393650E+02  0.47843644709E+02  0.12808841072E+02 0.  0.
         22    1    3    3    0    0 -0.36711630319E+02 -0.15758299846E+02  0.13173284830E+02  0.42066652445E+02  0.00000000000E+00 0. -1.
         22    1    4    4    0    0  0.24056624447E+02  0.12170155911E+02 -0.84997278306E+01  0.28267989810E+02  0.00000000000E+00 0. -1.
         22    1    4    4    0    0  0.12655005872E+02  0.35881439352E+01 -0.14497665819E+02  0.19575654899E+02  0.00000000000E+00 0. -1.
<mgrwt>
<rscale>  0 0.89371967E+02</rscale>
<asrwt>0</asrwt>
<pdfrwt beam="2">  1        3 0.76718774E-02 0.89371967E+02</pdfrwt>
<pdfrwt beam="1">  1       -3 0.61604760E-02 0.89371967E+02</pdfrwt>
<totfact> 0.37415646E+04</totfact>
</mgrwt>
</event>
<event>
 7    1  0.1247599E-009  0.9316751E+02  0.7818608E-02  0.1295357E+00
          3   -1    0    0  501    0  0.00000000000E+00  0.00000000000E+00  0.81445797344E+02  0.81445859969E+02  0.10100000000E+00 0. -1.
         -3   -1    0    0    0  501 -0.00000000000E+00 -0.00000000000E+00 -0.26643886342E+02  0.26644077773E+02  0.10100000000E+00 0.  1.
         23    2    1    2    0    0  0.71054273576E-14  0.00000000000E+00  0.54801911003E+02  0.10808993774E+03  0.93167511460E+02 0.  0.
    9000005    2    3    3    0    0  0.39986323060E+02 -0.91344046143E+01  0.51962326711E+02  0.66975382917E+02  0.10162437705E+02 0.  0.
         22    1    3    3    0    0 -0.39986323060E+02  0.91344046143E+01  0.28395842920E+01  0.41114554825E+02  0.00000000000E+00 0.  1.
         22    1    4    4    0    0  0.23460397850E+02 -0.98830272582E+01  0.27826831875E+02  0.37714679731E+02  0.00000000000E+00 0. -1.
         22    1    4    4    0    0  0.16525925211E+02  0.74862264394E+00  0.24135494836E+02  0.29260703185E+02  0.00000000000E+00 0. -1.
<mgrwt>
<rscale>  0 0.93167511E+02</rscale>
<asrwt>0</asrwt>
<pdfrwt beam="1">  1        3 0.12530142E-01 0.93167511E+02</pdfrwt>
<pdfrwt beam="2">  1       -3 0.40990790E-02 0.93167511E+02</pdfrwt>
<totfact> 0.32132195E+04</totfact>
</mgrwt>
</event>
<event>
 7    1  0.1247599E-009  0.9185102E+02  0.7818608E-02  0.1298430E+00
         -3   -1    0    0    0  501 -0.00000000000E+00  0.00000000000E+00  0.81180768052E+01  0.81187050701E+01  0.10100000000E+00 0. -1.
          3   -1    0    0  501    0  0.00000000000E+00 -0.00000000000E+00 -0.25979869549E+03  0.25979871512E+03  0.10100000000E+00 0.  1.
         23    2    1    2    0    0 -0.88817841970E-15  0.00000000000E+00 -0.25168061869E+03  0.26791742019E+03  0.91851021884E+02 0.  0.
    9000005    2    3    3    0    0  0.76520677683E+01 -0.18133916236E+02 -0.24672841827E+03  0.24762167315E+03  0.73612207026E+01 0.  0.
         22    1    3    3    0    0 -0.76520677683E+01  0.18133916236E+02 -0.49522004129E+01  0.20295747045E+02  0.00000000000E+00 0. -1.
         22    1    4    4    0    0  0.66085774331E+01 -0.80251285210E+01 -0.99071725273E+02  0.99615675132E+02  0.00000000000E+00 0.  1.
         22    1    4    4    0    0  0.10434903353E+01 -0.10108787715E+02 -0.14765669300E+03  0.14800599802E+03  0.00000000000E+00 0.  1.
<mgrwt>
<rscale>  0 0.91851022E+02</rscale>
<asrwt>0</asrwt>
<pdfrwt beam="2">  1        3 0.39969074E-01 0.91851022E+02</pdfrwt>
<pdfrwt beam="1">  1       -3 0.12489849E-02 0.91851022E+02</pdfrwt>
<totfact> 0.24830555E+04</totfact>
</mgrwt>
</event>
<event>
 7    1  0.1247599E-009  0.9661216E+02  0.7818608E-02  0.1287586E+00
         -3   -1    0    0    0  501 -0.00000000000E+00  0.00000000000E+00  0.18124002315E+03  0.18124005129E+03  0.10100000000E+00 0.  1.
          3   -1    0    0  501    0  0.00000000000E+00 -0.00000000000E+00 -0.12874840280E+02  0.12875236434E+02  0.10100000000E+00 0. -1.
         23    2    1    2    0    0  0.00000000000E+00  0.35527136788E-14  0.16836518287E+03  0.19411528772E+03  0.96612163446E+02 0.  0.
    9000005    2    3    3    0    0  0.36300089311E+02  0.23848379663E+02  0.48241840957E+02  0.66380958084E+02  0.13882171324E+02 0.  0.
         22    1    3    3    0    0 -0.36300089311E+02 -0.23848379663E+02  0.12012334191E+03  0.12773432964E+03  0.00000000000E+00 0.  1.
         22    1    4    4    0    0  0.29986948565E+01  0.76554198133E+01  0.12162442799E+02  0.14680689296E+02  0.00000000000E+00 0.  1.
         22    1    4    4    0    0  0.33301394455E+02  0.16192959850E+02  0.36079398158E+02  0.51700268788E+02  0.00000000000E+00 0.  1.
<mgrwt>
<rscale>  0 0.96612163E+02</rscale>
<asrwt>0</asrwt>
<pdfrwt beam="2">  1        3 0.19807773E-02 0.96612163E+02</pdfrwt>
<pdfrwt beam="1">  1       -3 0.27883113E-01 0.96612163E+02</pdfrwt>
<totfact> 0.24619543E+04</totfact>
</mgrwt>
</event>
<event>
 7    1  0.1247599E-009  0.9122008E+02  0.7818608E-02  0.1299924E+00
          3   -1    0    0  501    0  0.00000000000E+00  0.00000000000E+00  0.39382734526E+02  0.39382864037E+02  0.10100000000E+00 0. -1.
         -3   -1    0    0    0  501 -0.00000000000E+00 -0.00000000000E+00 -0.52821762592E+02  0.52821859152E+02  0.10100000000E+00 0.  1.
         23    2    1    2    0    0  0.00000000000E+00  0.00000000000E+00 -0.13439028066E+02  0.92204723189E+02  0.91220082784E+02 0.  0.
    9000005    2    3    3    0    0 -0.21483579173E+02 -0.35554832715E+02 -0.22900782712E+02  0.49599381923E+02  0.14490084017E+02 0.  0.
         22    1    3    3    0    0  0.21483579173E+02  0.35554832715E+02  0.94617546468E+01  0.42605341267E+02  0.00000000000E+00 0. -1.
         22    1    4    4    0    0 -0.20808739433E+02 -0.25043922234E+02 -0.12739322953E+02  0.34964153457E+02  0.00000000000E+00 0.  1.
         22    1    4    4    0    0 -0.67483973970E+00 -0.10510910480E+02 -0.10161459759E+02  0.14635228465E+02  0.00000000000E+00 0.  1.
<mgrwt>
<rscale>  0 0.91220083E+02</rscale>
<asrwt>0</asrwt>
<pdfrwt beam="1">  1        3 0.60588996E-02 0.91220083E+02</pdfrwt>
<pdfrwt beam="2">  1       -3 0.81264424E-02 0.91220083E+02</pdfrwt>
<totfact> 0.35214923E+04</totfact>
</mgrwt>
</event>
<event>
 7    1  0.1247599E-009  0.9084492E+02  0.7818608E-02  0.1300818E+00
         -3   -1    0    0    0  501 -0.00000000000E+00  0.00000000000E+00  0.10021595058E+04  0.10021595109E+04  0.10100000000E+00 0.  1.
          3   -1    0    0  501    0  0.00000000000E+00 -0.00000000000E+00 -0.20575100836E+01  0.20599875592E+01  0.10100000000E+00 0. -1.
         23    2    1    2    0    0 -0.35527136788E-14  0.17763568394E-14  0.10001019957E+04  0.10042194984E+04  0.90844918563E+02 0.  0.
    9000005    2    3    3    0    0 -0.18258269747E+02  0.15864508490E+02  0.92442893154E+03  0.92477480268E+03  0.73850633303E+01 0.  0.
         22    1    3    3    0    0  0.18258269747E+02 -0.15864508490E+02  0.75673064160E+02  0.79444695752E+02  0.00000000000E+00 0. -1.
         22    1    4    4    0    0 -0.85975491849E+01  0.87584306474E+01  0.59738036131E+03  0.59750642176E+03  0.00000000000E+00 0.  1.
         22    1    4    4    0    0 -0.96607205620E+01  0.71060778424E+01  0.32704857023E+03  0.32726838093E+03  0.00000000000E+00 0.  1.
<mgrwt>
<rscale>  0 0.90844919E+02</rscale>
<asrwt>0</asrwt>
<pdfrwt beam="2">  1        3 0.31673117E-03 0.90844919E+02</pdfrwt>
<pdfrwt beam="1">  1       -3 0.15417848E+00 0.90844919E+02</pdfrwt>
<totfact> 0.10033190E+04</totfact>
</mgrwt>
</event>
<event>
 7    1  0.1247599E-009  0.8959283E+02  0.7818608E-02  0.1303841E+00
          3   -1    0    0  501    0  0.00000000000E+00  0.00000000000E+00  0.12453440854E+02  0.12453850413E+02  0.10100000000E+00 0. -1.
         -3   -1    0    0    0  501 -0.00000000000E+00 -0.00000000000E+00 -0.16113461645E+03  0.16113464811E+03  0.10100000000E+00 0.  1.
         23    2    1    2    0    0  0.17763568394E-14 -0.44408920985E-15 -0.14868117560E+03  0.17358849852E+03  0.89592828066E+02 0.  0.
    9000005    2    3    3    0    0  0.13624882268E+02 -0.23871815321E+01 -0.15680681477E+03  0.15754599047E+03  0.64051467439E+01 0.  0.
         22    1    3    3    0    0 -0.13624882268E+02  0.23871815321E+01  0.81256391682E+01  0.16042508045E+02  0.00000000000E+00 0. -1.
         22    1    4    4    0    0 -0.37295087337E+00  0.25764306699E+00 -0.11121670162E+01  0.12009944945E+01  0.00000000000E+00 0.  1.
         22    1    4    4    0    0  0.13997833141E+02 -0.26448245991E+01 -0.15569464775E+03  0.15634499598E+03  0.00000000000E+00 0.  1.
<mgrwt>
<rscale>  0 0.89592828E+02</rscale>
<asrwt>0</asrwt>
<pdfrwt beam="1">  1        3 0.19159480E-02 0.89592828E+02</pdfrwt>
<pdfrwt beam="2">  1       -3 0.24789973E-01 0.89592828E+02</pdfrwt>
<totfact> 0.31371392E+04</totfact>
</mgrwt>
</event>
<event>
 7    1  0.1247599E-009  0.8853453E+02  0.7818608E-02  0.1306440E+00
         -3   -1    0    0    0  501 -0.00000000000E+00  0.00000000000E+00  0.11316828075E+02  0.11317278767E+02  0.10100000000E+00 0.  1.
          3   -1    0    0  501    0  0.00000000000E+00 -0.00000000000E+00 -0.17315334840E+03  0.17315337786E+03  0.10100000000E+00 0. -1.
         23    2    1    2    0    0  0.00000000000E+00  0.00000000000E+00 -0.16183652033E+03  0.18447065663E+03  0.88534534757E+02 0.  0.
    9000005    2    3    3    0    0  0.68373012851E+01 -0.14840857162E+02 -0.16622237536E+03  0.16755216218E+03  0.13298467915E+02 0.  0.
         22    1    3    3    0    0 -0.68373012851E+01  0.14840857162E+02  0.43858550324E+01  0.16918494452E+02  0.00000000000E+00 0.  1.
         22    1    4    4    0    0  0.79423352307E+00 -0.10733579096E+01 -0.81174415551E+02  0.81185396742E+02  0.00000000000E+00 0. -1.
         22    1    4    4    0    0  0.60430677620E+01 -0.13767499252E+02 -0.85047959810E+02  0.86366765434E+02  0.00000000000E+00 0. -1.
<mgrwt>
<rscale>  0 0.88534535E+02</rscale>
<asrwt>0</asrwt>
<pdfrwt beam="2">  1        3 0.26639012E-01 0.88534535E+02</pdfrwt>
<pdfrwt beam="1">  1       -3 0.17410875E-02 0.88534535E+02</pdfrwt>
<totfact> 0.31737476E+04</totfact>
</mgrwt>
</event>
<event>
 7    1  0.1247599E-009  0.9206392E+02  0.7818608E-02  0.1297929E+00
          3   -1    0    0  501    0  0.00000000000E+00  0.00000000000E+00  0.18324998328E+03  0.18325001112E+03  0.10100000000E+00 0. -1.
         -3   -1    0    0    0  501 -0.00000000000E+00 -0.00000000000E+00 -0.11562868600E+02  0.11563309702E+02  0.10100000000E+00 0.  1.
         23    2    1    2    0    0  0.00000000000E+00 -0.88817841970E-15  0.17168711468E+03  0.19481332082E+03  0.92063915950E+02 0.  0.
    9000005    2    3    3    0    0  0.38102532751E+02  0.61514357286E+01  0.13875598693E+03  0.14407770868E+03  0.39394247762E+01 0.  0.
         22    1    3    3    0    0 -0.38102532751E+02 -0.61514357286E+01  0.32931127758E+02  0.50735612138E+02  0.00000000000E+00 0.  1.
         22    1    4    4    0    0  0.17996932280E+02  0.18661874555E+01  0.71215449172E+02  0.73477972399E+02  0.00000000000E+00 0. -1.
         22    1    4    4    0    0  0.20105600471E+02  0.42852482731E+01  0.67540537754E+02  0.70599736283E+02  0.00000000000E+00 0. -1.
<mgrwt>
<rscale>  0 0.92063916E+02</rscale>
<asrwt>0</asrwt>
<pdfrwt beam="1">  1        3 0.28192343E-01 0.92063916E+02</pdfrwt>
<pdfrwt beam="2">  1       -3 0.17789388E-02 0.92063916E+02</pdfrwt>
<totfact> 0.28025449E+04</totfact>
</mgrwt>
</event>
<event>
 7    1  0.1247599E-009  0.1031222E+03  0.7818608E-02  0.1273864E+00
         -3   -1    0    0    0  501 -0.00000000000E+00  0.00000000000E+00  0.66254578926E+02  0.66254655909E+02  0.10100000000E+00 0.  1.
          3   -1    0    0  501    0  0.00000000000E+00 -0.00000000000E+00 -0.40126090713E+02  0.40126217824E+02  0.10100000000E+00 0. -1.
         23    2    1    2    0    0  0.00000000000E+00  0.00000000000E+00  0.26128488213E+02  0.10638087373E+03  0.10312222069E+03 0.  0.
    9000005    2    3    3    0    0 -0.39103740607E+02 -0.28104674907E+01  0.47559659145E+02  0.61700941499E+02  0.28431930877E+01 0.  0.
         22    1    3    3    0    0  0.39103740607E+02  0.28104674907E+01 -0.21431170932E+02  0.44679932234E+02  0.00000000000E+00 0. -1.
         22    1    4    4    0    0 -0.13699989037E+02 -0.19209582542E+01  0.18328933364E+02  0.22963657776E+02  0.00000000000E+00 0. -1.
         22    1    4    4    0    0 -0.25403751570E+02 -0.88950923656E+00  0.29230725782E+02  0.38737283723E+02  0.00000000000E+00 0. -1.
<mgrwt>
<rscale>  0 0.10312222E+03</rscale>
<asrwt>0</asrwt>
<pdfrwt beam="2">  1        3 0.61732605E-02 0.10312222E+03</pdfrwt>
<pdfrwt beam="1">  1       -3 0.10193028E-01 0.10312222E+03</pdfrwt>
<totfact> 0.24404045E+04</totfact>
</mgrwt>
</event>
<event>
 7    1  0.1247599E-009  0.9202418E+02  0.7818608E-02  0.1298023E+00
          3   -1    0    0  501    0  0.00000000000E+00  0.00000000000E+00  0.86238348689E+01  0.86244262909E+01  0.10100000000E+00 0. -1.
         -3   -1    0    0    0  501 -0.00000000000E+00 -0.00000000000E+00 -0.24548643050E+03  0.24548645128E+03  0.10100000000E+00 0.  1.
         23    2    1    2    0    0  0.00000000000E+00  0.00000000000E+00 -0.23686259563E+03  0.25411087757E+03  0.92024175570E+02 0.  0.
    9000005    2    3    3    0    0 -0.22232723848E+02  0.21803792432E+02 -0.21079126251E+03  0.21349790200E+03  0.13367813278E+02 0.  0.
         22    1    3    3    0    0  0.22232723848E+02 -0.21803792432E+02 -0.26071333120E+02  0.40612975571E+02  0.00000000000E+00 0. -1.
         22    1    4    4    0    0  0.14039902662E+01  0.37890458786E+01 -0.31886486425E+02  0.32141500803E+02  0.00000000000E+00 0. -1.
         22    1    4    4    0    0 -0.23636714114E+02  0.18014746553E+02 -0.17890477609E+03  0.18135640120E+03  0.00000000000E+00 0. -1.
<mgrwt>
<rscale>  0 0.92024176E+02</rscale>
<asrwt>0</asrwt>
<pdfrwt beam="1">  1        3 0.13267911E-02 0.92024176E+02</pdfrwt>
<pdfrwt beam="2">  1       -3 0.37767185E-01 0.92024176E+02</pdfrwt>
<totfact> 0.25279648E+04</totfact>
</mgrwt>
</event>
<event>
 7    1  0.1247599E-009  0.9019378E+02  0.7818608E-02  0.1302383E+00
         -3   -1    0    0    0  501 -0.00000000000E+00  0.00000000000E+00  0.13183065411E+02  0.13183452304E+02  0.10100000000E+00 0.  1.
          3   -1    0    0  501    0  0.00000000000E+00 -0.00000000000E+00 -0.15426567924E+03  0.15426571230E+03  0.10100000000E+00 0. -1.
         23    2    1    2    0    0  0.00000000000E+00  0.00000000000E+00 -0.14108261383E+03  0.16744916461E+03  0.90193784723E+02 0.  0.
    9000005    2    3    3    0    0 -0.20432627731E+02 -0.27746097177E+02 -0.12401392489E+03  0.12899557795E+03  0.85479459622E+01 0.  0.
         22    1    3    3    0    0  0.20432627731E+02  0.27746097177E+02 -0.17068688940E+02  0.38453586655E+02  0.00000000000E+00 0.  1.
         22    1    4    4    0    0 -0.46592367718E+01 -0.13306106766E+02 -0.51354740308E+02  0.53254768018E+02  0.00000000000E+00 0. -1.
         22    1    4    4    0    0 -0.15773390959E+02 -0.14439990411E+02 -0.72659184580E+02  0.75740809932E+02  0.00000000000E+00 0. -1.
<mgrwt>
<rscale>  0 0.90193785E+02</rscale>
<asrwt>0</asrwt>
<pdfrwt beam="2">  1        3 0.23733212E-01 0.90193785E+02</pdfrwt>
<pdfrwt beam="1">  1       -3 0.20281963E-02 0.90193785E+02</pdfrwt>
<totfact> 0.31171455E+04</totfact>
</mgrwt>
</event>
<event>
 7    1  0.1325990E-009  0.8822901E+02  0.7818608E-02  0.1307198E+00
          3   -1    0    0  501    0  0.00000000000E+00  0.00000000000E+00  0.44610150337E+02  0.44610264672E+02  0.10100000000E+00 0. -1.
         -3   -1    0    0    0  501 -0.00000000000E+00 -0.00000000000E+00 -0.43624135262E+02  0.43624252181E+02  0.10100000000E+00 0.  1.
         23    2    1    2    0    0  0.00000000000E+00  0.00000000000E+00  0.98601507494E+00  0.88234516853E+02  0.88229007354E+02 0.  0.
    9000005    2    3    3    0    0 -0.34874120976E+02  0.16640789931E+02 -0.17782395222E+02  0.45276706987E+02  0.15512782226E+02 0.  0.
         22    1    3    3    0    0  0.34874120976E+02 -0.16640789931E+02  0.18768410297E+02  0.42957809866E+02  0.00000000000E+00 0. -1.
         22    1    4    4    0    0 -0.95776020886E+01  0.38399306454E+01 -0.12882289879E+02  0.16505420978E+02  0.00000000000E+00 0.  1.
         22    1    4    4    0    0 -0.25296518887E+02  0.12800859286E+02 -0.49001053432E+01  0.28771286010E+02  0.00000000000E+00 0.  1.
<mgrwt>
<rscale>  0 0.88229007E+02</rscale>
<asrwt>0</asrwt>
<pdfrwt beam="1">  1        3 0.68631178E-02 0.88229007E+02</pdfrwt>
<pdfrwt beam="2">  1       -3 0.67114233E-02 0.88229007E+02</pdfrwt>
<totfact> 0.38887786E+04</totfact>
</mgrwt>
</event>
<event>
 7    1  0.1247599E-009  0.9214359E+02  0.7818608E-02  0.1297742E+00
          3   -1    0    0  501    0  0.00000000000E+00  0.00000000000E+00  0.82107150077E+02  0.82107212197E+02  0.10100000000E+00 0. -1.
         -3   -1    0    0    0  501 -0.00000000000E+00 -0.00000000000E+00 -0.25851540601E+02  0.25851737900E+02  0.10100000000E+00 0.  1.
         23    2    1    2    0    0  0.00000000000E+00  0.00000000000E+00  0.56255609476E+02  0.10795895010E+03  0.92143590707E+02 0.  0.
    9000005    2    3    3    0    0  0.53638836608E+01  0.16432970945E+02  0.77785219764E+02  0.80348482857E+02  0.10321070761E+02 0.  0.
         22    1    3    3    0    0 -0.53638836608E+01 -0.16432970945E+02 -0.21529610289E+02  0.27610467239E+02  0.00000000000E+00 0.  1.
         22    1    4    4    0    0  0.30070484846E+01  0.57474665462E+00  0.24872419063E+02  0.25060125785E+02  0.00000000000E+00 0. -1.
         22    1    4    4    0    0  0.23568351762E+01  0.15858224290E+02  0.52912800701E+02  0.55288357072E+02  0.00000000000E+00 0. -1.
<mgrwt>
<rscale>  0 0.92143591E+02</rscale>
<asrwt>0</asrwt>
<pdfrwt beam="1">  1        3 0.12631889E-01 0.92143591E+02</pdfrwt>
<pdfrwt beam="2">  1       -3 0.39771800E-02 0.92143591E+02</pdfrwt>
<totfact> 0.33124848E+04</totfact>
</mgrwt>
</event>
<event>
 7    1  0.1247599E-009  0.9054025E+02  0.7818608E-02  0.1301549E+00
         -3   -1    0    0    0  501 -0.00000000000E+00  0.00000000000E+00  0.35531160460E+02  0.35531304010E+02  0.10100000000E+00 0.  1.
          3   -1    0    0  501    0  0.00000000000E+00 -0.00000000000E+00 -0.57678200625E+02  0.57678289056E+02  0.10100000000E+00 0. -1.
         23    2    1    2    0    0  0.00000000000E+00  0.00000000000E+00 -0.22147040165E+02  0.93209593066E+02  0.90540249897E+02 0.  0.
    9000005    2    3    3    0    0  0.21643725814E+02 -0.11330816337E+02 -0.48975061839E+02  0.56924871585E+02  0.15653947009E+02 0.  0.
         22    1    3    3    0    0 -0.21643725814E+02  0.11330816337E+02  0.26828021674E+02  0.36284721480E+02  0.00000000000E+00 0.  1.
         22    1    4    4    0    0  0.10257212442E+01  0.95483006738E+00  0.83692807450E+00  0.16322540030E+01  0.00000000000E+00 0. -1.
         22    1    4    4    0    0  0.20618004570E+02 -0.12285646404E+02 -0.49811989913E+02  0.55292617582E+02  0.00000000000E+00 0. -1.
<mgrwt>
<rscale>  0 0.90540250E+02</rscale>
<asrwt>0</asrwt>
<pdfrwt beam="2">  1        3 0.88735871E-02 0.90540250E+02</pdfrwt>
<pdfrwt beam="1">  1       -3 0.54663502E-02 0.90540250E+02</pdfrwt>
<totfact> 0.35859974E+04</totfact>
</mgrwt>
</event>
<event>
 7    1  0.1247599E-009  0.9090497E+02  0.7818608E-02  0.1300675E+00
          3   -1    0    0  501    0  0.00000000000E+00  0.00000000000E+00  0.64042722647E+01  0.64050686366E+01  0.10100000000E+00 0. -1.
         -3   -1    0    0    0  501 -0.00000000000E+00 -0.00000000000E+00 -0.32256509691E+03  0.32256511273E+03  0.10100000000E+00 0.  1.
         23    2    1    2    0    0  0.00000000000E+00 -0.17763568394E-14 -0.31616082465E+03  0.32897018136E+03  0.90904967868E+02 0.  0.
    9000005    2    3    3    0    0  0.41712589864E+02  0.12559124147E+02 -0.11319140626E+03  0.12137861951E+03  0.47752559864E+01 0.  0.
         22    1    3    3    0    0 -0.41712589864E+02 -0.12559124147E+02 -0.20296941839E+03  0.20759156186E+03  0.00000000000E+00 0.  1.
         22    1    4    4    0    0  0.74113502667E+01  0.45151763615E+00 -0.17759589793E+02  0.19249285975E+02  0.00000000000E+00 0. -1.
         22    1    4    4    0    0  0.34301239598E+02  0.12107606511E+02 -0.95431816466E+02  0.10212933353E+03  0.00000000000E+00 0. -1.
<mgrwt>
<rscale>  0 0.90904968E+02</rscale>
<asrwt>0</asrwt>
<pdfrwt beam="1">  1        3 0.98533538E-03 0.90904968E+02</pdfrwt>
<pdfrwt beam="2">  1       -3 0.49625449E-01 0.90904968E+02</pdfrwt>
<totfact> 0.23126725E+04</totfact>
</mgrwt>
</event>
<event>
 7    1  0.1247599E-009  0.9096541E+02  0.7818608E-02  0.1300531E+00
         -3   -1    0    0    0  501 -0.00000000000E+00  0.00000000000E+00  0.62177098760E+02  0.62177180792E+02  0.10100000000E+00 0.  1.
          3   -1    0    0  501    0  0.00000000000E+00 -0.00000000000E+00 -0.33270534512E+02  0.33270687815E+02  0.10100000000E+00 0. -1.
         23    2    1    2    0    0  0.00000000000E+00  0.00000000000E+00  0.28906564248E+02  0.95447868608E+02  0.90965411916E+02 0.  0.
    9000005    2    3    3    0    0 -0.22796016125E+02 -0.37890165274E+02  0.19363256939E+02  0.50210741267E+02  0.13815203348E+02 0.  0.
         22    1    3    3    0    0  0.22796016125E+02  0.37890165274E+02  0.95433073089E+01  0.45237127341E+02  0.00000000000E+00 0. -1.
         22    1    4    4    0    0 -0.24379728530E+01 -0.42411137535E+01  0.78189920512E+01  0.92231986967E+01  0.00000000000E+00 0.  1.
         22    1    4    4    0    0 -0.20358043272E+02 -0.33649051521E+02  0.11544264888E+02  0.40987542570E+02  0.00000000000E+00 0.  1.
<mgrwt>
<rscale>  0 0.90965412E+02</rscale>
<asrwt>0</asrwt>
<pdfrwt beam="2">  1        3 0.51185619E-02 0.90965412E+02</pdfrwt>
<pdfrwt beam="1">  1       -3 0.95657255E-02 0.90965412E+02</pdfrwt>
<totfact> 0.35235455E+04</totfact>
</mgrwt>
</event>
<event>
 7    1  0.1247599E-009  0.9211899E+02  0.7818608E-02  0.1297800E+00
         -3   -1    0    0    0  501 -0.00000000000E+00  0.00000000000E+00  0.28036747426E+02  0.28036929348E+02  0.10100000000E+00 0.  1.
          3   -1    0    0  501    0  0.00000000000E+00 -0.00000000000E+00 -0.75667271475E+02  0.75667338882E+02  0.10100000000E+00 0. -1.
         23    2    1    2    0    0  0.00000000000E+00  0.00000000000E+00 -0.47630524049E+02  0.10370426823E+03  0.92118990593E+02 0.  0.
    9000005    2    3    3    0    0 -0.18431725767E+02 -0.32451168480E+01  0.22071496213E+02  0.31533422824E+02  0.12527829493E+02 0.  0.
         22    1    3    3    0    0  0.18431725767E+02  0.32451168480E+01 -0.69702020262E+02  0.72170845406E+02  0.00000000000E+00 0. -1.
         22    1    4    4    0    0 -0.15113373475E+02  0.29166047921E+01  0.13551901278E+02  0.20507917241E+02  0.00000000000E+00 0. -1.
         22    1    4    4    0    0 -0.33183522917E+01 -0.61617216402E+01  0.85195949351E+01  0.11025505583E+02  0.00000000000E+00 0. -1.
<mgrwt>
<rscale>  0 0.92118991E+02</rscale>
<asrwt>0</asrwt>
<pdfrwt beam="2">  1        3 0.11641138E-01 0.92118991E+02</pdfrwt>
<pdfrwt beam="1">  1       -3 0.43133650E-02 0.92118991E+02</pdfrwt>
<totfact> 0.33447840E+04</totfact>
</mgrwt>
</event>
<event>
 7    1  0.1247599E-009  0.9297586E+02  0.7818608E-02  0.1295801E+00
          3   -1    0    0  501    0  0.00000000000E+00  0.00000000000E+00  0.32575076550E+02  0.32575233126E+02  0.10100000000E+00 0. -1.
         -3   -1    0    0    0  501 -0.00000000000E+00 -0.00000000000E+00 -0.66342625994E+02  0.66342702875E+02  0.10100000000E+00 0.  1.
         23    2    1    2    0    0  0.00000000000E+00  0.00000000000E+00 -0.33767549444E+02  0.98917936001E+02  0.92975860670E+02 0.  0.
    9000005    2    3    3    0    0  0.26906801152E+02  0.36234848991E+02 -0.24218069292E+02  0.52786246234E+02  0.12764508672E+02 0.  0.
         22    1    3    3    0    0 -0.26906801152E+02 -0.36234848991E+02 -0.95494801524E+01  0.46131689767E+02  0.00000000000E+00 0. -1.
         22    1    4    4    0    0  0.24172368419E+02  0.34997053436E+02 -0.25422576588E+02  0.49552038752E+02  0.00000000000E+00 0. -1.
         22    1    4    4    0    0  0.27344327331E+01  0.12377955553E+01  0.12045072960E+01  0.32342074817E+01  0.00000000000E+00 0. -1.
<mgrwt>
<rscale>  0 0.92975861E+02</rscale>
<asrwt>0</asrwt>
<pdfrwt beam="1">  1        3 0.50115682E-02 0.92975861E+02</pdfrwt>
<pdfrwt beam="2">  1       -3 0.10206576E-01 0.92975861E+02</pdfrwt>
<totfact> 0.32947623E+04</totfact>
</mgrwt>
</event>
<event>
 7    1  0.1247599E-009  0.9119251E+02  0.7818608E-02  0.1299989E+00
         -3   -1    0    0    0  501 -0.00000000000E+00  0.00000000000E+00  0.30972912801E+02  0.30973077477E+02  0.10100000000E+00 0.  1.
          3   -1    0    0  501    0  0.00000000000E+00 -0.00000000000E+00 -0.67123383458E+02  0.67123459445E+02  0.10100000000E+00 0. -1.
         23    2    1    2    0    0  0.00000000000E+00  0.00000000000E+00 -0.36150470657E+02  0.98096536922E+02  0.91192510807E+02 0.  0.
    9000005    2    3    3    0    0 -0.43956494028E+02 -0.29405043498E+01 -0.24868596195E+02  0.52620162567E+02  0.14478069580E+02 0.  0.
         22    1    3    3    0    0  0.43956494028E+02  0.29405043498E+01 -0.11281874462E+02  0.45476374355E+02  0.00000000000E+00 0.  1.
         22    1    4    4    0    0 -0.20824817075E+02  0.33427096132E+01 -0.17885374717E+02  0.27653812441E+02  0.00000000000E+00 0.  1.
         22    1    4    4    0    0 -0.23131676953E+02 -0.62832139630E+01 -0.69832214775E+01  0.24966350125E+02  0.00000000000E+00 0.  1.
<mgrwt>
<rscale>  0 0.91192511E+02</rscale>
<asrwt>0</asrwt>
<pdfrwt beam="2">  1        3 0.10326693E-01 0.91192511E+02</pdfrwt>
<pdfrwt beam="1">  1       -3 0.47650820E-02 0.91192511E+02</pdfrwt>
<totfact> 0.34796428E+04</totfact>
</mgrwt>
</event>
<event>
 7    1  0.1247599E-009  0.9287967E+02  0.7818608E-02  0.1296024E+00
         -3   -1    0    0    0  501 -0.00000000000E+00  0.00000000000E+00  0.46713171563E+02  0.46713280750E+02  0.10100000000E+00 0.  1.
          3   -1    0    0  501    0  0.00000000000E+00 -0.00000000000E+00 -0.46167876834E+02  0.46167987311E+02  0.10100000000E+00 0. -1.
         23    2    1    2    0    0  0.00000000000E+00  0.00000000000E+00  0.54529472815E+00  0.92881268062E+02  0.92879667368E+02 0.  0.
    9000005    2    3    3    0    0 -0.37946961387E+02 -0.18608682150E+02  0.19137921920E+02  0.46708324515E+02  0.53993141835E+01 0.  0.
         22    1    3    3    0    0  0.37946961387E+02  0.18608682150E+02 -0.18592627192E+02  0.46172943547E+02  0.00000000000E+00 0. -1.
         22    1    4    4    0    0 -0.71655247599E+01 -0.15488631382E+01  0.44314063344E+01  0.85662759824E+01  0.00000000000E+00 0. -1.
         22    1    4    4    0    0 -0.30781436627E+02 -0.17059819012E+02  0.14706515585E+02  0.38142048532E+02  0.00000000000E+00 0. -1.
<mgrwt>
<rscale>  0 0.92879667E+02</rscale>
<asrwt>0</asrwt>
<pdfrwt beam="2">  1        3 0.71027672E-02 0.92879667E+02</pdfrwt>
<pdfrwt beam="1">  1       -3 0.71866587E-02 0.92879667E+02</pdfrwt>
<totfact> 0.33472419E+04</totfact>
</mgrwt>
</event>
<event>
 7    1  0.1247599E-009  0.9051508E+02  0.7818608E-02  0.1301609E+00
          3   -1    0    0  501    0  0.00000000000E+00  0.00000000000E+00  0.62355245352E+02  0.62355327149E+02  0.10100000000E+00 0. -1.
         -3   -1    0    0    0  501 -0.00000000000E+00 -0.00000000000E+00 -0.32847815551E+02  0.32847970828E+02  0.10100000000E+00 0.  1.
         23    2    1    2    0    0  0.00000000000E+00  0.00000000000E+00  0.29507429800E+02  0.95203297977E+02  0.90515079032E+02 0.  0.
    9000005    2    3    3    0    0  0.24136809154E+02 -0.82029300851E+01 -0.23883831096E+02  0.36038271499E+02  0.88569750314E+01 0.  0.
         22    1    3    3    0    0 -0.24136809154E+02  0.82029300851E+01  0.53391260896E+02  0.59165026478E+02  0.00000000000E+00 0. -1.
         22    1    4    4    0    0  0.19605643891E+02 -0.54294527078E+01 -0.13622701188E+02  0.24483427389E+02  0.00000000000E+00 0. -1.
         22    1    4    4    0    0  0.45311652627E+01 -0.27734773772E+01 -0.10261129908E+02  0.11554844109E+02  0.00000000000E+00 0. -1.
<mgrwt>
<rscale>  0 0.90515079E+02</rscale>
<asrwt>0</asrwt>
<pdfrwt beam="1">  1        3 0.95931328E-02 0.90515079E+02</pdfrwt>
<pdfrwt beam="2">  1       -3 0.50535284E-02 0.90515079E+02</pdfrwt>
<totfact> 0.35731560E+04</totfact>
</mgrwt>
</event>
<event>
 7    1  0.1247599E-009  0.8749540E+02  0.7818608E-02  0.1309033E+00
          3   -1    0    0  501    0  0.00000000000E+00  0.00000000000E+00  0.36464128996E+02  0.36464268873E+02  0.10100000000E+00 0. -1.
         -3   -1    0    0    0  501 -0.00000000000E+00 -0.00000000000E+00 -0.52485842626E+02  0.52485939805E+02  0.10100000000E+00 0.  1.
         23    2    1    2    0    0  0.00000000000E+00  0.00000000000E+00 -0.16021713630E+02  0.88950208678E+02  0.87495395971E+02 0.  0.
    9000005    2    3    3    0    0 -0.24106800214E+02 -0.63244908162E+01 -0.44427639252E+02  0.51160876703E+02  0.47416426268E+01 0.  0.
         22    1    3    3    0    0  0.24106800214E+02  0.63244908162E+01  0.28405925623E+02  0.37789331975E+02  0.00000000000E+00 0. -1.
         22    1    4    4    0    0 -0.14896630366E+02 -0.15422235132E+01 -0.25353214278E+02  0.29446112203E+02  0.00000000000E+00 0.  1.
         22    1    4    4    0    0 -0.92101698483E+01 -0.47822673030E+01 -0.19074424974E+02  0.21714764500E+02  0.00000000000E+00 0.  1.
<mgrwt>
<rscale>  0 0.87495396E+02</rscale>
<asrwt>0</asrwt>
<pdfrwt beam="1">  1        3 0.56098842E-02 0.87495396E+02</pdfrwt>
<pdfrwt beam="2">  1       -3 0.80747633E-02 0.87495396E+02</pdfrwt>
<totfact> 0.39715272E+04</totfact>
</mgrwt>
</event>
<event>
 7    1  0.1247599E-009  0.9264243E+02  0.7818608E-02  0.1296576E+00
          3   -1    0    0  501    0  0.00000000000E+00  0.00000000000E+00  0.77223461373E+01  0.77230065948E+01  0.10100000000E+00 0. -1.
         -3   -1    0    0    0  501 -0.00000000000E+00 -0.00000000000E+00 -0.27783761242E+03  0.27783763078E+03  0.10100000000E+00 0.  1.
         23    2    1    2    0    0 -0.35527136788E-14  0.00000000000E+00 -0.27011526629E+03  0.28556063738E+03  0.92642433786E+02 0.  0.
    9000005    2    3    3    0    0 -0.19509239444E+02  0.39208738349E+02 -0.89804670434E+02  0.10000782397E+03  0.43301774544E+01 0.  0.
         22    1    3    3    0    0  0.19509239444E+02 -0.39208738349E+02 -0.18031059585E+03  0.18555281341E+03  0.00000000000E+00 0.  1.
         22    1    4    4    0    0 -0.15753633269E+02  0.34449705849E+02 -0.75450106825E+02  0.84425575593E+02  0.00000000000E+00 0.  1.
         22    1    4    4    0    0 -0.37556061745E+01  0.47590325002E+01 -0.14354563609E+02  0.15582248377E+02  0.00000000000E+00 0.  1.
<mgrwt>
<rscale>  0 0.92642434E+02</rscale>
<asrwt>0</asrwt>
<pdfrwt beam="1">  1        3 0.11881057E-02 0.92642434E+02</pdfrwt>
<pdfrwt beam="2">  1       -3 0.42744293E-01 0.92642434E+02</pdfrwt>
<totfact> 0.23560784E+04</totfact>
</mgrwt>
</event>
<event>
 7    1  0.1247599E-009  0.9184628E+02  0.7818608E-02  0.1298441E+00
         -3   -1    0    0    0  501 -0.00000000000E+00  0.00000000000E+00  0.49040385700E+02  0.49040489706E+02  0.10100000000E+00 0.  1.
          3   -1    0    0  501    0  0.00000000000E+00 -0.00000000000E+00 -0.43003835305E+02  0.43003953910E+02  0.10100000000E+00 0. -1.
         23    2    1    2    0    0  0.35527136788E-14  0.00000000000E+00  0.60365503952E+01  0.92044443616E+02  0.91846282777E+02 0.  0.
    9000005    2    3    3    0    0 -0.17003256715E+02  0.70359673143E+01 -0.38318187941E+02  0.44024048076E+02  0.11455029763E+02 0.  0.
         22    1    3    3    0    0  0.17003256715E+02 -0.70359673143E+01  0.44354738337E+02  0.48020395541E+02  0.00000000000E+00 0.  1.
         22    1    4    4    0    0 -0.80734580357E+01 -0.19517970852E+01 -0.20861482515E+02  0.22454213174E+02  0.00000000000E+00 0.  1.
         22    1    4    4    0    0 -0.89297986795E+01  0.89877643995E+01 -0.17456705426E+02  0.21569834902E+02  0.00000000000E+00 0.  1.
<mgrwt>
<rscale>  0 0.91846283E+02</rscale>
<asrwt>0</asrwt>
<pdfrwt beam="2">  1        3 0.66159918E-02 0.91846283E+02</pdfrwt>
<pdfrwt beam="1">  1       -3 0.75446918E-02 0.91846283E+02</pdfrwt>
<totfact> 0.34574659E+04</totfact>
</mgrwt>
</event>
<event>
 7    1  0.1247599E-009  0.9086298E+02  0.7818608E-02  0.1300775E+00
          3   -1    0    0  501    0  0.00000000000E+00  0.00000000000E+00  0.78160221151E+02  0.78160286407E+02  0.10100000000E+00 0. -1.
         -3   -1    0    0    0  501 -0.00000000000E+00 -0.00000000000E+00 -0.26407382680E+02  0.26407575826E+02  0.10100000000E+00 0.  1.
         23    2    1    2    0    0  0.00000000000E+00  0.17763568394E-14  0.51752838471E+02  0.10456786223E+03  0.90862982134E+02 0.  0.
    9000005    2    3    3    0    0 -0.41707040098E+02  0.10473665739E+02  0.15704804360E+02  0.48455157514E+02  0.15877233448E+02 0.  0.
         22    1    3    3    0    0  0.41707040098E+02 -0.10473665739E+02  0.36048034111E+02  0.56112704720E+02  0.00000000000E+00 0. -1.
         22    1    4    4    0    0 -0.44547945131E+01  0.15371650048E+01 -0.32387526366E+01  0.57181805714E+01  0.00000000000E+00 0.  1.
         22    1    4    4    0    0 -0.37252245585E+02  0.89365007340E+01  0.18943556997E+02  0.42736976942E+02  0.00000000000E+00 0.  1.
<mgrwt>
<rscale>  0 0.90862982E+02</rscale>
<asrwt>0</asrwt>
<pdfrwt beam="1">  1        3 0.12024669E-01 0.90862982E+02</pdfrwt>
<pdfrwt beam="2">  1       -3 0.40626941E-02 0.90862982E+02</pdfrwt>
<totfact> 0.34659169E+04</totfact>
</mgrwt>
</event>
<event>
 7    1  0.1247599E-009  0.9105242E+02  0.7818608E-02  0.1300323E+00
          3   -1    0    0  501    0  0.00000000000E+00  0.00000000000E+00  0.14423134050E+03  0.14423137586E+03  0.10100000000E+00 0. -1.
         -3   -1    0    0    0  501 -0.00000000000E+00 -0.00000000000E+00 -0.14370003123E+02  0.14370358059E+02  0.10100000000E+00 0.  1.
         23    2    1    2    0    0  0.44408920985E-15  0.00000000000E+00  0.12986133737E+03  0.15860173392E+03  0.91052419284E+02 0.  0.
    9000005    2    3    3    0    0 -0.57140444725E+00 -0.40186130778E+02  0.35060128554E+02  0.55633191132E+02  0.15829963088E+02 0.  0.
         22    1    3    3    0    0  0.57140444725E+00  0.40186130778E+02  0.94801208820E+02  0.10296854279E+03  0.00000000000E+00 0.  1.
         22    1    4    4    0    0 -0.41101697471E+01 -0.20340699661E+02  0.88314540446E+01  0.22552874287E+02  0.00000000000E+00 0.  1.
         22    1    4    4    0    0  0.35387652998E+01 -0.19845431117E+02  0.26228674509E+02  0.33080316845E+02  0.00000000000E+00 0.  1.
<mgrwt>
<rscale>  0 0.91052419E+02</rscale>
<asrwt>0</asrwt>
<pdfrwt beam="1">  1        3 0.22189467E-01 0.91052419E+02</pdfrwt>
<pdfrwt beam="2">  1       -3 0.22107997E-02 0.91052419E+02</pdfrwt>
<totfact> 0.30903127E+04</totfact>
</mgrwt>
</event>
<event>
 7    1  0.1247599E-009  0.9209259E+02  0.7818608E-02  0.1297862E+00
         -3   -1    0    0    0  501 -0.00000000000E+00  0.00000000000E+00  0.13978407113E+03  0.13978410762E+03  0.10100000000E+00 0.  1.
          3   -1    0    0  501    0  0.00000000000E+00 -0.00000000000E+00 -0.15167910833E+02  0.15168247098E+02  0.10100000000E+00 0. -1.
         23    2    1    2    0    0  0.44408920985E-15  0.00000000000E+00  0.12461616030E+03  0.15495235472E+03  0.92092588328E+02 0.  0.
    9000005    2    3    3    0    0 -0.34703654023E+01  0.41411468790E+02  0.94512104871E+02  0.10363756799E+03  0.90141194176E+01 0.  0.
         22    1    3    3    0    0  0.34703654023E+01 -0.41411468790E+02  0.30104055425E+02  0.51314786723E+02  0.00000000000E+00 0. -1.
         22    1    4    4    0    0 -0.42798536372E+01  0.39988335056E+02  0.85604283846E+02  0.94580534469E+02  0.00000000000E+00 0. -1.
         22    1    4    4    0    0  0.80948823488E+00  0.14231337341E+01  0.89078210251E+01  0.90570335233E+01  0.00000000000E+00 0. -1.
<mgrwt>
<rscale>  0 0.92092588E+02</rscale>
<asrwt>0</asrwt>
<pdfrwt beam="2">  1        3 0.23335534E-02 0.92092588E+02</pdfrwt>
<pdfrwt beam="1">  1       -3 0.21505271E-01 0.92092588E+02</pdfrwt>
<totfact> 0.30178335E+04</totfact>
</mgrwt>
</event>
<event>
 7    1  0.1247599E-009  0.9279705E+02  0.7818608E-02  0.1296216E+00
          3   -1    0    0  501    0  0.00000000000E+00  0.00000000000E+00  0.68833806532E+01  0.68841216009E+01  0.10100000000E+00 0. -1.
         -3   -1    0    0    0  501 -0.00000000000E+00 -0.00000000000E+00 -0.31273906107E+03  0.31273907738E+03  0.10100000000E+00 0.  1.
         23    2    1    2    0    0  0.00000000000E+00  0.00000000000E+00 -0.30585568042E+03  0.31962319898E+03  0.92797047814E+02 0.  0.
    9000005    2    3    3    0    0 -0.19285736106E+02  0.10082766271E+02 -0.29379643921E+03  0.29474294393E+03  0.91352893104E+01 0.  0.
         22    1    3    3    0    0  0.19285736106E+02 -0.10082766271E+02 -0.12059241203E+02  0.24880255047E+02  0.00000000000E+00 0. -1.
         22    1    4    4    0    0 -0.63274914958E+01  0.11939714121E+01 -0.13946716079E+03  0.13961572854E+03  0.00000000000E+00 0.  1.
         22    1    4    4    0    0 -0.12958244610E+02  0.88887948587E+01 -0.15432927842E+03  0.15512721539E+03  0.00000000000E+00 0.  1.
<mgrwt>
<rscale>  0 0.92797048E+02</rscale>
<asrwt>0</asrwt>
<pdfrwt beam="1">  1        3 0.10590401E-02 0.92797048E+02</pdfrwt>
<pdfrwt beam="2">  1       -3 0.48113749E-01 0.92797048E+02</pdfrwt>
<totfact> 0.22205593E+04</totfact>
</mgrwt>
</event>
<event>
 7    1  0.1247599E-009  0.9201697E+02  0.7818608E-02  0.1298040E+00
         -3   -1    0    0    0  501 -0.00000000000E+00  0.00000000000E+00  0.10667987785E+02  0.10668465887E+02  0.10100000000E+00 0.  1.
          3   -1    0    0  501    0  0.00000000000E+00 -0.00000000000E+00 -0.19841866629E+03  0.19841869200E+03  0.10100000000E+00 0. -1.
         23    2    1    2    0    0 -0.71054273576E-14 -0.44408920985E-15 -0.18775067850E+03  0.20908715788E+03  0.92016967526E+02 0.  0.
    9000005    2    3    3    0    0  0.39961780395E+02  0.23470568654E+01 -0.50041017063E+02  0.65677243921E+02  0.14385562627E+02 0.  0.
         22    1    3    3    0    0 -0.39961780395E+02 -0.23470568654E+01 -0.13770966144E+03  0.14340991396E+03  0.00000000000E+00 0. -1.
         22    1    4    4    0    0  0.33007737906E+02 -0.33117439105E+01 -0.35441307350E+02  0.48544460818E+02  0.00000000000E+00 0.  1.
         22    1    4    4    0    0  0.69540424883E+01  0.56588007759E+01 -0.14599709713E+02  0.17132783103E+02  0.00000000000E+00 0.  1.
<mgrwt>
<rscale>  0 0.92016968E+02</rscale>
<asrwt>0</asrwt>
<pdfrwt beam="2">  1        3 0.30525985E-01 0.92016968E+02</pdfrwt>
<pdfrwt beam="1">  1       -3 0.16412678E-02 0.92016968E+02</pdfrwt>
<totfact> 0.27349267E+04</totfact>
</mgrwt>
</event>
<event>
 7    1  0.1247599E-009  0.9130920E+02  0.7818608E-02  0.1299712E+00
          3   -1    0    0  501    0  0.00000000000E+00  0.00000000000E+00  0.20514022136E+03  0.20514024622E+03  0.10100000000E+00 0. -1.
         -3   -1    0    0    0  501 -0.00000000000E+00 -0.00000000000E+00 -0.10160297745E+02  0.10160799735E+02  0.10100000000E+00 0.  1.
         23    2    1    2    0    0  0.00000000000E+00  0.00000000000E+00  0.19497992361E+03  0.21530104596E+03  0.91309198759E+02 0.  0.
    9000005    2    3    3    0    0  0.11072448458E+02 -0.41825730371E+02  0.63511364469E+02  0.76895941718E+02  0.27021473083E+01 0.  0.
         22    1    3    3    0    0 -0.11072448458E+02  0.41825730371E+02  0.13146855914E+03  0.13840510424E+03  0.00000000000E+00 0.  1.
         22    1    4    4    0    0  0.36640496432E+00 -0.40807883319E+01  0.67073599389E+01  0.78597559350E+01  0.00000000000E+00 0. -1.
         22    1    4    4    0    0  0.10706043494E+02 -0.37744942039E+02  0.56804004530E+02  0.69036185783E+02  0.00000000000E+00 0. -1.
<mgrwt>
<rscale>  0 0.91309199E+02</rscale>
<asrwt>0</asrwt>
<pdfrwt beam="1">  1        3 0.31560077E-01 0.91309199E+02</pdfrwt>
<pdfrwt beam="2">  1       -3 0.15631631E-02 0.91309199E+02</pdfrwt>
<totfact> 0.27618029E+04</totfact>
</mgrwt>
</event>
<event>
 7    1  0.1247599E-009  0.9006077E+02  0.7818608E-02  0.1302705E+00
          3   -1    0    0  501    0  0.00000000000E+00  0.00000000000E+00  0.70327895220E+02  0.70327967744E+02  0.10100000000E+00 0. -1.
         -3   -1    0    0    0  501 -0.00000000000E+00 -0.00000000000E+00 -0.28832418222E+02  0.28832595123E+02  0.10100000000E+00 0.  1.
         23    2    1    2    0    0  0.00000000000E+00  0.00000000000E+00  0.41495476998E+02  0.99160562867E+02  0.90060771798E+02 0.  0.
    9000005    2    3    3    0    0  0.17963748613E+02  0.31472193161E+02  0.48944527820E+02  0.62164839266E+02  0.12478190206E+02 0.  0.
         22    1    3    3    0    0 -0.17963748613E+02 -0.31472193161E+02 -0.74490508220E+01  0.36995723601E+02  0.00000000000E+00 0.  1.
         22    1    4    4    0    0  0.20775968601E+01  0.15601728630E+02  0.17666278775E+02  0.23660679422E+02  0.00000000000E+00 0. -1.
         22    1    4    4    0    0  0.15886151753E+02  0.15870464531E+02  0.31278249045E+02  0.38504159844E+02  0.00000000000E+00 0. -1.
<mgrwt>
<rscale>  0 0.90060772E+02</rscale>
<asrwt>0</asrwt>
<pdfrwt beam="1">  1        3 0.10819695E-01 0.90060772E+02</pdfrwt>
<pdfrwt beam="2">  1       -3 0.44357759E-02 0.90060772E+02</pdfrwt>
<totfact> 0.35915149E+04</totfact>
</mgrwt>
</event>
<event>
 7    1  0.1247599E-009  0.9103360E+02  0.7818608E-02  0.1300368E+00
         -3   -1    0    0    0  501 -0.00000000000E+00  0.00000000000E+00  0.12638546628E+02  0.12638950188E+02  0.10100000000E+00 0.  1.
          3   -1    0    0  501    0  0.00000000000E+00 -0.00000000000E+00 -0.16392237528E+03  0.16392240639E+03  0.10100000000E+00 0. -1.
         23    2    1    2    0    0  0.00000000000E+00  0.00000000000E+00 -0.15128382865E+03  0.17656135658E+03  0.91033597241E+02 0.  0.
    9000005    2    3    3    0    0 -0.70886771859E+01  0.44613766334E+02 -0.71791564298E+02  0.85130193499E+02  0.72445600335E+01 0.  0.
         22    1    3    3    0    0  0.70886771859E+01 -0.44613766334E+02 -0.79492264350E+02  0.91431163080E+02  0.00000000000E+00 0. -1.
         22    1    4    4    0    0 -0.41462847405E+01  0.19564710616E+02 -0.25427334616E+02  0.32349944734E+02  0.00000000000E+00 0.  1.
         22    1    4    4    0    0 -0.29423924454E+01  0.25049055718E+02 -0.46364229682E+02  0.52780248765E+02  0.00000000000E+00 0.  1.
<mgrwt>
<rscale>  0 0.91033597E+02</rscale>
<asrwt>0</asrwt>
<pdfrwt beam="2">  1        3 0.25218859E-01 0.91033597E+02</pdfrwt>
<pdfrwt beam="1">  1       -3 0.19444253E-02 0.91033597E+02</pdfrwt>
<totfact> 0.29883578E+04</totfact>
</mgrwt>
</event>
<event>
 7    1  0.1319087E-009  0.9081099E+02  0.7818608E-02  0.1300900E+00
          3   -1    0    0  501    0  0.00000000000E+00  0.00000000000E+00  0.45974587338E+02  0.45974698279E+02  0.10100000000E+00 0. -1.
         -3   -1    0    0    0  501 -0.00000000000E+00 -0.00000000000E+00 -0.44843228211E+02  0.44843341952E+02  0.10100000000E+00 0.  1.
         23    2    1    2    0    0 -0.88817841970E-15  0.00000000000E+00  0.11313591268E+01  0.90818040231E+02  0.90810993046E+02 0.  0.
    9000005    2    3    3    0    0  0.68679099366E+01  0.25097391045E+02  0.36547829977E+02  0.46870644044E+02  0.13567098910E+02 0.  0.
         22    1    3    3    0    0 -0.68679099366E+01 -0.25097391045E+02 -0.35416470851E+02  0.43947396188E+02  0.00000000000E+00 0.  1.
         22    1    4    4    0    0  0.88296315651E+01  0.25505633607E+02  0.31755454124E+02  0.41676235505E+02  0.00000000000E+00 0.  1.
         22    1    4    4    0    0 -0.19617216285E+01 -0.40824256264E+00  0.47923758539E+01  0.51944085383E+01  0.00000000000E+00 0.  1.
<mgrwt>
<rscale>  0 0.90810993E+02</rscale>
<asrwt>0</asrwt>
<pdfrwt beam="1">  1        3 0.70730307E-02 0.90810993E+02</pdfrwt>
<pdfrwt beam="2">  1       -3 0.68989755E-02 0.90810993E+02</pdfrwt>
<totfact> 0.35755530E+04</totfact>
</mgrwt>
</event>
<event>
 7    1  0.1247599E-009  0.9095751E+02  0.7818608E-02  0.1300549E+00
         -3   -1    0    0    0  501 -0.00000000000E+00  0.00000000000E+00  0.51575137420E+01  0.51585025927E+01  0.10100000000E+00 0.  1.
          3   -1    0    0  501    0  0.00000000000E+00 -0.00000000000E+00 -0.40099043365E+03  0.40099044637E+03  0.10100000000E+00 0. -1.
         23    2    1    2    0    0  0.71054273576E-14  0.00000000000E+00 -0.39583291990E+03  0.40614894896E+03  0.90957507993E+02 0.  0.
    9000005    2    3    3    0    0  0.37870567636E+02  0.73995009100E+01 -0.30161313639E+03  0.30433392005E+03  0.12637972199E+02 0.  0.
         22    1    3    3    0    0 -0.37870567636E+02 -0.73995009100E+01 -0.94219783509E+02  0.10181502891E+03  0.00000000000E+00 0.  1.
         22    1    4    4    0    0  0.43285696714E+01 -0.22119218927E+00 -0.13596433584E+02  0.14270544754E+02  0.00000000000E+00 0. -1.
         22    1    4    4    0    0  0.33541997965E+02  0.76206930993E+01 -0.28801670281E+03  0.29006337530E+03  0.00000000000E+00 0. -1.
<mgrwt>
<rscale>  0 0.90957508E+02</rscale>
<asrwt>0</asrwt>
<pdfrwt beam="2">  1        3 0.61690888E-01 0.90957508E+02</pdfrwt>
<pdfrwt beam="1">  1       -3 0.79354101E-03 0.90957508E+02</pdfrwt>
<totfact> 0.20562531E+04</totfact>
</mgrwt>
</event>
<event>
 7    1  0.1247599E-009  0.9244279E+02  0.7818608E-02  0.1297042E+00
          3   -1    0    0  501    0  0.00000000000E+00  0.00000000000E+00  0.65962719471E+01  0.65970451416E+01  0.10100000000E+00 0. -1.
         -3   -1    0    0    0  501 -0.00000000000E+00 -0.00000000000E+00 -0.32386279942E+03  0.32386281517E+03  0.10100000000E+00 0.  1.
         23    2    1    2    0    0  0.00000000000E+00  0.00000000000E+00 -0.31726652747E+03  0.33045986031E+03  0.92442792157E+02 0.  0.
    9000005    2    3    3    0    0  0.37421736670E+02  0.24805877134E+02 -0.18247837492E+03  0.18839098975E+03  0.13307508670E+02 0.  0.
         22    1    3    3    0    0 -0.37421736670E+02 -0.24805877134E+02 -0.13478815255E+03  0.14206887056E+03  0.00000000000E+00 0. -1.
         22    1    4    4    0    0  0.93604614073E+00  0.36418655051E+00 -0.21687194353E+02  0.21710440187E+02  0.00000000000E+00 0.  1.
         22    1    4    4    0    0  0.36485690529E+02  0.24441690584E+02 -0.16079118057E+03  0.16668054956E+03  0.00000000000E+00 0.  1.
<mgrwt>
<rscale>  0 0.92442792E+02</rscale>
<asrwt>0</asrwt>
<pdfrwt beam="1">  1        3 0.10148720E-02 0.92442792E+02</pdfrwt>
<pdfrwt beam="2">  1       -3 0.49825094E-01 0.92442792E+02</pdfrwt>
<totfact> 0.22056480E+04</totfact>
</mgrwt>
</event>
<event>
 7    1  0.1247599E-009  0.9132158E+02  0.7818608E-02  0.1299683E+00
         -3   -1    0    0    0  501 -0.00000000000E+00  0.00000000000E+00  0.63574836297E+02  0.63574916525E+02  0.10100000000E+00 0.  1.
          3   -1    0    0  501    0  0.00000000000E+00 -0.00000000000E+00 -0.32794362240E+02  0.32794517769E+02  0.10100000000E+00 0. -1.
         23    2    1    2    0    0  0.00000000000E+00  0.35527136788E-14  0.30780474057E+02  0.96369434295E+02  0.91321576219E+02 0.  0.
    9000005    2    3    3    0    0  0.14355176376E+01 -0.21567514258E+02 -0.24934046458E+02  0.36608860516E+02  0.15851927748E+02 0.  0.
         22    1    3    3    0    0 -0.14355176376E+01  0.21567514258E+02  0.55714520515E+02  0.59760573779E+02  0.00000000000E+00 0.  1.
         22    1    4    4    0    0  0.97159163939E+00 -0.21883371832E+02 -0.14747164998E+02  0.26406530036E+02  0.00000000000E+00 0.  1.
         22    1    4    4    0    0  0.46392599825E+00  0.31585757409E+00 -0.10186881459E+02  0.10202330479E+02  0.00000000000E+00 0.  1.
<mgrwt>
<rscale>  0 0.91321576E+02</rscale>
<asrwt>0</asrwt>
<pdfrwt beam="2">  1        3 0.50453047E-02 0.91321576E+02</pdfrwt>
<pdfrwt beam="1">  1       -3 0.97807621E-02 0.91321576E+02</pdfrwt>
<totfact> 0.34792767E+04</totfact>
</mgrwt>
</event>
<event>
 7    1  0.1247599E-009  0.8954923E+02  0.7818608E-02  0.1303947E+00
          3   -1    0    0  501    0  0.00000000000E+00  0.00000000000E+00  0.95665187550E+01  0.95670519017E+01  0.10100000000E+00 0. -1.
         -3   -1    0    0    0  501 -0.00000000000E+00 -0.00000000000E+00 -0.20955428473E+03  0.20955430907E+03  0.10100000000E+00 0.  1.
         23    2    1    2    0    0  0.00000000000E+00  0.00000000000E+00 -0.19998776597E+03  0.21912136097E+03  0.89549228329E+02 0.  0.
    9000005    2    3    3    0    0  0.33721678864E+01 -0.34327749916E+02 -0.16973002821E+03  0.17323784950E+03  0.36474773691E+01 0.  0.
         22    1    3    3    0    0 -0.33721678864E+01  0.34327749916E+02 -0.30257737761E+02  0.45883511471E+02  0.00000000000E+00 0. -1.
         22    1    4    4    0    0  0.13716382744E+01 -0.33710333560E+01 -0.19919299523E+02  0.20249043210E+02  0.00000000000E+00 0. -1.
         22    1    4    4    0    0  0.20005296121E+01 -0.30956716560E+02 -0.14981072869E+03  0.15298880629E+03  0.00000000000E+00 0. -1.
<mgrwt>
<rscale>  0 0.89549228E+02</rscale>
<asrwt>0</asrwt>
<pdfrwt beam="1">  1        3 0.14718152E-02 0.89549228E+02</pdfrwt>
<pdfrwt beam="2">  1       -3 0.32239160E-01 0.89549228E+02</pdfrwt>
<totfact> 0.28903331E+04</totfact>
</mgrwt>
</event>
<event>
 7    1  0.1247599E-009  0.6409201E+02  0.7818608E-02  0.1381420E+00
          3   -1    0    0  501    0  0.00000000000E+00  0.00000000000E+00  0.12848357723E+02  0.12848754694E+02  0.10100000000E+00 0. -1.
         -3   -1    0    0    0  501 -0.00000000000E+00 -0.00000000000E+00 -0.79926572467E+02  0.79926636282E+02  0.10100000000E+00 0.  1.
         23    2    1    2    0    0  0.00000000000E+00  0.00000000000E+00 -0.67078214745E+02  0.92775390976E+02  0.64092014147E+02 0.  0.
    9000005    2    3    3    0    0 -0.35542645960E+01 -0.15395845929E+02 -0.73656486559E+02  0.75659943896E+02  0.70345027778E+01 0.  0.
         22    1    3    3    0    0  0.35542645960E+01  0.15395845929E+02  0.65782718147E+01  0.17115447080E+02  0.00000000000E+00 0. -1.
         22    1    4    4    0    0 -0.20650939840E+01 -0.96468304775E+01 -0.29499937576E+02  0.31105823705E+02  0.00000000000E+00 0.  1.
         22    1    4    4    0    0 -0.14891706120E+01 -0.57490154514E+01 -0.44156548984E+02  0.44554120190E+02  0.00000000000E+00 0.  1.
<mgrwt>
<rscale>  0 0.64092014E+02</rscale>
<asrwt>0</asrwt>
<pdfrwt beam="1">  1        3 0.19767059E-02 0.64092014E+02</pdfrwt>
<pdfrwt beam="2">  1       -3 0.12296431E-01 0.64092014E+02</pdfrwt>
<totfact> 0.90015613E+04</totfact>
</mgrwt>
</event>
<event>
 7    1  0.1247599E-009  0.9131303E+02  0.7818608E-02  0.1299703E+00
         -3   -1    0    0    0  501 -0.00000000000E+00  0.00000000000E+00  0.37398152175E+02  0.37398288559E+02  0.10100000000E+00 0.  1.
          3   -1    0    0  501    0  0.00000000000E+00 -0.00000000000E+00 -0.55738232133E+02  0.55738323641E+02  0.10100000000E+00 0. -1.
         23    2    1    2    0    0  0.00000000000E+00  0.00000000000E+00 -0.18340079958E+02  0.93136612200E+02  0.91313033020E+02 0.  0.
    9000005    2    3    3    0    0 -0.39912921670E+01 -0.36650842855E+02  0.17417703622E+02  0.41776766196E+02  0.90943443520E+01 0.  0.
         22    1    3    3    0    0  0.39912921670E+01  0.36650842855E+02 -0.35757783580E+02  0.51359846005E+02  0.00000000000E+00 0. -1.
         22    1    4    4    0    0 -0.63929060018E+00 -0.25310492516E+02  0.15792794941E+02  0.29840276405E+02  0.00000000000E+00 0.  1.
         22    1    4    4    0    0 -0.33520015668E+01 -0.11340350338E+02  0.16249086810E+01  0.11936489790E+02  0.00000000000E+00 0.  1.
<mgrwt>
<rscale>  0 0.91313033E+02</rscale>
<asrwt>0</asrwt>
<pdfrwt beam="2">  1        3 0.85751301E-02 0.91313033E+02</pdfrwt>
<pdfrwt beam="1">  1       -3 0.57535794E-02 0.91313033E+02</pdfrwt>
<totfact> 0.35045586E+04</totfact>
</mgrwt>
</event>
<event>
 7    1  0.1247599E-009  0.9037563E+02  0.7818608E-02  0.1301945E+00
         -3   -1    0    0    0  501 -0.00000000000E+00  0.00000000000E+00  0.77603857494E+01  0.77610429698E+01  0.10100000000E+00 0.  1.
          3   -1    0    0  501    0  0.00000000000E+00 -0.00000000000E+00 -0.26311151505E+03  0.26311153444E+03  0.10100000000E+00 0. -1.
         23    2    1    2    0    0  0.00000000000E+00  0.00000000000E+00 -0.25535112930E+03  0.27087257741E+03  0.90375626996E+02 0.  0.
    9000005    2    3    3    0    0  0.21267276036E+02 -0.36809152388E+02 -0.98983440674E+02  0.10882917342E+03  0.15454990442E+02 0.  0.
         22    1    3    3    0    0 -0.21267276036E+02  0.36809152388E+02 -0.15636768863E+03  0.16204340399E+03  0.00000000000E+00 0.  1.
         22    1    4    4    0    0  0.15155629732E+02 -0.12783375773E+02 -0.53027108488E+02  0.56612560827E+02  0.00000000000E+00 0. -1.
         22    1    4    4    0    0  0.61116463041E+01 -0.24025776615E+02 -0.45956332186E+02  0.52216612591E+02  0.00000000000E+00 0. -1.
<mgrwt>
<rscale>  0 0.90375627E+02</rscale>
<asrwt>0</asrwt>
<pdfrwt beam="2">  1        3 0.40478740E-01 0.90375627E+02</pdfrwt>
<pdfrwt beam="1">  1       -3 0.11939577E-02 0.90375627E+02</pdfrwt>
<totfact> 0.25807741E+04</totfact>
</mgrwt>
</event>
<event>
 7    1  0.1247599E-009  0.8983599E+02  0.7818608E-02  0.1303249E+00
          3   -1    0    0  501    0  0.00000000000E+00  0.00000000000E+00  0.19795196244E+02  0.19795453906E+02  0.10100000000E+00 0. -1.
         -3   -1    0    0    0  501 -0.00000000000E+00 -0.00000000000E+00 -0.10192409358E+03  0.10192414363E+03  0.10100000000E+00 0.  1.
         23    2    1    2    0    0  0.35527136788E-14  0.71054273576E-14 -0.82128897340E+02  0.12171959753E+03  0.89835987472E+02 0.  0.
    9000005    2    3    3    0    0 -0.19551369487E+02 -0.24108557146E+02 -0.84496967374E+02  0.90589446037E+02  0.10160298294E+02 0.  0.
         22    1    3    3    0    0  0.19551369487E+02  0.24108557146E+02  0.23680700337E+01  0.31130151496E+02  0.00000000000E+00 0. -1.
         22    1    4    4    0    0 -0.10756048059E+00  0.25104925743E+00  0.20072945935E+00  0.33895029502E+00  0.00000000000E+00 0.  1.
         22    1    4    4    0    0 -0.19443809006E+02 -0.24359606403E+02 -0.84697696833E+02  0.90250495742E+02  0.00000000000E+00 0.  1.
<mgrwt>
<rscale>  0 0.89835987E+02</rscale>
<asrwt>0</asrwt>
<pdfrwt beam="1">  1        3 0.30454385E-02 0.89835987E+02</pdfrwt>
<pdfrwt beam="2">  1       -3 0.15680653E-01 0.89835987E+02</pdfrwt>
<totfact> 0.34487786E+04</totfact>
</mgrwt>
</event>
<event>
 7    1  0.1247599E-009  0.9277241E+02  0.7818608E-02  0.1296273E+00
          3   -1    0    0  501    0  0.00000000000E+00  0.00000000000E+00  0.71902904223E+02  0.71902975159E+02  0.10100000000E+00 0. -1.
         -3   -1    0    0    0  501 -0.00000000000E+00 -0.00000000000E+00 -0.29924628049E+02  0.29924798493E+02  0.10100000000E+00 0.  1.
         23    2    1    2    0    0  0.17763568394E-14  0.00000000000E+00  0.41978276174E+02  0.10182777365E+03  0.92772408702E+02 0.  0.
    9000005    2    3    3    0    0  0.13739132916E+02  0.41991954020E+02  0.35567205180E+02  0.57182619301E+02  0.72620857914E+01 0.  0.
         22    1    3    3    0    0 -0.13739132916E+02 -0.41991954020E+02  0.64110709934E+01  0.44645154351E+02  0.00000000000E+00 0.  1.
         22    1    4    4    0    0  0.65642397993E+01  0.11029214941E+02  0.81148897941E+01  0.15185001242E+02  0.00000000000E+00 0.  1.
         22    1    4    4    0    0  0.71748931164E+01  0.30962739079E+02  0.27452315386E+02  0.41997618059E+02  0.00000000000E+00 0.  1.
<mgrwt>
<rscale>  0 0.92772409E+02</rscale>
<asrwt>0</asrwt>
<pdfrwt beam="1">  1        3 0.11062004E-01 0.92772409E+02</pdfrwt>
<pdfrwt beam="2">  1       -3 0.46038076E-02 0.92772409E+02</pdfrwt>
<totfact> 0.32939348E+04</totfact>
</mgrwt>
</event>
<event>
 7    1  0.1247599E-009  0.9118860E+02  0.7818608E-02  0.1299999E+00
         -3   -1    0    0    0  501 -0.00000000000E+00  0.00000000000E+00  0.13593567779E+03  0.13593571531E+03  0.10100000000E+00 0.  1.
          3   -1    0    0  501    0  0.00000000000E+00 -0.00000000000E+00 -0.15292617266E+02  0.15292950789E+02  0.10100000000E+00 0. -1.
         23    2    1    2    0    0 -0.17763568394E-14  0.00000000000E+00  0.12064306052E+03  0.15122866610E+03  0.91188603443E+02 0.  0.
    9000005    2    3    3    0    0  0.15110159438E+02 -0.33149289808E+02  0.10400999960E+03  0.11118055692E+03  0.14691626450E+02 0.  0.
         22    1    3    3    0    0 -0.15110159438E+02  0.33149289808E+02  0.16633060924E+02  0.40048109178E+02  0.00000000000E+00 0. -1.
         22    1    4    4    0    0  0.75539042391E+01 -0.84319318385E+01  0.50525497518E+02  0.51778227502E+02  0.00000000000E+00 0. -1.
         22    1    4    4    0    0  0.75562551990E+01 -0.24717357970E+02  0.53484502081E+02  0.59402329420E+02  0.00000000000E+00 0. -1.
<mgrwt>
<rscale>  0 0.91188603E+02</rscale>
<asrwt>0</asrwt>
<pdfrwt beam="2">  1        3 0.23527389E-02 0.91188603E+02</pdfrwt>
<pdfrwt beam="1">  1       -3 0.20913210E-01 0.91188603E+02</pdfrwt>
<totfact> 0.31222140E+04</totfact>
</mgrwt>
</event>
<event>
 7    1  0.1247599E-009  0.9050928E+02  0.7818608E-02  0.1301623E+00
          3   -1    0    0  501    0  0.00000000000E+00  0.00000000000E+00  0.10238956737E+02  0.10239454871E+02  0.10100000000E+00 0. -1.
         -3   -1    0    0    0  501 -0.00000000000E+00 -0.00000000000E+00 -0.20001330368E+03  0.20001332918E+03  0.10100000000E+00 0.  1.
         23    2    1    2    0    0  0.00000000000E+00  0.00000000000E+00 -0.18977434695E+03  0.21025278405E+03  0.90509283746E+02 0.  0.
    9000005    2    3    3    0    0  0.41376168290E+02 -0.83607315622E+01 -0.13080083082E+03  0.13772854853E+03  0.88547502325E+01 0.  0.
         22    1    3    3    0    0 -0.41376168290E+02  0.83607315622E+01 -0.58973516124E+02  0.72524235526E+02  0.00000000000E+00 0. -1.
         22    1    4    4    0    0  0.28908559502E+02 -0.93034039870E+01 -0.85465439003E+02  0.90700603097E+02  0.00000000000E+00 0. -1.
         22    1    4    4    0    0  0.12467608788E+02  0.94267242475E+00 -0.45335391818E+02  0.47027945431E+02  0.00000000000E+00 0. -1.
<mgrwt>
<rscale>  0 0.90509284E+02</rscale>
<asrwt>0</asrwt>
<pdfrwt beam="1">  1        3 0.15752645E-02 0.90509284E+02</pdfrwt>
<pdfrwt beam="2">  1       -3 0.30771315E-01 0.90509284E+02</pdfrwt>
<totfact> 0.28534250E+04</totfact>
</mgrwt>
</event>
<event>
 7    1  0.1247599E-009  0.9454495E+02  0.7818608E-02  0.1292204E+00
          3   -1    0    0  501    0  0.00000000000E+00  0.00000000000E+00  0.28319341906E+03  0.28319343707E+03  0.10100000000E+00 0. -1.
         -3   -1    0    0    0  501 -0.00000000000E+00 -0.00000000000E+00 -0.78906851082E+01  0.78913314768E+01  0.10100000000E+00 0.  1.
         23    2    1    2    0    0  0.00000000000E+00  0.00000000000E+00  0.27530273395E+03  0.29108476854E+03  0.94544947823E+02 0.  0.
    9000005    2    3    3    0    0 -0.33250449667E+02 -0.44380238723E+01  0.23910377840E+03  0.24173243484E+03  0.11775599828E+02 0.  0.
         22    1    3    3    0    0  0.33250449667E+02  0.44380238723E+01  0.36198955552E+02  0.49352333704E+02  0.00000000000E+00 0.  1.
         22    1    4    4    0    0 -0.11019272356E+02  0.33250970903E+00  0.46388411281E+02  0.47680390383E+02  0.00000000000E+00 0. -1.
         22    1    4    4    0    0 -0.22231177312E+02 -0.47705335813E+01  0.19271536712E+03  0.19405204446E+03  0.00000000000E+00 0. -1.
<mgrwt>
<rscale>  0 0.94544948E+02</rscale>
<asrwt>0</asrwt>
<pdfrwt beam="1">  1        3 0.43568268E-01 0.94544948E+02</pdfrwt>
<pdfrwt beam="2">  1       -3 0.12140027E-02 0.94544948E+02</pdfrwt>
<totfact> 0.22110567E+04</totfact>
</mgrwt>
</event>
<event>
 7    1  0.1247599E-009  0.9092777E+02  0.7818608E-02  0.1300620E+00
         -3   -1    0    0    0  501 -0.00000000000E+00  0.00000000000E+00  0.97841874881E+01  0.97847087746E+01  0.10100000000E+00 0.  1.
          3   -1    0    0  501    0  0.00000000000E+00 -0.00000000000E+00 -0.21124947769E+03  0.21124950184E+03  0.10100000000E+00 0. -1.
         23    2    1    2    0    0  0.00000000000E+00  0.00000000000E+00 -0.20146529020E+03  0.22103421061E+03  0.90927768605E+02 0.  0.
    9000005    2    3    3    0    0 -0.42441464675E+02  0.47191814368E+01 -0.13299443441E+03  0.14033844436E+03  0.13557683617E+02 0.  0.
         22    1    3    3    0    0  0.42441464675E+02 -0.47191814368E+01 -0.68470855796E+02  0.80695766250E+02  0.00000000000E+00 0.  1.
         22    1    4    4    0    0 -0.42058469033E+02  0.48366988279E+01 -0.11844765871E+03  0.12578615316E+03  0.00000000000E+00 0. -1.
         22    1    4    4    0    0 -0.38299564261E+00 -0.11751739106E+00 -0.14546775699E+02  0.14552291202E+02  0.00000000000E+00 0. -1.
<mgrwt>
<rscale>  0 0.90927769E+02</rscale>
<asrwt>0</asrwt>
<pdfrwt beam="2">  1        3 0.32499958E-01 0.90927769E+02</pdfrwt>
<pdfrwt beam="1">  1       -3 0.15053017E-02 0.90927769E+02</pdfrwt>
<totfact> 0.27649542E+04</totfact>
</mgrwt>
</event>
<event>
 7    1  0.1247599E-009  0.9380086E+02  0.7818608E-02  0.1293900E+00
          3   -1    0    0  501    0  0.00000000000E+00  0.00000000000E+00  0.44744577066E+01  0.44755974761E+01  0.10100000000E+00 0. -1.
         -3   -1    0    0    0  501 -0.00000000000E+00 -0.00000000000E+00 -0.49153780377E+03  0.49153781414E+03  0.10100000000E+00 0.  1.
         23    2    1    2    0    0 -0.71054273576E-14  0.00000000000E+00 -0.48706334606E+03  0.49601341162E+03  0.93800860503E+02 0.  0.
    9000005    2    3    3    0    0 -0.41564002774E+02 -0.20008091237E+02 -0.25252979246E+03  0.25698647212E+03  0.11952436239E+02 0.  0.
         22    1    3    3    0    0  0.41564002774E+02  0.20008091237E+02 -0.23453355360E+03  0.23902693950E+03  0.00000000000E+00 0. -1.
         22    1    4    4    0    0 -0.35500239577E+02 -0.21368886803E+02 -0.22044821060E+03  0.22430851497E+03  0.00000000000E+00 0. -1.
         22    1    4    4    0    0 -0.60637631963E+01  0.13607955659E+01 -0.32081581862E+02  0.32677957149E+02  0.00000000000E+00 0. -1.
<mgrwt>
<rscale>  0 0.93800861E+02</rscale>
<asrwt>0</asrwt>
<pdfrwt beam="1">  1        3 0.68846697E-03 0.93800861E+02</pdfrwt>
<pdfrwt beam="2">  1       -3 0.75621246E-01 0.93800861E+02</pdfrwt>
<totfact> 0.16673290E+04</totfact>
</mgrwt>
</event>
<event>
 7    1  0.1247599E-009  0.9286321E+02  0.7818608E-02  0.1296062E+00
          3   -1    0    0  501    0  0.00000000000E+00  0.00000000000E+00  0.62958371175E+01  0.62966472039E+01  0.10100000000E+00 0. -1.
         -3   -1    0    0    0  501 -0.00000000000E+00 -0.00000000000E+00 -0.34240879928E+03  0.34240881417E+03  0.10100000000E+00 0.  1.
         23    2    1    2    0    0 -0.71054273576E-14 -0.17763568394E-14 -0.33611296216E+03  0.34870546138E+03  0.92863208336E+02 0.  0.
    9000005    2    3    3    0    0  0.36813515173E+02  0.11172177275E+02 -0.26269257799E+03  0.26581634716E+03  0.13072392316E+02 0.  0.
         22    1    3    3    0    0 -0.36813515173E+02 -0.11172177275E+02 -0.73420384170E+02  0.82889114220E+02  0.00000000000E+00 0. -1.
         22    1    4    4    0    0  0.27790729066E+02  0.90991407861E+01 -0.15557136338E+03  0.15829582461E+03  0.00000000000E+00 0. -1.
         22    1    4    4    0    0  0.90227861066E+01  0.20730364887E+01 -0.10712121461E+03  0.10752052255E+03  0.00000000000E+00 0. -1.
<mgrwt>
<rscale>  0 0.92863208E+02</rscale>
<asrwt>0</asrwt>
<pdfrwt beam="1">  1        3 0.96865405E-03 0.92863208E+02</pdfrwt>
<pdfrwt beam="2">  1       -3 0.52678326E-01 0.92863208E+02</pdfrwt>
<totfact> 0.21181886E+04</totfact>
</mgrwt>
</event>
<event>
 7    1  0.1247599E-009  0.9165057E+02  0.7818608E-02  0.1298903E+00
          3   -1    0    0  501    0  0.00000000000E+00  0.00000000000E+00  0.43332562395E+01  0.43344331391E+01  0.10100000000E+00 0. -1.
         -3   -1    0    0    0  501 -0.00000000000E+00 -0.00000000000E+00 -0.48454699391E+03  0.48454700443E+03  0.10100000000E+00 0.  1.
         23    2    1    2    0    0  0.00000000000E+00  0.17763568394E-14 -0.48021373767E+03  0.48888143757E+03  0.91650565510E+02 0.  0.
    9000005    2    3    3    0    0  0.41595010765E+02  0.10287244186E+02 -0.32245214421E+03  0.32540455026E+03  0.87614904013E+01 0.  0.
         22    1    3    3    0    0 -0.41595010765E+02 -0.10287244186E+02 -0.15776159346E+03  0.16347688731E+03  0.00000000000E+00 0. -1.
         22    1    4    4    0    0  0.12256382634E+02  0.17597782915E+01 -0.67289215056E+02  0.68418960806E+02  0.00000000000E+00 0. -1.
         22    1    4    4    0    0  0.29338628131E+02  0.85274658941E+01 -0.25516292915E+03  0.25698558946E+03  0.00000000000E+00 0. -1.
<mgrwt>
<rscale>  0 0.91650566E+02</rscale>
<asrwt>0</asrwt>
<pdfrwt beam="1">  1        3 0.66674653E-03 0.91650566E+02</pdfrwt>
<pdfrwt beam="2">  1       -3 0.74545740E-01 0.91650566E+02</pdfrwt>
<totfact> 0.17914205E+04</totfact>
</mgrwt>
</event>
<event>
 7    1  0.1247599E-009  0.9139100E+02  0.7818608E-02  0.1299518E+00
          3   -1    0    0  501    0  0.00000000000E+00  0.00000000000E+00  0.35508338577E+02  0.35508482219E+02  0.10100000000E+00 0. -1.
         -3   -1    0    0    0  501 -0.00000000000E+00 -0.00000000000E+00 -0.58804996969E+02  0.58805083704E+02  0.10100000000E+00 0.  1.
         23    2    1    2    0    0  0.00000000000E+00  0.35527136788E-14 -0.23296658392E+02  0.94313565923E+02  0.91390997505E+02 0.  0.
    9000005    2    3    3    0    0  0.48945877900E+00 -0.26982291562E+02 -0.49325663867E+02  0.56819663034E+02  0.81956917669E+01 0.  0.
         22    1    3    3    0    0 -0.48945877900E+00  0.26982291562E+02  0.26029005475E+02  0.37493902889E+02  0.00000000000E+00 0. -1.
         22    1    4    4    0    0  0.42449567440E+01 -0.15569132452E+02 -0.29953124991E+02  0.34023627670E+02  0.00000000000E+00 0. -1.
         22    1    4    4    0    0 -0.37554979650E+01 -0.11413159110E+02 -0.19372538876E+02  0.22796035364E+02  0.00000000000E+00 0. -1.
<mgrwt>
<rscale>  0 0.91390998E+02</rscale>
<asrwt>0</asrwt>
<pdfrwt beam="1">  1        3 0.54628390E-02 0.91390998E+02</pdfrwt>
<pdfrwt beam="2">  1       -3 0.90469403E-02 0.91390998E+02</pdfrwt>
<totfact> 0.34875699E+04</totfact>
</mgrwt>
</event>
<event>
 7    1  0.1247599E-009  0.1049008E+03  0.7818608E-02  0.1270315E+00
         -3   -1    0    0    0  501 -0.00000000000E+00  0.00000000000E+00  0.59554291124E+03  0.59554291980E+03  0.10100000000E+00 0.  1.
          3   -1    0    0  501    0  0.00000000000E+00 -0.00000000000E+00 -0.46188261748E+01  0.46199303277E+01  0.10100000000E+00 0. -1.
         23    2    1    2    0    0  0.71054273576E-14 -0.35527136788E-14  0.59092408506E+03  0.60016285013E+03  0.10490077392E+03 0.  0.
    9000005    2    3    3    0    0 -0.45938371855E+02  0.21302813055E+02  0.37228612976E+03  0.37573758562E+03  0.41984497674E+01 0.  0.
         22    1    3    3    0    0  0.45938371855E+02 -0.21302813055E+02  0.21863795530E+03  0.22442526451E+03  0.00000000000E+00 0. -1.
         22    1    4    4    0    0 -0.45067594867E+02  0.20576704277E+02  0.35886544517E+03  0.36226909419E+03  0.00000000000E+00 0.  1.
         22    1    4    4    0    0 -0.87077698805E+00  0.72610877866E+00  0.13420684595E+02  0.13468491435E+02  0.00000000000E+00 0.  1.
<mgrwt>
<rscale>  0 0.10490077E+03</rscale>
<asrwt>0</asrwt>
<pdfrwt beam="2">  1        3 0.71067437E-03 0.10490077E+03</pdfrwt>
<pdfrwt beam="1">  1       -3 0.91622054E-01 0.10490077E+03</pdfrwt>
<totfact> 0.10771808E+04</totfact>
</mgrwt>
</event>
<event>
 7    1  0.1247599E-009  0.9731456E+02  0.7818608E-02  0.1286047E+00
          3   -1    0    0  501    0  0.00000000000E+00  0.00000000000E+00  0.42675462001E+02  0.42675581519E+02  0.10100000000E+00 0. -1.
         -3   -1    0    0    0  501 -0.00000000000E+00 -0.00000000000E+00 -0.55477320490E+02  0.55477412429E+02  0.10100000000E+00 0.  1.
         23    2    1    2    0    0  0.00000000000E+00  0.00000000000E+00 -0.12801858490E+02  0.98152993948E+02  0.97314555130E+02 0.  0.
    9000005    2    3    3    0    0  0.34365820148E+02 -0.61210942255E+01  0.27069603610E+02  0.45160439009E+02  0.93927856835E+01 0.  0.
         22    1    3    3    0    0 -0.34365820148E+02  0.61210942255E+01 -0.39871462100E+02  0.52992554939E+02  0.00000000000E+00 0.  1.
         22    1    4    4    0    0  0.67584975573E+01 -0.34375654294E+01  0.10151178795E+02  0.12670460775E+02  0.00000000000E+00 0.  1.
         22    1    4    4    0    0  0.27607322591E+02 -0.26835287961E+01  0.16918424815E+02  0.32489978234E+02  0.00000000000E+00 0.  1.
<mgrwt>
<rscale>  0 0.97314555E+02</rscale>
<asrwt>0</asrwt>
<pdfrwt beam="1">  1        3 0.65654720E-02 0.97314555E+02</pdfrwt>
<pdfrwt beam="2">  1       -3 0.85349886E-02 0.97314555E+02</pdfrwt>
<totfact> 0.29125858E+04</totfact>
</mgrwt>
</event>
<event>
 7    1  0.1247599E-009  0.9270464E+02  0.7818608E-02  0.1296431E+00
          3   -1    0    0  501    0  0.00000000000E+00  0.00000000000E+00  0.50281807457E+02  0.50281908895E+02  0.10100000000E+00 0. -1.
         -3   -1    0    0    0  501 -0.00000000000E+00 -0.00000000000E+00 -0.42729716390E+02  0.42729835756E+02  0.10100000000E+00 0.  1.
         23    2    1    2    0    0 -0.35527136788E-14  0.00000000000E+00  0.75520910670E+01  0.93011744652E+02  0.92704641543E+02 0.  0.
    9000005    2    3    3    0    0 -0.27937324864E+02 -0.26667588304E+02 -0.21175139828E+02  0.44877472232E+02  0.85992197748E+01 0.  0.
         22    1    3    3    0    0  0.27937324864E+02  0.26667588304E+02  0.28727230895E+02  0.48134272420E+02  0.00000000000E+00 0. -1.
         22    1    4    4    0    0 -0.12727728135E+02 -0.64902598853E+01 -0.82023273307E+01  0.16474122450E+02  0.00000000000E+00 0. -1.
         22    1    4    4    0    0 -0.15209596728E+02 -0.20177328419E+02 -0.12972812497E+02  0.28403349782E+02  0.00000000000E+00 0. -1.
<mgrwt>
<rscale>  0 0.92704642E+02</rscale>
<asrwt>0</asrwt>
<pdfrwt beam="1">  1        3 0.77356796E-02 0.92704642E+02</pdfrwt>
<pdfrwt beam="2">  1       -3 0.65738195E-02 0.92704642E+02</pdfrwt>
<totfact> 0.33636121E+04</totfact>
</mgrwt>
</event>
<event>
 7    1  0.1247599E-009  0.9536446E+02  0.7818608E-02  0.1290357E+00
         -3   -1    0    0    0  501 -0.00000000000E+00  0.00000000000E+00  0.73795051899E+01  0.73801963285E+01  0.10100000000E+00 0.  1.
          3   -1    0    0  501    0  0.00000000000E+00 -0.00000000000E+00 -0.30808076487E+03  0.30808078142E+03  0.10100000000E+00 0. -1.
         23    2    1    2    0    0  0.00000000000E+00  0.00000000000E+00 -0.30070125968E+03  0.31546097775E+03  0.95364463572E+02 0.  0.
    9000005    2    3    3    0    0  0.77220959327E+00 -0.39393548953E+02 -0.65938350730E+02  0.77414613729E+02  0.96285157287E+01 0.  0.
         22    1    3    3    0    0 -0.77220959327E+00  0.39393548953E+02 -0.23476290895E+03  0.23804636402E+03  0.00000000000E+00 0. -1.
         22    1    4    4    0    0 -0.21068498976E+01 -0.12243005107E+02 -0.28391204528E+02  0.30990167555E+02  0.00000000000E+00 0.  1.
         22    1    4    4    0    0  0.28790594909E+01 -0.27150543846E+02 -0.37547146202E+02  0.46424446174E+02  0.00000000000E+00 0.  1.
<mgrwt>
<rscale>  0 0.95364464E+02</rscale>
<asrwt>0</asrwt>
<pdfrwt beam="2">  1        3 0.47397085E-01 0.95364464E+02</pdfrwt>
<pdfrwt beam="1">  1       -3 0.11353632E-02 0.95364464E+02</pdfrwt>
<totfact> 0.20775205E+04</totfact>
</mgrwt>
</event>
<event>
 7    1  0.1247599E-009  0.9407144E+02  0.7818608E-02  0.1293281E+00
         -3   -1    0    0    0  501 -0.00000000000E+00  0.00000000000E+00  0.94376984889E+02  0.94377038933E+02  0.10100000000E+00 0.  1.
          3   -1    0    0  501    0  0.00000000000E+00 -0.00000000000E+00 -0.23441553157E+02  0.23441770740E+02  0.10100000000E+00 0. -1.
         23    2    1    2    0    0  0.00000000000E+00  0.00000000000E+00  0.70935431732E+02  0.11781880967E+03  0.94071443263E+02 0.  0.
    9000005    2    3    3    0    0  0.32459172593E+02 -0.23134966882E+02  0.82548019127E+01  0.43537681971E+02  0.15445498330E+02 0.  0.
         22    1    3    3    0    0 -0.32459172593E+02  0.23134966882E+02  0.62680629819E+02  0.74281127702E+02  0.00000000000E+00 0. -1.
         22    1    4    4    0    0  0.16021007233E+02 -0.94162036399E+01 -0.37983193548E+01  0.18967466717E+02  0.00000000000E+00 0.  1.
         22    1    4    4    0    0  0.16438165361E+02 -0.13718763242E+02  0.12053121268E+02  0.24570215254E+02  0.00000000000E+00 0.  1.
<mgrwt>
<rscale>  0 0.94071443E+02</rscale>
<asrwt>0</asrwt>
<pdfrwt beam="2">  1        3 0.36064137E-02 0.94071443E+02</pdfrwt>
<pdfrwt beam="1">  1       -3 0.14519557E-01 0.94071443E+02</pdfrwt>
<totfact> 0.30670722E+04</totfact>
</mgrwt>
</event>
<event>
 7    1  0.1247599E-009  0.9308143E+02  0.7818608E-02  0.1295557E+00
          3   -1    0    0  501    0  0.00000000000E+00  0.00000000000E+00  0.49448310560E+03  0.49448311591E+03  0.10100000000E+00 0. -1.
         -3   -1    0    0    0  501 -0.00000000000E+00 -0.00000000000E+00 -0.43798163536E+01  0.43809807453E+01  0.10100000000E+00 0.  1.
         23    2    1    2    0    0  0.35527136788E-14  0.44408920985E-15  0.49010328925E+03  0.49886409666E+03  0.93081431050E+02 0.  0.
    9000005    2    3    3    0    0  0.31683495523E+02 -0.59777683328E+00  0.42523124494E+03  0.42666587398E+03  0.14763303161E+02 0.  0.
         22    1    3    3    0    0 -0.31683495523E+02  0.59777683328E+00  0.64872044306E+02  0.72198222680E+02  0.00000000000E+00 0.  1.
         22    1    4    4    0    0  0.28085787804E+02 -0.56517570847E+01  0.33592846810E+03  0.33714787484E+03  0.00000000000E+00 0.  1.
         22    1    4    4    0    0  0.35977077190E+01  0.50539802514E+01  0.89302776844E+02  0.89517999136E+02  0.00000000000E+00 0.  1.
<mgrwt>
<rscale>  0 0.93081431E+02</rscale>
<asrwt>0</asrwt>
<pdfrwt beam="1">  1        3 0.76074415E-01 0.93081431E+02</pdfrwt>
<pdfrwt beam="2">  1       -3 0.67390826E-03 0.93081431E+02</pdfrwt>
<totfact> 0.16974779E+04</totfact>
</mgrwt>
</event>
<event>
 7    1  0.1247599E-009  0.9157383E+02  0.7818608E-02  0.1299085E+00
         -3   -1    0    0    0  501 -0.00000000000E+00  0.00000000000E+00  0.26050837311E+02  0.26051033101E+02  0.10100000000E+00 0.  1.
          3   -1    0    0  501    0  0.00000000000E+00 -0.00000000000E+00 -0.80474483786E+02  0.80474547166E+02  0.10100000000E+00 0. -1.
         23    2    1    2    0    0  0.00000000000E+00  0.88817841970E-15 -0.54423646475E+02  0.10652558027E+03  0.91573827896E+02 0.  0.
    9000005    2    3    3    0    0  0.30512983879E+02  0.54063679728E+01 -0.65703120740E+02  0.73548352676E+02  0.11497352152E+02 0.  0.
         22    1    3    3    0    0 -0.30512983879E+02 -0.54063679728E+01  0.11279474265E+02  0.32977227591E+02  0.00000000000E+00 0.  1.
         22    1    4    4    0    0  0.26556052343E+02  0.86170514913E+01 -0.56778856556E+02  0.63271763404E+02  0.00000000000E+00 0. -1.
         22    1    4    4    0    0  0.39569315363E+01 -0.32106835184E+01 -0.89242641844E+01  0.10276589272E+02  0.00000000000E+00 0. -1.
<mgrwt>
<rscale>  0 0.91573828E+02</rscale>
<asrwt>0</asrwt>
<pdfrwt beam="2">  1        3 0.12380710E-01 0.91573828E+02</pdfrwt>
<pdfrwt beam="1">  1       -3 0.40078411E-02 0.91573828E+02</pdfrwt>
<totfact> 0.33791488E+04</totfact>
</mgrwt>
</event>
<event>
 7    1  0.1247599E-009  0.9160316E+02  0.7818608E-02  0.1299015E+00
          3   -1    0    0  501    0  0.00000000000E+00  0.00000000000E+00  0.20762998098E+01  0.20787548918E+01  0.10100000000E+00 0. -1.
         -3   -1    0    0    0  501 -0.00000000000E+00 -0.00000000000E+00 -0.10097482669E+04  0.10097482719E+04  0.10100000000E+00 0.  1.
         23    2    1    2    0    0  0.27755575616E-15  0.00000000000E+00 -0.10076719671E+04  0.10118270268E+04  0.91603160375E+02 0.  0.
    9000005    2    3    3    0    0  0.14313410656E+00  0.21518107423E+02 -0.94849823215E+03  0.94886211327E+03  0.15078599850E+02 0.  0.
         22    1    3    3    0    0 -0.14313410656E+00 -0.21518107423E+02 -0.59173734936E+02  0.62964913569E+02  0.00000000000E+00 0. -1.
         22    1    4    4    0    0 -0.67414126628E+01  0.11730314592E+02 -0.61613632454E+03  0.61628485081E+03  0.00000000000E+00 0.  1.
         22    1    4    4    0    0  0.68845467694E+01  0.97877928308E+01 -0.33236190761E+03  0.33257726246E+03  0.00000000000E+00 0.  1.
<mgrwt>
<rscale>  0 0.91603160E+02</rscale>
<asrwt>0</asrwt>
<pdfrwt beam="1">  1        3 0.31962079E-03 0.91603160E+02</pdfrwt>
<pdfrwt beam="2">  1       -3 0.15534568E+00 0.91603160E+02</pdfrwt>
<totfact> 0.97372947E+03</totfact>
</mgrwt>
</event>
<event>
 7    1  0.1247599E-009  0.9124350E+02  0.7818608E-02  0.1299868E+00
          3   -1    0    0  501    0  0.00000000000E+00  0.00000000000E+00  0.32287892391E+02  0.32288050360E+02  0.10100000000E+00 0. -1.
         -3   -1    0    0    0  501 -0.00000000000E+00 -0.00000000000E+00 -0.64461702598E+02  0.64461781722E+02  0.10100000000E+00 0.  1.
         23    2    1    2    0    0  0.00000000000E+00  0.00000000000E+00 -0.32173810207E+02  0.96749832082E+02  0.91243498095E+02 0.  0.
    9000005    2    3    3    0    0 -0.80526190329E+01 -0.32820413017E+02 -0.47703179644E+02  0.59558630179E+02  0.11384765993E+02 0.  0.
         22    1    3    3    0    0  0.80526190329E+01  0.32820413017E+02  0.15529369437E+02  0.37191201903E+02  0.00000000000E+00 0. -1.
         22    1    4    4    0    0 -0.67084983043E+00 -0.23726257666E+02 -0.28798076425E+02  0.37319090933E+02  0.00000000000E+00 0. -1.
         22    1    4    4    0    0 -0.73817692025E+01 -0.90941553505E+01 -0.18905103220E+02  0.22239539245E+02  0.00000000000E+00 0. -1.
<mgrwt>
<rscale>  0 0.91243498E+02</rscale>
<asrwt>0</asrwt>
<pdfrwt beam="1">  1        3 0.49673863E-02 0.91243498E+02</pdfrwt>
<pdfrwt beam="2">  1       -3 0.99172032E-02 0.91243498E+02</pdfrwt>
<totfact> 0.34845437E+04</totfact>
</mgrwt>
</event>
<event>
 7    1  0.1247599E-009  0.9365339E+02  0.7818608E-02  0.1294238E+00
         -3   -1    0    0    0  501 -0.00000000000E+00  0.00000000000E+00  0.59198550223E+03  0.59198551084E+03  0.10100000000E+00 0.  1.
          3   -1    0    0  501    0  0.00000000000E+00 -0.00000000000E+00 -0.37033455330E+01  0.37047225452E+01  0.10100000000E+00 0. -1.
         23    2    1    2    0    0  0.00000000000E+00  0.00000000000E+00  0.58828215670E+03  0.59569023339E+03  0.93653394330E+02 0.  0.
    9000005    2    3    3    0    0  0.28594535421E+02  0.34055441023E+02  0.38097382315E+03  0.38366625909E+03  0.90179776830E+01 0.  0.
         22    1    3    3    0    0 -0.28594535421E+02 -0.34055441023E+02  0.20730833355E+03  0.21202397430E+03  0.00000000000E+00 0. -1.
         22    1    4    4    0    0  0.23356964203E+02  0.21619259736E+02  0.27580628737E+03  0.27763653996E+03  0.00000000000E+00 0. -1.
         22    1    4    4    0    0  0.52375712181E+01  0.12436181287E+02  0.10516753577E+03  0.10602971913E+03  0.00000000000E+00 0. -1.
<mgrwt>
<rscale>  0 0.93653394E+02</rscale>
<asrwt>0</asrwt>
<pdfrwt beam="2">  1        3 0.56985260E-03 0.93653394E+02</pdfrwt>
<pdfrwt beam="1">  1       -3 0.91074711E-01 0.93653394E+02</pdfrwt>
<totfact> 0.14696113E+04</totfact>
</mgrwt>
</event>
<event>
 7    1  0.1247599E-009  0.9249387E+02  0.7818608E-02  0.1296922E+00
          3   -1    0    0  501    0  0.00000000000E+00  0.00000000000E+00  0.35570723029E+02  0.35570866419E+02  0.10100000000E+00 0. -1.
         -3   -1    0    0    0  501 -0.00000000000E+00 -0.00000000000E+00 -0.60127207847E+02  0.60127292676E+02  0.10100000000E+00 0.  1.
         23    2    1    2    0    0  0.44408920985E-15  0.00000000000E+00 -0.24556484818E+02  0.95698159094E+02  0.92493873891E+02 0.  0.
    9000005    2    3    3    0    0 -0.39245581120E+01  0.32442705212E+02  0.19625055473E+02  0.40744180345E+02  0.14387986370E+02 0.  0.
         22    1    3    3    0    0  0.39245581120E+01 -0.32442705212E+02 -0.44181540292E+02  0.54953978750E+02  0.00000000000E+00 0.  1.
         22    1    4    4    0    0 -0.86972051970E+01  0.15756085855E+02  0.71277836064E+01  0.19357192949E+02  0.00000000000E+00 0.  1.
         22    1    4    4    0    0  0.47726470850E+01  0.16686619357E+02  0.12497271867E+02  0.21386987396E+02  0.00000000000E+00 0.  1.
<mgrwt>
<rscale>  0 0.92493874E+02</rscale>
<asrwt>0</asrwt>
<pdfrwt beam="1">  1        3 0.54724365E-02 0.92493874E+02</pdfrwt>
<pdfrwt beam="2">  1       -3 0.92503572E-02 0.92493874E+02</pdfrwt>
<totfact> 0.33651024E+04</totfact>
</mgrwt>
</event>
<event>
 7    1  0.1247599E-009  0.8616744E+02  0.7818608E-02  0.1312407E+00
         -3   -1    0    0    0  501 -0.00000000000E+00  0.00000000000E+00  0.19393061949E+02  0.19393324954E+02  0.10100000000E+00 0.  1.
          3   -1    0    0  501    0  0.00000000000E+00 -0.00000000000E+00 -0.95714068629E+02  0.95714121918E+02  0.10100000000E+00 0. -1.
         23    2    1    2    0    0 -0.35527136788E-14  0.00000000000E+00 -0.76321006680E+02  0.11510744687E+03  0.86167443183E+02 0.  0.
    9000005    2    3    3    0    0 -0.27719115608E+02  0.10013877664E+02  0.14740254687E+01  0.31916737397E+02  0.12160520506E+02 0.  0.
         22    1    3    3    0    0  0.27719115608E+02 -0.10013877664E+02 -0.77795032149E+02  0.83190709475E+02  0.00000000000E+00 0. -1.
         22    1    4    4    0    0 -0.28469641107E+02  0.78352909966E+01  0.89905600383E+00  0.29541844077E+02  0.00000000000E+00 0. -1.
         22    1    4    4    0    0  0.75052549882E+00  0.21785866677E+01  0.57496946488E+00  0.23748933194E+01  0.00000000000E+00 0. -1.
<mgrwt>
<rscale>  0 0.86167443E+02</rscale>
<asrwt>0</asrwt>
<pdfrwt beam="2">  1        3 0.14725265E-01 0.86167443E+02</pdfrwt>
<pdfrwt beam="1">  1       -3 0.29835724E-02 0.86167443E+02</pdfrwt>
<totfact> 0.39129209E+04</totfact>
</mgrwt>
</event>
<event>
 7    1  0.1247599E-009  0.8964789E+02  0.7818608E-02  0.1303707E+00
          3   -1    0    0  501    0  0.00000000000E+00  0.00000000000E+00  0.12624547333E+02  0.12624951341E+02  0.10100000000E+00 0. -1.
         -3   -1    0    0    0  501 -0.00000000000E+00 -0.00000000000E+00 -0.15914618712E+03  0.15914621917E+03  0.10100000000E+00 0.  1.
         23    2    1    2    0    0 -0.71054273576E-14 -0.44408920985E-15 -0.14652163979E+03  0.17177117051E+03  0.89647889506E+02 0.  0.
    9000005    2    3    3    0    0  0.43551092925E+02  0.30000184873E+01 -0.59962256939E+02  0.74826729902E+02  0.98928987007E+01 0.  0.
         22    1    3    3    0    0 -0.43551092925E+02 -0.30000184873E+01 -0.86559382850E+02  0.96944440611E+02  0.00000000000E+00 0. -1.
         22    1    4    4    0    0  0.42378632512E+02  0.47364197873E+01 -0.57639580470E+02  0.71698698752E+02  0.00000000000E+00 0. -1.
         22    1    4    4    0    0  0.11724604133E+01 -0.17364012999E+01 -0.23226764685E+01  0.31280311495E+01  0.00000000000E+00 0. -1.
<mgrwt>
<rscale>  0 0.89647890E+02</rscale>
<asrwt>0</asrwt>
<pdfrwt beam="1">  1        3 0.19422717E-02 0.89647890E+02</pdfrwt>
<pdfrwt beam="2">  1       -3 0.24484061E-01 0.89647890E+02</pdfrwt>
<totfact> 0.31427264E+04</totfact>
</mgrwt>
</event>
<event>
 7    1  0.1247599E-009  0.9401243E+02  0.7818608E-02  0.1293416E+00
          3   -1    0    0  501    0  0.00000000000E+00  0.00000000000E+00  0.13313651529E+03  0.13313655360E+03  0.10100000000E+00 0. -1.
         -3   -1    0    0    0  501 -0.00000000000E+00 -0.00000000000E+00 -0.16596187178E+02  0.16596494505E+02  0.10100000000E+00 0.  1.
         23    2    1    2    0    0  0.00000000000E+00  0.00000000000E+00  0.11654032811E+03  0.14973304811E+03  0.94012433318E+02 0.  0.
    9000005    2    3    3    0    0 -0.34670124060E+02 -0.23770836020E+02  0.91498910171E+02  0.10080306997E+03  0.47051255599E+01 0.  0.
         22    1    3    3    0    0  0.34670124060E+02  0.23770836020E+02  0.25041417943E+02  0.48929978132E+02  0.00000000000E+00 0.  1.
         22    1    4    4    0    0 -0.89427419700E+01 -0.42829653627E+01  0.24691611849E+02  0.26608121353E+02  0.00000000000E+00 0.  1.
         22    1    4    4    0    0 -0.25727382090E+02 -0.19487870657E+02  0.66807298321E+02  0.74194948621E+02  0.00000000000E+00 0.  1.
<mgrwt>
<rscale>  0 0.94012433E+02</rscale>
<asrwt>0</asrwt>
<pdfrwt beam="1">  1        3 0.20482567E-01 0.94012433E+02</pdfrwt>
<pdfrwt beam="2">  1       -3 0.25532862E-02 0.94012433E+02</pdfrwt>
<totfact> 0.28822477E+04</totfact>
</mgrwt>
</event>
<event>
 7    1  0.1247599E-009  0.8987308E+02  0.7818608E-02  0.1303159E+00
         -3   -1    0    0    0  501 -0.00000000000E+00  0.00000000000E+00  0.21052700595E+02  0.21052942867E+02  0.10100000000E+00 0.  1.
          3   -1    0    0  501    0  0.00000000000E+00 -0.00000000000E+00 -0.95915254390E+02  0.95915307567E+02  0.10100000000E+00 0. -1.
         23    2    1    2    0    0  0.00000000000E+00  0.00000000000E+00 -0.74862553795E+02  0.11696825043E+03  0.89873075217E+02 0.  0.
    9000005    2    3    3    0    0 -0.68075703239E+01  0.42530187286E+02 -0.25246407960E+02  0.51264964582E+02  0.11642836184E+02 0.  0.
         22    1    3    3    0    0  0.68075703239E+01 -0.42530187286E+02 -0.49616145835E+02  0.65703285853E+02  0.00000000000E+00 0. -1.
         22    1    4    4    0    0  0.11502758150E+01  0.18161985276E+02 -0.58380298818E+01  0.19111866380E+02  0.00000000000E+00 0.  1.
         22    1    4    4    0    0 -0.79578461389E+01  0.24368202009E+02 -0.19408378078E+02  0.32153098201E+02  0.00000000000E+00 0.  1.
<mgrwt>
<rscale>  0 0.89873075E+02</rscale>
<asrwt>0</asrwt>
<pdfrwt beam="2">  1        3 0.14756215E-01 0.89873075E+02</pdfrwt>
<pdfrwt beam="1">  1       -3 0.32388998E-02 0.89873075E+02</pdfrwt>
<totfact> 0.34786819E+04</totfact>
</mgrwt>
</event>
<event>
 7    1  0.1247599E-009  0.9181755E+02  0.7818608E-02  0.1298509E+00
         -3   -1    0    0    0  501 -0.00000000000E+00  0.00000000000E+00  0.54737923921E+01  0.54747241165E+01  0.10100000000E+00 0.  1.
          3   -1    0    0  501    0  0.00000000000E+00 -0.00000000000E+00 -0.38500383908E+03  0.38500385233E+03  0.10100000000E+00 0. -1.
         23    2    1    2    0    0  0.00000000000E+00  0.00000000000E+00 -0.37953004669E+03  0.39047857645E+03  0.91817549103E+02 0.  0.
    9000005    2    3    3    0    0 -0.23769842574E+02 -0.35540078613E+02 -0.13879940849E+03  0.14598043172E+03  0.14727798405E+02 0.  0.
         22    1    3    3    0    0  0.23769842574E+02  0.35540078613E+02 -0.24073063821E+03  0.24449814473E+03  0.00000000000E+00 0. -1.
         22    1    4    4    0    0  0.63897381986E+00 -0.29666423432E+01 -0.32286129147E+01  0.44309362090E+01  0.00000000000E+00 0. -1.
         22    1    4    4    0    0 -0.24408816394E+02 -0.32573436269E+02 -0.13557079557E+03  0.14154949551E+03  0.00000000000E+00 0. -1.
<mgrwt>
<rscale>  0 0.91817549E+02</rscale>
<asrwt>0</asrwt>
<pdfrwt beam="2">  1        3 0.59231412E-01 0.91817549E+02</pdfrwt>
<pdfrwt beam="1">  1       -3 0.84219490E-03 0.91817549E+02</pdfrwt>
<totfact> 0.20516758E+04</totfact>
</mgrwt>
</event>
<event>
 7    1  0.1247599E-009  0.9270696E+02  0.7818608E-02  0.1296426E+00
         -3   -1    0    0    0  501 -0.00000000000E+00  0.00000000000E+00  0.80644018402E+01  0.80650342864E+01  0.10100000000E+00 0.  1.
          3   -1    0    0  501    0  0.00000000000E+00 -0.00000000000E+00 -0.26642467734E+03  0.26642469648E+03  0.10100000000E+00 0. -1.
         23    2    1    2    0    0  0.00000000000E+00  0.71054273576E-14 -0.25836027550E+03  0.27448973077E+03  0.92706959513E+02 0.  0.
    9000005    2    3    3    0    0 -0.20934546211E+02  0.40558366792E+02 -0.14409214331E+03  0.15144322584E+03  0.94482033629E+01 0.  0.
         22    1    3    3    0    0  0.20934546211E+02 -0.40558366792E+02 -0.11426813219E+03  0.12304650493E+03  0.00000000000E+00 0. -1.
         22    1    4    4    0    0 -0.19548442787E+02  0.39260888601E+02 -0.12943759546E+03  0.13666619958E+03  0.00000000000E+00 0. -1.
         22    1    4    4    0    0 -0.13861034239E+01  0.12974781911E+01 -0.14654547851E+02  0.14777026259E+02  0.00000000000E+00 0. -1.
<mgrwt>
<rscale>  0 0.92706960E+02</rscale>
<asrwt>0</asrwt>
<pdfrwt beam="2">  1        3 0.40988455E-01 0.92706960E+02</pdfrwt>
<pdfrwt beam="1">  1       -3 0.12407275E-02 0.92706960E+02</pdfrwt>
<totfact> 0.23954890E+04</totfact>
</mgrwt>
</event>
<event>
 7    1  0.1247599E-009  0.8870918E+02  0.7818608E-02  0.1306008E+00
          3   -1    0    0  501    0  0.00000000000E+00  0.00000000000E+00  0.30345809803E+03  0.30345811483E+03  0.10100000000E+00 0. -1.
         -3   -1    0    0    0  501 -0.00000000000E+00 -0.00000000000E+00 -0.64826252371E+01  0.64834119848E+01  0.10100000000E+00 0.  1.
         23    2    1    2    0    0  0.00000000000E+00  0.00000000000E+00  0.29697547279E+03  0.30994152682E+03  0.88709179956E+02 0.  0.
    9000005    2    3    3    0    0  0.36909289707E+01  0.29251338434E+02  0.26413242435E+03  0.26580617151E+03  0.42094497296E+01 0.  0.
         22    1    3    3    0    0 -0.36909289707E+01 -0.29251338434E+02  0.32843048442E+02  0.44135355305E+02  0.00000000000E+00 0.  1.
         22    1    4    4    0    0  0.13852103963E+01  0.21299296325E+01  0.25590667618E+02  0.25716486486E+02  0.00000000000E+00 0. -1.
         22    1    4    4    0    0  0.23057185744E+01  0.27121408802E+02  0.23854175673E+03  0.24008968503E+03  0.00000000000E+00 0. -1.
<mgrwt>
<rscale>  0 0.88709180E+02</rscale>
<asrwt>0</asrwt>
<pdfrwt beam="1">  1        3 0.46685908E-01 0.88709180E+02</pdfrwt>
<pdfrwt beam="2">  1       -3 0.99738910E-03 0.88709180E+02</pdfrwt>
<totfact> 0.25453143E+04</totfact>
</mgrwt>
</event>
<event>
 7    1  0.1329288E-009  0.9157168E+02  0.7818608E-02  0.1299090E+00
         -3   -1    0    0    0  501 -0.00000000000E+00  0.00000000000E+00  0.69679327127E+02  0.69679400327E+02  0.10100000000E+00 0.  1.
          3   -1    0    0  501    0  0.00000000000E+00 -0.00000000000E+00 -0.30085409400E+02  0.30085578934E+02  0.10100000000E+00 0. -1.
         23    2    1    2    0    0 -0.35527136788E-14  0.00000000000E+00  0.39593917727E+02  0.99764979261E+02  0.91571681026E+02 0.  0.
    9000005    2    3    3    0    0  0.25539620026E+02  0.22362141462E+02  0.51760944396E+02  0.63704279049E+02  0.15056634503E+02 0.  0.
         22    1    3    3    0    0 -0.25539620026E+02 -0.22362141462E+02 -0.12167026669E+02  0.36060700212E+02  0.00000000000E+00 0. -1.
         22    1    4    4    0    0  0.25113192024E+02  0.15131823292E+02  0.36547596030E+02  0.46854789140E+02  0.00000000000E+00 0. -1.
         22    1    4    4    0    0  0.42642800128E+00  0.72303181701E+01  0.15213348366E+02  0.16849489909E+02  0.00000000000E+00 0. -1.
<mgrwt>
<rscale>  0 0.91571681E+02</rscale>
<asrwt>0</asrwt>
<pdfrwt beam="2">  1        3 0.46285432E-02 0.91571681E+02</pdfrwt>
<pdfrwt beam="1">  1       -3 0.10719915E-01 0.91571681E+02</pdfrwt>
<totfact> 0.34283313E+04</totfact>
</mgrwt>
</event>
<event>
 7    1  0.1247599E-009  0.9279394E+02  0.7818608E-02  0.1296223E+00
         -3   -1    0    0    0  501 -0.00000000000E+00  0.00000000000E+00  0.18906773011E+03  0.18906775709E+03  0.10100000000E+00 0.  1.
          3   -1    0    0  501    0  0.00000000000E+00 -0.00000000000E+00 -0.11385502274E+02  0.11385950247E+02  0.10100000000E+00 0. -1.
         23    2    1    2    0    0  0.00000000000E+00  0.00000000000E+00  0.17768222784E+03  0.20045370734E+03  0.92793936737E+02 0.  0.
    9000005    2    3    3    0    0  0.15400204322E+02  0.37875663550E+02  0.41907912562E+02  0.58656680318E+02  0.35497645135E+01 0.  0.
         22    1    3    3    0    0 -0.15400204322E+02 -0.37875663550E+02  0.13577431528E+03  0.14179702702E+03  0.00000000000E+00 0.  1.
         22    1    4    4    0    0  0.52200533000E+00  0.24064054648E+01  0.15715752534E+01  0.29211514173E+01  0.00000000000E+00 0.  1.
         22    1    4    4    0    0  0.14878198992E+02  0.35469258085E+02  0.40336337309E+02  0.55735528901E+02  0.00000000000E+00 0.  1.
<mgrwt>
<rscale>  0 0.92793937E+02</rscale>
<asrwt>0</asrwt>
<pdfrwt beam="2">  1        3 0.17516524E-02 0.92793937E+02</pdfrwt>
<pdfrwt beam="1">  1       -3 0.29087377E-01 0.92793937E+02</pdfrwt>
<totfact> 0.27151681E+04</totfact>
</mgrwt>
</event>
<event>
 7    1  0.1247599E-009  0.9101728E+02  0.7818608E-02  0.1300407E+00
         -3   -1    0    0    0  501 -0.00000000000E+00  0.00000000000E+00  0.15810246216E+02  0.15810568820E+02  0.10100000000E+00 0.  1.
          3   -1    0    0  501    0  0.00000000000E+00 -0.00000000000E+00 -0.13099160923E+03  0.13099164817E+03  0.10100000000E+00 0. -1.
         23    2    1    2    0    0  0.00000000000E+00  0.00000000000E+00 -0.11518136302E+03  0.14680221699E+03  0.91017275979E+02 0.  0.
    9000005    2    3    3    0    0  0.13344533233E+02 -0.28223355806E+02 -0.75561092484E+01  0.34740494582E+02  0.13235286046E+02 0.  0.
         22    1    3    3    0    0 -0.13344533233E+02  0.28223355806E+02 -0.10762525377E+03  0.11206172241E+03  0.00000000000E+00 0. -1.
         22    1    4    4    0    0  0.94214596113E+01 -0.27220585535E+02 -0.93880037796E+01  0.30296184464E+02  0.00000000000E+00 0. -1.
         22    1    4    4    0    0  0.39230736217E+01 -0.10027702702E+01  0.18318945312E+01  0.44443101185E+01  0.00000000000E+00 0. -1.
<mgrwt>
<rscale>  0 0.91017276E+02</rscale>
<asrwt>0</asrwt>
<pdfrwt beam="2">  1        3 0.20152582E-01 0.91017276E+02</pdfrwt>
<pdfrwt beam="1">  1       -3 0.24323735E-02 0.91017276E+02</pdfrwt>
<totfact> 0.31653786E+04</totfact>
</mgrwt>
</event>
<event>
 7    1  0.1247599E-009  0.9258407E+02  0.7818608E-02  0.1296712E+00
         -3   -1    0    0    0  501 -0.00000000000E+00  0.00000000000E+00  0.20012201581E+02  0.20012456449E+02  0.10100000000E+00 0.  1.
          3   -1    0    0  501    0  0.00000000000E+00 -0.00000000000E+00 -0.10708132814E+03  0.10708137577E+03  0.10100000000E+00 0. -1.
         23    2    1    2    0    0  0.71054273576E-14  0.00000000000E+00 -0.87069126555E+02  0.12709383222E+03  0.92584066601E+02 0.  0.
    9000005    2    3    3    0    0  0.39952542764E+02  0.87562626088E+01 -0.71882785378E+02  0.83464681795E+02  0.11240127456E+02 0.  0.
         22    1    3    3    0    0 -0.39952542764E+02 -0.87562626088E+01 -0.15186341177E+02  0.43629150422E+02  0.00000000000E+00 0.  1.
         22    1    4    4    0    0  0.36735391306E+02  0.64211954010E+01 -0.69379330286E+02  0.78766821669E+02  0.00000000000E+00 0.  1.
         22    1    4    4    0    0  0.32171514581E+01  0.23350672078E+01 -0.25034550914E+01  0.46978601261E+01  0.00000000000E+00 0.  1.
<mgrwt>
<rscale>  0 0.92584067E+02</rscale>
<asrwt>0</asrwt>
<pdfrwt beam="2">  1        3 0.16474073E-01 0.92584067E+02</pdfrwt>
<pdfrwt beam="1">  1       -3 0.30788236E-02 0.92584067E+02</pdfrwt>
<totfact> 0.31430564E+04</totfact>
</mgrwt>
</event>
<event>
 7    1  0.1247599E-009  0.9025943E+02  0.7818608E-02  0.1302225E+00
          3   -1    0    0  501    0  0.00000000000E+00  0.00000000000E+00  0.22131662483E+03  0.22131664788E+03  0.10100000000E+00 0.  1.
         -3   -1    0    0    0  501 -0.00000000000E+00 -0.00000000000E+00 -0.92023127981E+01  0.92028670442E+01  0.10100000000E+00 0. -1.
         23    2    1    2    0    0 -0.71054273576E-14  0.00000000000E+00  0.21211431204E+03  0.23051951492E+03  0.90259433803E+02 0.  0.
    9000005    2    3    3    0    0 -0.43287675470E+02  0.22614100686E+01  0.13764072182E+03  0.14434961031E+03  0.35923345854E+01 0.  0.
         22    1    3    3    0    0  0.43287675470E+02 -0.22614100686E+01  0.74473590211E+02  0.86169904619E+02  0.00000000000E+00 0. -1.
         22    1    4    4    0    0 -0.88163262313E+01  0.18654782127E+01  0.27277931787E+02  0.28727916384E+02  0.00000000000E+00 0.  1.
         22    1    4    4    0    0 -0.34471349239E+02  0.39593185589E+00  0.11036279004E+03  0.11562169392E+03  0.00000000000E+00 0.  1.
<mgrwt>
<rscale>  0 0.90259434E+02</rscale>
<asrwt>0</asrwt>
<pdfrwt beam="1">  1        3 0.34048755E-01 0.90259434E+02</pdfrwt>
<pdfrwt beam="2">  1       -3 0.14157849E-02 0.90259434E+02</pdfrwt>
<totfact> 0.27738025E+04</totfact>
</mgrwt>
</event>
<event>
 7    1  0.1247599E-009  0.8217662E+02  0.7818608E-02  0.1322986E+00
          3   -1    0    0  501    0  0.00000000000E+00  0.00000000000E+00  0.19871100216E+02  0.19871356894E+02  0.10100000000E+00 0. -1.
         -3   -1    0    0    0  501 -0.00000000000E+00 -0.00000000000E+00 -0.84959184288E+02  0.84959244323E+02  0.10100000000E+00 0.  1.
         23    2    1    2    0    0  0.00000000000E+00  0.35527136788E-14 -0.65088084072E+02  0.10483060122E+03  0.82176616280E+02 0.  0.
    9000005    2    3    3    0    0 -0.75457305205E+01 -0.27093185522E+02  0.55378423821E+01  0.28810865369E+02  0.29016399319E+01 0.  0.
         22    1    3    3    0    0  0.75457305205E+01  0.27093185522E+02 -0.70625926454E+02  0.76019735847E+02  0.00000000000E+00 0.  1.
         22    1    4    4    0    0 -0.54772316275E+01 -0.22924649113E+02  0.52559450821E+01  0.24148800425E+02  0.00000000000E+00 0.  1.
         22    1    4    4    0    0 -0.20684988930E+01 -0.41685364088E+01  0.28189730006E+00  0.46620649448E+01  0.00000000000E+00 0.  1.
<mgrwt>
<rscale>  0 0.82176616E+02</rscale>
<asrwt>0</asrwt>
<pdfrwt beam="1">  1        3 0.30571168E-02 0.82176616E+02</pdfrwt>
<pdfrwt beam="2">  1       -3 0.13070668E-01 0.82176616E+02</pdfrwt>
<totfact> 0.45436255E+04</totfact>
</mgrwt>
</event>
<event>
 7    1  0.1247599E-009  0.9448214E+02  0.7818608E-02  0.1292347E+00
          3   -1    0    0  501    0  0.00000000000E+00  0.00000000000E+00  0.13680452309E+02  0.13680825135E+02  0.10100000000E+00 0. -1.
         -3   -1    0    0    0  501 -0.00000000000E+00 -0.00000000000E+00 -0.16312933149E+03  0.16312936276E+03  0.10100000000E+00 0.  1.
         23    2    1    2    0    0  0.00000000000E+00  0.00000000000E+00 -0.14944887918E+03  0.17681018789E+03  0.94482141454E+02 0.  0.
    9000005    2    3    3    0    0 -0.24794444494E+02  0.23014530580E+02 -0.13625228191E+03  0.14049788591E+03  0.55261672360E+01 0.  0.
         22    1    3    3    0    0  0.24794444494E+02 -0.23014530580E+02 -0.13196597271E+02  0.36312301980E+02  0.00000000000E+00 0. -1.
         22    1    4    4    0    0 -0.20073999394E+02  0.15381557482E+02 -0.98791766410E+02  0.10197730567E+03  0.00000000000E+00 0. -1.
         22    1    4    4    0    0 -0.47204450996E+01  0.76329730977E+01 -0.37460515502E+02  0.38520580239E+02  0.00000000000E+00 0. -1.
<mgrwt>
<rscale>  0 0.94482141E+02</rscale>
<asrwt>0</asrwt>
<pdfrwt beam="1">  1        3 0.21047162E-02 0.94482141E+02</pdfrwt>
<pdfrwt beam="2">  1       -3 0.25096850E-01 0.94482141E+02</pdfrwt>
<totfact> 0.27004915E+04</totfact>
</mgrwt>
</event>
<event>
 7    1  0.1247599E-009  0.9455094E+02  0.7818608E-02  0.1292191E+00
          3   -1    0    0  501    0  0.00000000000E+00  0.00000000000E+00  0.17219660591E+03  0.17219663553E+03  0.10100000000E+00 0. -1.
         -3   -1    0    0    0  501 -0.00000000000E+00 -0.00000000000E+00 -0.12978947550E+02  0.12979340526E+02  0.10100000000E+00 0.  1.
         23    2    1    2    0    0  0.00000000000E+00  0.00000000000E+00  0.15921765836E+03  0.18517597606E+03  0.94550935346E+02 0.  0.
    9000005    2    3    3    0    0  0.61892794655E+01 -0.36150747120E+02  0.13766427666E+03  0.14263503154E+03  0.69365306362E+01 0.  0.
         22    1    3    3    0    0 -0.61892794655E+01  0.36150747120E+02  0.21553381707E+02  0.42540944520E+02  0.00000000000E+00 0.  1.
         22    1    4    4    0    0 -0.15146290101E+01 -0.77562218772E+01  0.29909317995E+02  0.30935746020E+02  0.00000000000E+00 0. -1.
         22    1    4    4    0    0  0.77039084756E+01 -0.28394525243E+02  0.10775495866E+03  0.11169928552E+03  0.00000000000E+00 0. -1.
<mgrwt>
<rscale>  0 0.94550935E+02</rscale>
<asrwt>0</asrwt>
<pdfrwt beam="1">  1        3 0.26491819E-01 0.94550935E+02</pdfrwt>
<pdfrwt beam="2">  1       -3 0.19967936E-02 0.94550935E+02</pdfrwt>
<totfact> 0.26537137E+04</totfact>
</mgrwt>
</event>
<event>
 7    1  0.1247599E-009  0.8847006E+02  0.7818608E-02  0.1306600E+00
          3   -1    0    0  501    0  0.00000000000E+00  0.00000000000E+00  0.26362133447E+01  0.26381474179E+01  0.10100000000E+00 0. -1.
         -3   -1    0    0    0  501 -0.00000000000E+00 -0.00000000000E+00 -0.74197905138E+03  0.74197905826E+03  0.10100000000E+00 0.  1.
         23    2    1    2    0    0  0.00000000000E+00  0.35527136788E-14 -0.73934283804E+03  0.74461720567E+03  0.88470056114E+02 0.  0.
    9000005    2    3    3    0    0  0.25360767358E+02 -0.29722654647E+02 -0.53466714010E+03  0.53624555202E+03  0.12795961810E+02 0.  0.
         22    1    3    3    0    0 -0.25360767358E+02  0.29722654647E+02 -0.20467569794E+03  0.20837165365E+03  0.00000000000E+00 0. -1.
         22    1    4    4    0    0 -0.18049650023E+00 -0.49619388620E+01 -0.10094171210E+03  0.10106375541E+03  0.00000000000E+00 0. -1.
         22    1    4    4    0    0  0.25541263858E+02 -0.24760715785E+02 -0.43372542800E+03  0.43518179661E+03  0.00000000000E+00 0. -1.
<mgrwt>
<rscale>  0 0.88470056E+02</rscale>
<asrwt>0</asrwt>
<pdfrwt beam="1">  1        3 0.40572118E-03 0.88470056E+02</pdfrwt>
<pdfrwt beam="2">  1       -3 0.11415061E+00 0.88470056E+02</pdfrwt>
<totfact> 0.14278214E+04</totfact>
</mgrwt>
</event>
<event>
 7    1  0.1247599E-009  0.8976737E+02  0.7818608E-02  0.1303416E+00
         -3   -1    0    0    0  501 -0.00000000000E+00  0.00000000000E+00  0.27752467993E+02  0.27752651778E+02  0.10100000000E+00 0.  1.
          3   -1    0    0  501    0  0.00000000000E+00 -0.00000000000E+00 -0.72589306576E+02  0.72589376841E+02  0.10100000000E+00 0. -1.
         23    2    1    2    0    0  0.00000000000E+00  0.00000000000E+00 -0.44836838583E+02  0.10034202862E+03  0.89767369424E+02 0.  0.
    9000005    2    3    3    0    0  0.34176127307E+02  0.16625809156E+02  0.16396764241E+01  0.40304609829E+02  0.13317200416E+02 0.  0.
         22    1    3    3    0    0 -0.34176127307E+02 -0.16625809156E+02 -0.46476515007E+02  0.60037418790E+02  0.00000000000E+00 0. -1.
         22    1    4    4    0    0  0.32041438816E+02  0.17737068179E+02 -0.11234000582E+01  0.36640406885E+02  0.00000000000E+00 0.  1.
         22    1    4    4    0    0  0.21346884902E+01 -0.11112590228E+01  0.27630764824E+01  0.36642029438E+01  0.00000000000E+00 0.  1.
<mgrwt>
<rscale>  0 0.89767369E+02</rscale>
<asrwt>0</asrwt>
<pdfrwt beam="2">  1        3 0.11167605E-01 0.89767369E+02</pdfrwt>
<pdfrwt beam="1">  1       -3 0.42696300E-02 0.89767369E+02</pdfrwt>
<totfact> 0.36142937E+04</totfact>
</mgrwt>
</event>
<event>
 7    1  0.1247599E-009  0.8823262E+02  0.7818608E-02  0.1307189E+00
         -3   -1    0    0    0  501 -0.00000000000E+00  0.00000000000E+00  0.45015667689E+02  0.45015780994E+02  0.10100000000E+00 0.  1.
          3   -1    0    0  501    0  0.00000000000E+00 -0.00000000000E+00 -0.43234689383E+02  0.43234807355E+02  0.10100000000E+00 0. -1.
         23    2    1    2    0    0  0.00000000000E+00  0.00000000000E+00  0.17809783064E+01  0.88250588350E+02  0.88232615627E+02 0.  0.
    9000005    2    3    3    0    0  0.34436388606E+02 -0.14380271912E+02 -0.22267464235E+02  0.43854815249E+02  0.58947244707E+01 0.  0.
         22    1    3    3    0    0 -0.34436388606E+02  0.14380271912E+02  0.24048442541E+02  0.44395773100E+02  0.00000000000E+00 0.  1.
         22    1    4    4    0    0  0.13322673904E+01 -0.18588198361E+01 -0.21757043677E+01  0.31565546215E+01  0.00000000000E+00 0. -1.
         22    1    4    4    0    0  0.33104121216E+02 -0.12521452076E+02 -0.20091759867E+02  0.40698260628E+02  0.00000000000E+00 0. -1.
<mgrwt>
<rscale>  0 0.88232616E+02</rscale>
<asrwt>0</asrwt>
<pdfrwt beam="2">  1        3 0.66515085E-02 0.88232616E+02</pdfrwt>
<pdfrwt beam="1">  1       -3 0.69255051E-02 0.88232616E+02</pdfrwt>
<totfact> 0.38882170E+04</totfact>
</mgrwt>
</event>
<event>
 7    1  0.1247599E-009  0.9135111E+02  0.7818608E-02  0.1299612E+00
         -3   -1    0    0    0  501 -0.00000000000E+00  0.00000000000E+00  0.18151726087E+03  0.18151728897E+03  0.10100000000E+00 0.  1.
          3   -1    0    0  501    0  0.00000000000E+00 -0.00000000000E+00 -0.11493180941E+02  0.11493624718E+02  0.10100000000E+00 0. -1.
         23    2    1    2    0    0  0.35527136788E-14  0.88817841970E-15  0.17002407993E+03  0.19301091369E+03  0.91351108624E+02 0.  0.
    9000005    2    3    3    0    0 -0.26312752833E+02 -0.41266960826E+01  0.16307632959E+03  0.16548525626E+03  0.90603633312E+01 0.  0.
         22    1    3    3    0    0  0.26312752833E+02  0.41266960826E+01  0.69477503394E+01  0.27525657431E+02  0.00000000000E+00 0. -1.
         22    1    4    4    0    0 -0.13730285389E+02  0.18536878725E+01  0.68362989718E+02  0.69752815419E+02  0.00000000000E+00 0. -1.
         22    1    4    4    0    0 -0.12582467444E+02 -0.59803839551E+01  0.94713339872E+02  0.95732440839E+02  0.00000000000E+00 0. -1.
<mgrwt>
<rscale>  0 0.91351109E+02</rscale>
<asrwt>0</asrwt>
<pdfrwt beam="2">  1        3 0.17682180E-02 0.91351109E+02</pdfrwt>
<pdfrwt beam="1">  1       -3 0.27925768E-01 0.91351109E+02</pdfrwt>
<totfact> 0.28714502E+04</totfact>
</mgrwt>
</event>
<event>
 7    1  0.1247599E-009  0.9035439E+02  0.7818608E-02  0.1301996E+00
          3   -1    0    0  501    0  0.00000000000E+00  0.00000000000E+00  0.16315803279E+03  0.16315806405E+03  0.10100000000E+00 0. -1.
         -3   -1    0    0    0  501 -0.00000000000E+00 -0.00000000000E+00 -0.12508978116E+02  0.12509385856E+02  0.10100000000E+00 0.  1.
         23    2    1    2    0    0 -0.88817841970E-15  0.00000000000E+00  0.15064905467E+03  0.17566744990E+03  0.90354387179E+02 0.  0.
    9000005    2    3    3    0    0 -0.57237105107E+01 -0.41042138182E+02  0.10519177172E+03  0.11415661718E+03  0.15786273812E+02 0.  0.
         22    1    3    3    0    0  0.57237105107E+01  0.41042138182E+02  0.45457282951E+02  0.61510832720E+02  0.00000000000E+00 0.  1.
         22    1    4    4    0    0 -0.91900430872E+01 -0.32586240468E+02  0.69426268460E+02  0.77242000958E+02  0.00000000000E+00 0.  1.
         22    1    4    4    0    0  0.34663325765E+01 -0.84558977139E+01  0.35765503261E+02  0.36914616227E+02  0.00000000000E+00 0.  1.
<mgrwt>
<rscale>  0 0.90354387E+02</rscale>
<asrwt>0</asrwt>
<pdfrwt beam="1">  1        3 0.25101269E-01 0.90354387E+02</pdfrwt>
<pdfrwt beam="2">  1       -3 0.19244920E-02 0.90354387E+02</pdfrwt>
<totfact> 0.30544251E+04</totfact>
</mgrwt>
</event>
<event>
 7    1  0.1247599E-009  0.9059590E+02  0.7818608E-02  0.1301415E+00
          3   -1    0    0  501    0  0.00000000000E+00  0.00000000000E+00  0.16457782541E+02  0.16458092452E+02  0.10100000000E+00 0. -1.
         -3   -1    0    0    0  501 -0.00000000000E+00 -0.00000000000E+00 -0.12467533983E+03  0.12467538074E+03  0.10100000000E+00 0.  1.
         23    2    1    2    0    0  0.00000000000E+00  0.00000000000E+00 -0.10821755729E+03  0.14113347319E+03  0.90595902500E+02 0.  0.
    9000005    2    3    3    0    0  0.23292421869E+02 -0.37120941135E+02 -0.69323209618E+02  0.82539348333E+02  0.93024429199E+01 0.  0.
         22    1    3    3    0    0 -0.23292421869E+02  0.37120941135E+02 -0.38894347674E+02  0.58594124861E+02  0.00000000000E+00 0. -1.
         22    1    4    4    0    0  0.82628177882E+01 -0.18551036307E+02 -0.38648686909E+02  0.43659318658E+02  0.00000000000E+00 0. -1.
         22    1    4    4    0    0  0.15029604081E+02 -0.18569904828E+02 -0.30674522708E+02  0.38880029675E+02  0.00000000000E+00 0. -1.
<mgrwt>
<rscale>  0 0.90595902E+02</rscale>
<asrwt>0</asrwt>
<pdfrwt beam="1">  1        3 0.25319936E-02 0.90595902E+02</pdfrwt>
<pdfrwt beam="2">  1       -3 0.19180848E-01 0.90595902E+02</pdfrwt>
<totfact> 0.32415741E+04</totfact>
</mgrwt>
</event>
<event>
 7    1  0.1247599E-009  0.9255848E+02  0.7818608E-02  0.1296772E+00
          3   -1    0    0  501    0  0.00000000000E+00  0.00000000000E+00  0.19641059372E+03  0.19641061969E+03  0.10100000000E+00 0. -1.
         -3   -1    0    0    0  501 -0.00000000000E+00 -0.00000000000E+00 -0.10904283495E+02  0.10904751237E+02  0.10100000000E+00 0.  1.
         23    2    1    2    0    0 -0.71054273576E-14 -0.17763568394E-14  0.18550631023E+03  0.20731537093E+03  0.92558478210E+02 0.  0.
    9000005    2    3    3    0    0 -0.42611447229E+02 -0.13870005539E+02  0.11579426962E+03  0.12444269090E+03  0.83401411317E+01 0.  0.
         22    1    3    3    0    0  0.42611447229E+02  0.13870005539E+02  0.69712040610E+02  0.82872680025E+02  0.00000000000E+00 0.  1.
         22    1    4    4    0    0 -0.26406241375E+02 -0.92166022323E+01  0.60851034400E+02  0.66970767711E+02  0.00000000000E+00 0. -1.
         22    1    4    4    0    0 -0.16205205854E+02 -0.46534033071E+01  0.54943235219E+02  0.57471923192E+02  0.00000000000E+00 0. -1.
<mgrwt>
<rscale>  0 0.92558478E+02</rscale>
<asrwt>0</asrwt>
<pdfrwt beam="1">  1        3 0.30217051E-01 0.92558478E+02</pdfrwt>
<pdfrwt beam="2">  1       -3 0.16776201E-02 0.92558478E+02</pdfrwt>
<totfact> 0.27004336E+04</totfact>
</mgrwt>
</event>
<event>
 7    1  0.1247599E-009  0.9195417E+02  0.7818608E-02  0.1298187E+00
          3   -1    0    0  501    0  0.00000000000E+00  0.00000000000E+00  0.28579235653E+02  0.28579414122E+02  0.10100000000E+00 0. -1.
         -3   -1    0    0    0  501 -0.00000000000E+00 -0.00000000000E+00 -0.73965571383E+02  0.73965640341E+02  0.10100000000E+00 0.  1.
         23    2    1    2    0    0  0.00000000000E+00  0.00000000000E+00 -0.45386335730E+02  0.10254505446E+03  0.91954166429E+02 0.  0.
    9000005    2    3    3    0    0  0.42810045463E+02 -0.46721842774E+01 -0.36330481926E+02  0.58538943676E+02  0.15886305776E+02 0.  0.
         22    1    3    3    0    0 -0.42810045463E+02  0.46721842774E+01 -0.90558538032E+01  0.44006110787E+02  0.00000000000E+00 0. -1.
         22    1    4    4    0    0  0.13145347679E+02  0.58036430898E+00 -0.20884349055E+02  0.24683861607E+02  0.00000000000E+00 0. -1.
         22    1    4    4    0    0  0.29664697784E+02 -0.52525485864E+01 -0.15446132871E+02  0.33855082069E+02  0.00000000000E+00 0. -1.
<mgrwt>
<rscale>  0 0.91954166E+02</rscale>
<asrwt>0</asrwt>
<pdfrwt beam="1">  1        3 0.43968245E-02 0.91954166E+02</pdfrwt>
<pdfrwt beam="2">  1       -3 0.11379338E-01 0.91954166E+02</pdfrwt>
<totfact> 0.33695697E+04</totfact>
</mgrwt>
</event>
<event>
 7    1  0.1247599E-009  0.9145916E+02  0.7818608E-02  0.1299356E+00
          3   -1    0    0  501    0  0.00000000000E+00  0.00000000000E+00  0.41393962788E+02  0.41394086006E+02  0.10100000000E+00 0. -1.
         -3   -1    0    0    0  501 -0.00000000000E+00 -0.00000000000E+00 -0.50519061989E+02  0.50519162951E+02  0.10100000000E+00 0.  1.
         23    2    1    2    0    0  0.00000000000E+00  0.00000000000E+00 -0.91250992013E+01  0.91913248957E+02  0.91459159730E+02 0.  0.
    9000005    2    3    3    0    0 -0.94166405161E+01 -0.42589492131E+02 -0.16332623566E+02  0.47703675718E+02  0.10312522771E+02 0.  0.
         22    1    3    3    0    0  0.94166405161E+01  0.42589492131E+02  0.72075243644E+01  0.44209573239E+02  0.00000000000E+00 0. -1.
         22    1    4    4    0    0  0.14709052155E+01 -0.88178233990E+00 -0.65730657714E+00  0.18366148710E+01  0.00000000000E+00 0. -1.
         22    1    4    4    0    0 -0.10887545732E+02 -0.41707709791E+02 -0.15675316988E+02  0.45867060847E+02  0.00000000000E+00 0. -1.
<mgrwt>
<rscale>  0 0.91459160E+02</rscale>
<asrwt>0</asrwt>
<pdfrwt beam="1">  1        3 0.63683192E-02 0.91459160E+02</pdfrwt>
<pdfrwt beam="2">  1       -3 0.77721806E-02 0.91459160E+02</pdfrwt>
<totfact> 0.34986022E+04</totfact>
</mgrwt>
</event>
<event>
 7    1  0.1247599E-009  0.8900783E+02  0.7818608E-02  0.1305272E+00
          3   -1    0    0  501    0  0.00000000000E+00  0.00000000000E+00  0.23918485565E+03  0.23918487698E+03  0.10100000000E+00 0. -1.
         -3   -1    0    0    0  501 -0.00000000000E+00 -0.00000000000E+00 -0.82802883177E+01  0.82809042757E+01  0.10100000000E+00 0.  1.
         23    2    1    2    0    0 -0.35527136788E-14  0.00000000000E+00  0.23090456733E+03  0.24746578125E+03  0.89007829290E+02 0.  0.
    9000005    2    3    3    0    0  0.30209568094E+02  0.10822046250E+02  0.20069417147E+03  0.20339308327E+03  0.78013568348E+01 0.  0.
         22    1    3    3    0    0 -0.30209568094E+02 -0.10822046250E+02  0.30210395859E+02  0.44072697982E+02  0.00000000000E+00 0.  1.
         22    1    4    4    0    0  0.19157963507E+02  0.44068133945E+01  0.10220509437E+03  0.10407847465E+03  0.00000000000E+00 0.  1.
         22    1    4    4    0    0  0.11051604587E+02  0.64152328552E+01  0.98489077107E+02  0.99314608623E+02  0.00000000000E+00 0.  1.
<mgrwt>
<rscale>  0 0.89007829E+02</rscale>
<asrwt>0</asrwt>
<pdfrwt beam="1">  1        3 0.36797715E-01 0.89007829E+02</pdfrwt>
<pdfrwt beam="2">  1       -3 0.12739397E-02 0.89007829E+02</pdfrwt>
<totfact> 0.27966242E+04</totfact>
</mgrwt>
</event>
<event>
 7    1  0.1508857E-009  0.1024151E+03  0.7818608E-02  0.1275298E+00
         -3   -1    0    0    0  501 -0.00000000000E+00  0.00000000000E+00  0.18828854157E+02  0.18829125043E+02  0.10100000000E+00 0.  1.
          3   -1    0    0  501    0  0.00000000000E+00 -0.00000000000E+00 -0.13926429398E+03  0.13926433060E+03  0.10100000000E+00 0. -1.
         23    2    1    2    0    0  0.00000000000E+00  0.17763568394E-14 -0.12043543982E+03  0.15809345565E+03  0.10241506507E+03 0.  0.
    9000005    2    3    3    0    0  0.42451651277E+02 -0.15534768587E+02 -0.95398518223E+02  0.10641832454E+03  0.13435430344E+02 0.  0.
         22    1    3    3    0    0 -0.42451651277E+02  0.15534768587E+02 -0.25036921598E+02  0.51675131101E+02  0.00000000000E+00 0.  1.
         22    1    4    4    0    0  0.35547661154E+02 -0.17810720107E+02 -0.77613762249E+02  0.87205240982E+02  0.00000000000E+00 0.  1.
         22    1    4    4    0    0  0.69039901233E+01  0.22759515195E+01 -0.17784755974E+02  0.19213083563E+02  0.00000000000E+00 0.  1.
<mgrwt>
<rscale>  0 0.10241507E+03</rscale>
<asrwt>0</asrwt>
<pdfrwt beam="2">  1        3 0.21425299E-01 0.10241507E+03</pdfrwt>
<pdfrwt beam="1">  1       -3 0.28967705E-02 0.10241507E+03</pdfrwt>
<totfact> 0.22446130E+04</totfact>
</mgrwt>
</event>
<event>
 7    1  0.1247599E-009  0.9320267E+02  0.7818608E-02  0.1295276E+00
          3   -1    0    0  501    0  0.00000000000E+00  0.00000000000E+00  0.28161203913E+02  0.28161385030E+02  0.10100000000E+00 0. -1.
         -3   -1    0    0    0  501 -0.00000000000E+00 -0.00000000000E+00 -0.77115717030E+02  0.77115783171E+02  0.10100000000E+00 0.  1.
         23    2    1    2    0    0  0.00000000000E+00 -0.88817841970E-15 -0.48954513117E+02  0.10527716820E+03  0.93202670509E+02 0.  0.
    9000005    2    3    3    0    0 -0.38184892980E+02 -0.53163560038E+01  0.25649619724E+01  0.40929627405E+02  0.13502061936E+02 0.  0.
         22    1    3    3    0    0  0.38184892980E+02  0.53163560038E+01 -0.51519475090E+02  0.64347540797E+02  0.00000000000E+00 0.  1.
         22    1    4    4    0    0  0.56716240695E+00  0.12780782115E+01 -0.53802290758E+00  0.14982075155E+01  0.00000000000E+00 0. -1.
         22    1    4    4    0    0 -0.38752055387E+02 -0.65944342153E+01  0.31029848800E+01  0.39431419889E+02  0.00000000000E+00 0. -1.
<mgrwt>
<rscale>  0 0.93202671E+02</rscale>
<asrwt>0</asrwt>
<pdfrwt beam="1">  1        3 0.43325120E-02 0.93202671E+02</pdfrwt>
<pdfrwt beam="2">  1       -3 0.11863975E-01 0.93202671E+02</pdfrwt>
<totfact> 0.32290728E+04</totfact>
</mgrwt>
</event>
<event>
 7    1  0.1247599E-009  0.7973443E+02  0.7818608E-02  0.1329807E+00
         -3   -1    0    0    0  501 -0.00000000000E+00  0.00000000000E+00  0.28263995340E+03  0.28263997145E+03  0.10100000000E+00 0.  1.
          3   -1    0    0  501    0  0.00000000000E+00 -0.00000000000E+00 -0.56229183928E+01  0.56238254109E+01  0.10100000000E+00 0. -1.
         23    2    1    2    0    0  0.00000000000E+00  0.00000000000E+00  0.27701703501E+03  0.28826379686E+03  0.79734427283E+02 0.  0.
    9000005    2    3    3    0    0  0.24773188138E+02 -0.17956406890E+02  0.22827440608E+03  0.23071392914E+03  0.13548772334E+02 0.  0.
         22    1    3    3    0    0 -0.24773188138E+02  0.17956406890E+02  0.48742628930E+02  0.57549867714E+02  0.00000000000E+00 0. -1.
         22    1    4    4    0    0  0.91694938075E+01 -0.66351120269E+01  0.13467898009E+03  0.13515373471E+03  0.00000000000E+00 0.  1.
         22    1    4    4    0    0  0.15603694330E+02 -0.11321294863E+02  0.93595425994E+02  0.95560194438E+02  0.00000000000E+00 0.  1.
<mgrwt>
<rscale>  0 0.79734427E+02</rscale>
<asrwt>0</asrwt>
<pdfrwt beam="2">  1        3 0.86513549E-03 0.79734427E+02</pdfrwt>
<pdfrwt beam="1">  1       -3 0.43483143E-01 0.79734427E+02</pdfrwt>
<totfact> 0.34990683E+04</totfact>
</mgrwt>
</event>
<event>
 7    1  0.1247599E-009  0.8907464E+02  0.7818608E-02  0.1305108E+00
         -3   -1    0    0    0  501 -0.00000000000E+00  0.00000000000E+00  0.92375914889E+01  0.92381436185E+01  0.10100000000E+00 0.  1.
          3   -1    0    0  501    0  0.00000000000E+00 -0.00000000000E+00 -0.21472137913E+03  0.21472140288E+03  0.10100000000E+00 0. -1.
         23    2    1    2    0    0  0.00000000000E+00  0.00000000000E+00 -0.20548378764E+03  0.22395954650E+03  0.89074639972E+02 0.  0.
    9000005    2    3    3    0    0  0.35984440532E+02  0.23458902108E+02 -0.97039914928E+02  0.10731790052E+03  0.15974562099E+02 0.  0.
         22    1    3    3    0    0 -0.35984440532E+02 -0.23458902108E+02 -0.10844387271E+03  0.11664164598E+03  0.00000000000E+00 0. -1.
         22    1    4    4    0    0  0.36602010802E+02  0.20980971614E+02 -0.83652684303E+02  0.93689273429E+02  0.00000000000E+00 0. -1.
         22    1    4    4    0    0 -0.61757026994E+00  0.24779304940E+01 -0.13387230624E+02  0.13628627090E+02  0.00000000000E+00 0. -1.
<mgrwt>
<rscale>  0 0.89074640E+02</rscale>
<asrwt>0</asrwt>
<pdfrwt beam="2">  1        3 0.33034099E-01 0.89074640E+02</pdfrwt>
<pdfrwt beam="1">  1       -3 0.14212124E-02 0.89074640E+02</pdfrwt>
<totfact> 0.29071682E+04</totfact>
</mgrwt>
</event>
<event>
 7    1  0.1247599E-009  0.8987004E+02  0.7818608E-02  0.1303167E+00
          3   -1    0    0  501    0  0.00000000000E+00  0.00000000000E+00  0.30687989391E+02  0.30688155595E+02  0.10100000000E+00 0. -1.
         -3   -1    0    0    0  501 -0.00000000000E+00 -0.00000000000E+00 -0.65795908666E+02  0.65795986186E+02  0.10100000000E+00 0.  1.
         23    2    1    2    0    0  0.00000000000E+00 -0.17763568394E-14 -0.35107919275E+02  0.96484141781E+02  0.89870037384E+02 0.  0.
    9000005    2    3    3    0    0 -0.41119299138E+02  0.10889287917E+02 -0.24724566725E+01  0.42870274431E+02  0.47301199653E+01 0.  0.
         22    1    3    3    0    0  0.41119299138E+02 -0.10889287917E+02 -0.32635462603E+02  0.53613867350E+02  0.00000000000E+00 0.  1.
         22    1    4    4    0    0 -0.31528136470E+02  0.97307190961E+01 -0.33727074867E+01  0.33167535923E+02  0.00000000000E+00 0. -1.
         22    1    4    4    0    0 -0.95911626681E+01  0.11585688205E+01  0.90025081419E+00  0.97027385086E+01  0.00000000000E+00 0. -1.
<mgrwt>
<rscale>  0 0.89870037E+02</rscale>
<asrwt>0</asrwt>
<pdfrwt beam="1">  1        3 0.47212479E-02 0.89870037E+02</pdfrwt>
<pdfrwt beam="2">  1       -3 0.10122466E-01 0.89870037E+02</pdfrwt>
<totfact> 0.36332394E+04</totfact>
</mgrwt>
</event>
<event>
 7    1  0.1247599E-009  0.9183987E+02  0.7818608E-02  0.1298456E+00
         -3   -1    0    0    0  501 -0.00000000000E+00  0.00000000000E+00  0.30690610533E+02  0.30690776723E+02  0.10100000000E+00 0.  1.
          3   -1    0    0  501    0  0.00000000000E+00 -0.00000000000E+00 -0.68705987480E+02  0.68706061716E+02  0.10100000000E+00 0. -1.
         23    2    1    2    0    0  0.00000000000E+00  0.00000000000E+00 -0.38015376947E+02  0.99396838440E+02  0.91839874823E+02 0.  0.
    9000005    2    3    3    0    0 -0.40230595889E+02 -0.14770473170E+02 -0.35389536224E+02  0.56460108677E+02  0.99326166973E+01 0.  0.
         22    1    3    3    0    0  0.40230595889E+02  0.14770473170E+02 -0.26258407226E+01  0.42936729763E+02  0.00000000000E+00 0.  1.
         22    1    4    4    0    0 -0.17324472119E+02 -0.40434074613E+01 -0.20363769134E+02  0.27040147400E+02  0.00000000000E+00 0. -1.
         22    1    4    4    0    0 -0.22906123770E+02 -0.10727065708E+02 -0.15025767090E+02  0.29419961277E+02  0.00000000000E+00 0. -1.
<mgrwt>
<rscale>  0 0.91839875E+02</rscale>
<asrwt>0</asrwt>
<pdfrwt beam="2">  1        3 0.10570170E-01 0.91839875E+02</pdfrwt>
<pdfrwt beam="1">  1       -3 0.47216509E-02 0.91839875E+02</pdfrwt>
<totfact> 0.34036371E+04</totfact>
</mgrwt>
</event>
<event>
 7    1  0.1247599E-009  0.1031701E+03  0.7818608E-02  0.1273767E+00
         -3   -1    0    0    0  501 -0.00000000000E+00  0.00000000000E+00  0.27247586990E+02  0.27247774181E+02  0.10100000000E+00 0.  1.
          3   -1    0    0  501    0  0.00000000000E+00 -0.00000000000E+00 -0.97660150719E+02  0.97660202946E+02  0.10100000000E+00 0. -1.
         23    2    1    2    0    0  0.00000000000E+00 -0.44408920985E-15 -0.70412563728E+02  0.12490797713E+03  0.10317011980E+03 0.  0.
    9000005    2    3    3    0    0  0.21220455404E+02 -0.29703899554E+01  0.20700974518E+02  0.31308790187E+02  0.96218009182E+01 0.  0.
         22    1    3    3    0    0 -0.21220455404E+02  0.29703899554E+01 -0.91113538246E+02  0.93599186940E+02  0.00000000000E+00 0. -1.
         22    1    4    4    0    0  0.51577438117E+01  0.32813092541E+01  0.69758084331E+01  0.92753013398E+01  0.00000000000E+00 0. -1.
         22    1    4    4    0    0  0.16062711592E+02 -0.62516992095E+01  0.13725166085E+02  0.22033488847E+02  0.00000000000E+00 0. -1.
<mgrwt>
<rscale>  0 0.10317012E+03</rscale>
<asrwt>0</asrwt>
<pdfrwt beam="2">  1        3 0.15024657E-01 0.10317012E+03</pdfrwt>
<pdfrwt beam="1">  1       -3 0.41919549E-02 0.10317012E+03</pdfrwt>
<totfact> 0.23468697E+04</totfact>
</mgrwt>
</event>
<event>
 7    1  0.1247599E-009  0.9690069E+02  0.7818608E-02  0.1286952E+00
         -3   -1    0    0    0  501 -0.00000000000E+00  0.00000000000E+00  0.11169098659E+03  0.11169103226E+03  0.10100000000E+00 0.  1.
          3   -1    0    0  501    0  0.00000000000E+00 -0.00000000000E+00 -0.21017067642E+02  0.21017310324E+02  0.10100000000E+00 0. -1.
         23    2    1    2    0    0  0.00000000000E+00  0.00000000000E+00  0.90673918949E+02  0.13270834258E+03  0.96900694595E+02 0.  0.
    9000005    2    3    3    0    0 -0.16872078641E+02 -0.42739160352E+02  0.65092211091E+02  0.80118166291E+02  0.84036753788E+01 0.  0.
         22    1    3    3    0    0  0.16872078641E+02  0.42739160352E+02  0.25581707858E+02  0.52590176290E+02  0.00000000000E+00 0.  1.
         22    1    4    4    0    0 -0.94242612116E+00 -0.11593254132E+02  0.14081289131E+02  0.18264019600E+02  0.00000000000E+00 0. -1.
         22    1    4    4    0    0 -0.15929652520E+02 -0.31145906221E+02  0.51010921960E+02  0.61854146691E+02  0.00000000000E+00 0. -1.
<mgrwt>
<rscale>  0 0.96900695E+02</rscale>
<asrwt>0</asrwt>
<pdfrwt beam="2">  1        3 0.32334172E-02 0.96900695E+02</pdfrwt>
<pdfrwt beam="1">  1       -3 0.17183251E-01 0.96900695E+02</pdfrwt>
<totfact> 0.27445187E+04</totfact>
</mgrwt>
</event>
<event>
 7    1  0.1303558E-009  0.8645472E+02  0.7818608E-02  0.1311672E+00
          3   -1    0    0  501    0  0.00000000000E+00  0.00000000000E+00  0.61674070999E+02  0.61674153700E+02  0.10100000000E+00 0. -1.
         -3   -1    0    0    0  501 -0.00000000000E+00 -0.00000000000E+00 -0.30297869766E+02  0.30298038111E+02  0.10100000000E+00 0.  1.
         23    2    1    2    0    0  0.00000000000E+00  0.00000000000E+00  0.31376201233E+02  0.91972191810E+02  0.86454716833E+02 0.  0.
    9000005    2    3    3    0    0 -0.62325856193E+01  0.38916585489E+02  0.31013462608E+02  0.52558015060E+02  0.15721460950E+02 0.  0.
         22    1    3    3    0    0  0.62325856193E+01 -0.38916585489E+02  0.36273862466E+00  0.39414176751E+02  0.00000000000E+00 0.  1.
         22    1    4    4    0    0 -0.11203900954E+02  0.22679405798E+02  0.20737248976E+02  0.32709575647E+02  0.00000000000E+00 0. -1.
         22    1    4    4    0    0  0.49713153347E+01  0.16237179692E+02  0.10276213632E+02  0.19848439412E+02  0.00000000000E+00 0. -1.
<mgrwt>
<rscale>  0 0.86454717E+02</rscale>
<asrwt>0</asrwt>
<pdfrwt beam="1">  1        3 0.94883379E-02 0.86454717E+02</pdfrwt>
<pdfrwt beam="2">  1       -3 0.46612301E-02 0.86454717E+02</pdfrwt>
<totfact> 0.40749583E+04</totfact>
</mgrwt>
</event>
<event>
 7    1  0.1247599E-009  0.9011271E+02  0.7818608E-02  0.1302579E+00
         -3   -1    0    0    0  501 -0.00000000000E+00  0.00000000000E+00  0.14631057239E+02  0.14631405842E+02  0.10100000000E+00 0.  1.
          3   -1    0    0  501    0  0.00000000000E+00 -0.00000000000E+00 -0.13874906335E+03  0.13874910011E+03  0.10100000000E+00 0. -1.
         23    2    1    2    0    0  0.00000000000E+00  0.00000000000E+00 -0.12411800611E+03  0.15338050595E+03  0.90112708124E+02 0.  0.
    9000005    2    3    3    0    0 -0.44591274851E+02  0.65820339353E+00 -0.66407505332E+02  0.80446858542E+02  0.85396288153E+01 0.  0.
         22    1    3    3    0    0  0.44591274851E+02 -0.65820339353E+00 -0.57710500780E+02  0.72933647412E+02  0.00000000000E+00 0.  1.
         22    1    4    4    0    0 -0.25781115865E+02  0.39777506688E+01 -0.42189461109E+02  0.49602813069E+02  0.00000000000E+00 0.  1.
         22    1    4    4    0    0 -0.18810158985E+02 -0.33195472753E+01 -0.24218044223E+02  0.30844045473E+02  0.00000000000E+00 0.  1.
<mgrwt>
<rscale>  0 0.90112708E+02</rscale>
<asrwt>0</asrwt>
<pdfrwt beam="2">  1        3 0.21346039E-01 0.90112708E+02</pdfrwt>
<pdfrwt beam="1">  1       -3 0.22509616E-02 0.90112708E+02</pdfrwt>
<totfact> 0.32103893E+04</totfact>
</mgrwt>
</event>
<event>
 7    1  0.1247599E-009  0.1091530E+03  0.7818608E-02  0.1262146E+00
          3   -1    0    0  501    0  0.00000000000E+00  0.00000000000E+00  0.32157869810E+02  0.32158028418E+02  0.10100000000E+00 0. -1.
         -3   -1    0    0    0  501 -0.00000000000E+00 -0.00000000000E+00 -0.92623688116E+02  0.92623743183E+02  0.10100000000E+00 0.  1.
         23    2    1    2    0    0  0.35527136788E-14  0.00000000000E+00 -0.60465818306E+02  0.12478177160E+03  0.10915299052E+03 0.  0.
    9000005    2    3    3    0    0  0.30098699202E+02  0.15688436838E+02 -0.78580514805E+02  0.86308391539E+02  0.11053614749E+02 0.  0.
         22    1    3    3    0    0 -0.30098699202E+02 -0.15688436838E+02  0.18114696499E+02  0.38473380061E+02  0.00000000000E+00 0. -1.
         22    1    4    4    0    0  0.22136456639E+02  0.91115826331E+01 -0.42489041650E+02  0.48768456106E+02  0.00000000000E+00 0. -1.
         22    1    4    4    0    0  0.79622425631E+01  0.65768542051E+01 -0.36091473155E+02  0.37539935433E+02  0.00000000000E+00 0. -1.
<mgrwt>
<rscale>  0 0.10915299E+03</rscale>
<asrwt>0</asrwt>
<pdfrwt beam="1">  1        3 0.49473811E-02 0.10915299E+03</pdfrwt>
<pdfrwt beam="2">  1       -3 0.14249814E-01 0.10915299E+03</pdfrwt>
<totfact> 0.20088717E+04</totfact>
</mgrwt>
</event>
<event>
 7    1  0.1247599E-009  0.9085553E+02  0.7818608E-02  0.1300793E+00
          3   -1    0    0  501    0  0.00000000000E+00  0.00000000000E+00  0.28321882162E+02  0.28322062252E+02  0.10100000000E+00 0. -1.
         -3   -1    0    0    0  501 -0.00000000000E+00 -0.00000000000E+00 -0.72864834396E+02  0.72864904395E+02  0.10100000000E+00 0.  1.
         23    2    1    2    0    0 -0.88817841970E-15  0.00000000000E+00 -0.44542952234E+02  0.10118696665E+03  0.90855531618E+02 0.  0.
    9000005    2    3    3    0    0  0.48372276989E+01  0.42024874901E+02 -0.37664642038E+02  0.58329061502E+02  0.13934319993E+02 0.  0.
         22    1    3    3    0    0 -0.48372276989E+01 -0.42024874901E+02 -0.68783101963E+01  0.42857905145E+02  0.00000000000E+00 0. -1.
         22    1    4    4    0    0  0.91077352110E+01  0.23659212057E+02 -0.25069188968E+02  0.35653518639E+02  0.00000000000E+00 0. -1.
         22    1    4    4    0    0 -0.42705075121E+01  0.18365662844E+02 -0.12595453069E+02  0.22675542863E+02  0.00000000000E+00 0. -1.
<mgrwt>
<rscale>  0 0.90855532E+02</rscale>
<asrwt>0</asrwt>
<pdfrwt beam="1">  1        3 0.43572319E-02 0.90855532E+02</pdfrwt>
<pdfrwt beam="2">  1       -3 0.11209994E-01 0.90855532E+02</pdfrwt>
<totfact> 0.34918498E+04</totfact>
</mgrwt>
</event>
<event>
 7    1  0.1247599E-009  0.8409748E+02  0.7818608E-02  0.1317810E+00
         -3   -1    0    0    0  501 -0.00000000000E+00  0.00000000000E+00  0.40474977866E+02  0.40475103882E+02  0.10100000000E+00 0.  1.
          3   -1    0    0  501    0  0.00000000000E+00 -0.00000000000E+00 -0.43683437755E+02  0.43683554516E+02  0.10100000000E+00 0. -1.
         23    2    1    2    0    0  0.00000000000E+00 -0.17763568394E-14 -0.32084598891E+01  0.84158658398E+02  0.84097476588E+02 0.  0.
    9000005    2    3    3    0    0 -0.31064496889E+02 -0.15460766730E+02  0.22125550029E+02  0.41195298039E+02  0.18639585875E+01 0.  0.
         22    1    3    3    0    0  0.31064496889E+02  0.15460766730E+02 -0.25334009918E+02  0.42963360359E+02  0.00000000000E+00 0. -1.
         22    1    4    4    0    0 -0.19792122721E+02 -0.94617698050E+01  0.14960581396E+02  0.26553195765E+02  0.00000000000E+00 0.  1.
         22    1    4    4    0    0 -0.11272374169E+02 -0.59989969248E+01  0.71649686328E+01  0.14642102274E+02  0.00000000000E+00 0.  1.
<mgrwt>
<rscale>  0 0.84097477E+02</rscale>
<asrwt>0</asrwt>
<pdfrwt beam="2">  1        3 0.67205476E-02 0.84097477E+02</pdfrwt>
<pdfrwt beam="1">  1       -3 0.62269383E-02 0.84097477E+02</pdfrwt>
<totfact> 0.44676981E+04</totfact>
</mgrwt>
</event>
<event>
 7    1  0.1247599E-009  0.9478977E+02  0.7818608E-02  0.1291650E+00
          3   -1    0    0  501    0  0.00000000000E+00  0.00000000000E+00  0.88498947825E+01  0.88504710983E+01  0.10100000000E+00 0. -1.
         -3   -1    0    0    0  501 -0.00000000000E+00 -0.00000000000E+00 -0.25381057307E+03  0.25381059317E+03  0.10100000000E+00 0.  1.
         23    2    1    2    0    0  0.00000000000E+00  0.00000000000E+00 -0.24496067829E+03  0.26266106426E+03  0.94789771459E+02 0.  0.
    9000005    2    3    3    0    0 -0.19791543638E+02  0.35274647404E+02 -0.18785004336E+03  0.19267799080E+03  0.14183208422E+02 0.  0.
         22    1    3    3    0    0  0.19791543638E+02 -0.35274647404E+02 -0.57110634930E+02  0.69983073462E+02  0.00000000000E+00 0. -1.
         22    1    4    4    0    0  0.15744846746E+01  0.68320041028E+01 -0.39898928233E+02  0.40510242608E+02  0.00000000000E+00 0.  1.
         22    1    4    4    0    0 -0.21366028312E+02  0.28442643301E+02 -0.14795111512E+03  0.15216774819E+03  0.00000000000E+00 0.  1.
<mgrwt>
<rscale>  0 0.94789771E+02</rscale>
<asrwt>0</asrwt>
<pdfrwt beam="1">  1        3 0.13615683E-02 0.94789771E+02</pdfrwt>
<pdfrwt beam="2">  1       -3 0.39047821E-01 0.94789771E+02</pdfrwt>
<totfact> 0.23003833E+04</totfact>
</mgrwt>
</event>
<event>
 7    1  0.1247599E-009  0.9153123E+02  0.7818608E-02  0.1299185E+00
         -3   -1    0    0    0  501 -0.00000000000E+00  0.00000000000E+00  0.69092833127E+02  0.69092906948E+02  0.10100000000E+00 0.  1.
          3   -1    0    0  501    0  0.00000000000E+00 -0.00000000000E+00 -0.30313990716E+02  0.30314158971E+02  0.10100000000E+00 0. -1.
         23    2    1    2    0    0  0.00000000000E+00  0.00000000000E+00  0.38778842410E+02  0.99407065919E+02  0.91531230386E+02 0.  0.
    9000005    2    3    3    0    0  0.46106642011E+01 -0.17108221378E+02 -0.25556002917E+02  0.32676849477E+02  0.10035823012E+02 0.  0.
         22    1    3    3    0    0 -0.46106642011E+01  0.17108221378E+02  0.64334845328E+02  0.66730216442E+02  0.00000000000E+00 0.  1.
         22    1    4    4    0    0  0.75069375413E+01 -0.13632129605E+02 -0.21864732553E+02  0.26837578103E+02  0.00000000000E+00 0. -1.
         22    1    4    4    0    0 -0.28962733402E+01 -0.34760917731E+01 -0.36912703645E+01  0.58392713741E+01  0.00000000000E+00 0. -1.
<mgrwt>
<rscale>  0 0.91531230E+02</rscale>
<asrwt>0</asrwt>
<pdfrwt beam="2">  1        3 0.46637095E-02 0.91531230E+02</pdfrwt>
<pdfrwt beam="1">  1       -3 0.10629685E-01 0.91531230E+02</pdfrwt>
<totfact> 0.34350929E+04</totfact>
</mgrwt>
</event>
<event>
 7    1  0.1247599E-009  0.9217928E+02  0.7818608E-02  0.1297658E+00
          3   -1    0    0  501    0  0.00000000000E+00  0.00000000000E+00  0.20631819237E+02  0.20632066451E+02  0.10100000000E+00 0. -1.
         -3   -1    0    0    0  501 -0.00000000000E+00 -0.00000000000E+00 -0.10295924323E+03  0.10295929277E+03  0.10100000000E+00 0.  1.
         23    2    1    2    0    0 -0.35527136788E-14  0.00000000000E+00 -0.82327423997E+02  0.12359135922E+03  0.92179278218E+02 0.  0.
    9000005    2    3    3    0    0  0.20177128443E+02 -0.28756895851E+01 -0.95913447193E+02  0.99097153193E+02  0.14334235794E+02 0.  0.
         22    1    3    3    0    0 -0.20177128443E+02  0.28756895851E+01  0.13586023196E+02  0.24494206031E+02  0.00000000000E+00 0. -1.
         22    1    4    4    0    0 -0.11170536843E+01 -0.27017433322E+01 -0.57190897241E+01  0.64230221265E+01  0.00000000000E+00 0. -1.
         22    1    4    4    0    0  0.21294182127E+02 -0.17394625293E+00 -0.90194357469E+02  0.92674131067E+02  0.00000000000E+00 0. -1.
<mgrwt>
<rscale>  0 0.92179278E+02</rscale>
<asrwt>0</asrwt>
<pdfrwt beam="1">  1        3 0.31741489E-02 0.92179278E+02</pdfrwt>
<pdfrwt beam="2">  1       -3 0.15839906E-01 0.92179278E+02</pdfrwt>
<totfact> 0.32036592E+04</totfact>
</mgrwt>
</event>
<event>
 7    1  0.1247599E-009  0.7452275E+02  0.7818608E-02  0.1345355E+00
         -3   -1    0    0    0  501 -0.00000000000E+00  0.00000000000E+00  0.16230083941E+02  0.16230398200E+02  0.10100000000E+00 0.  1.
          3   -1    0    0  501    0  0.00000000000E+00 -0.00000000000E+00 -0.85544298837E+02  0.85544358461E+02  0.10100000000E+00 0. -1.
         23    2    1    2    0    0  0.00000000000E+00  0.00000000000E+00 -0.69314214896E+02  0.10177475666E+03  0.74522752946E+02 0.  0.
    9000005    2    3    3    0    0  0.23873958488E+02  0.28061537125E+02 -0.35319623789E+02  0.51644446625E+02  0.78903284375E+01 0.  0.
         22    1    3    3    0    0 -0.23873958488E+02 -0.28061537125E+02 -0.33994591107E+02  0.50130310035E+02  0.00000000000E+00 0. -1.
         22    1    4    4    0    0  0.22886373320E+02  0.24689398658E+02 -0.29091351581E+02  0.44493361602E+02  0.00000000000E+00 0. -1.
         22    1    4    4    0    0  0.98758516851E+00  0.33721384670E+01 -0.62282722082E+01  0.71510850229E+01  0.00000000000E+00 0. -1.
<mgrwt>
<rscale>  0 0.74522753E+02</rscale>
<asrwt>0</asrwt>
<pdfrwt beam="2">  1        3 0.13160690E-01 0.74522753E+02</pdfrwt>
<pdfrwt beam="1">  1       -3 0.24969648E-02 0.74522753E+02</pdfrwt>
<totfact> 0.59373467E+04</totfact>
</mgrwt>
</event>
<event>
 7    1  0.2086444E-009  0.1021611E+03  0.7818608E-02  0.1275816E+00
         -3   -1    0    0    0  501 -0.00000000000E+00  0.00000000000E+00  0.14029244160E+02  0.14029607718E+02  0.10100000000E+00 0.  1.
          3   -1    0    0  501    0  0.00000000000E+00 -0.00000000000E+00 -0.18598191894E+03  0.18598194637E+03  0.10100000000E+00 0. -1.
         23    2    1    2    0    0  0.00000000000E+00  0.00000000000E+00 -0.17195267478E+03  0.20001155408E+03  0.10216114429E+03 0.  0.
    9000005    2    3    3    0    0 -0.38085616868E+02 -0.37568886086E+01 -0.25209101186E+02  0.48359634163E+02  0.15444319653E+02 0.  0.
         22    1    3    3    0    0  0.38085616868E+02  0.37568886086E+01 -0.14674357360E+03  0.15165191992E+03  0.00000000000E+00 0. -1.
         22    1    4    4    0    0  0.12832626480E+01 -0.17406515429E+00 -0.23805901969E+01  0.27100316211E+01  0.00000000000E+00 0.  1.
         22    1    4    4    0    0 -0.39368879516E+02 -0.35828234544E+01 -0.22828510989E+02  0.45649602542E+02  0.00000000000E+00 0.  1.
<mgrwt>
<rscale>  0 0.10216114E+03</rscale>
<asrwt>0</asrwt>
<pdfrwt beam="2">  1        3 0.28612631E-01 0.10216114E+03</pdfrwt>
<pdfrwt beam="1">  1       -3 0.21583755E-02 0.10216114E+03</pdfrwt>
<totfact> 0.20917840E+04</totfact>
</mgrwt>
</event>
<event>
 7    1  0.1247599E-009  0.8304880E+02  0.7818608E-02  0.1320615E+00
         -3   -1    0    0    0  501 -0.00000000000E+00  0.00000000000E+00  0.16678832083E+02  0.16679137887E+02  0.10100000000E+00 0. -1.
          3   -1    0    0  501    0  0.00000000000E+00 -0.00000000000E+00 -0.10337980865E+03  0.10337985799E+03  0.10100000000E+00 0.  1.
         23    2    1    2    0    0  0.00000000000E+00  0.00000000000E+00 -0.86700976569E+02  0.12005899588E+03  0.83048799828E+02 0.  0.
    9000005    2    3    3    0    0  0.38443901836E+02  0.14641527332E+02 -0.38063694762E+02  0.56357401763E+02  0.59164147624E+01 0.  0.
         22    1    3    3    0    0 -0.38443901836E+02 -0.14641527332E+02 -0.48637281808E+02  0.63701594113E+02  0.00000000000E+00 0.  1.
         22    1    4    4    0    0  0.20073578359E+02  0.10780466827E+02 -0.20480027880E+02  0.30636555862E+02  0.00000000000E+00 0. -1.
         22    1    4    4    0    0  0.18370323476E+02  0.38610605054E+01 -0.17583666882E+02  0.25720845901E+02  0.00000000000E+00 0. -1.
<mgrwt>
<rscale>  0 0.83048800E+02</rscale>
<asrwt>0</asrwt>
<pdfrwt beam="2">  1        3 0.15904613E-01 0.83048800E+02</pdfrwt>
<pdfrwt beam="1">  1       -3 0.25660015E-02 0.83048800E+02</pdfrwt>
<totfact> 0.42762528E+04</totfact>
</mgrwt>
</event>
<event>
 7    1  0.1247599E-009  0.9114521E+02  0.7818608E-02  0.1300102E+00
         -3   -1    0    0    0  501 -0.00000000000E+00  0.00000000000E+00  0.18706007615E+02  0.18706280280E+02  0.10100000000E+00 0.  1.
          3   -1    0    0  501    0  0.00000000000E+00 -0.00000000000E+00 -0.11102538643E+03  0.11102543237E+03  0.10100000000E+00 0. -1.
         23    2    1    2    0    0  0.00000000000E+00 -0.88817841970E-15 -0.92319378813E+02  0.12973171265E+03  0.91145211405E+02 0.  0.
    9000005    2    3    3    0    0 -0.43695282493E+02  0.65287654161E+01 -0.39949691999E+02  0.61215389140E+02  0.14122446201E+02 0.  0.
         22    1    3    3    0    0  0.43695282493E+02 -0.65287654161E+01 -0.52369686814E+02  0.68516323507E+02  0.00000000000E+00 0.  1.
         22    1    4    4    0    0 -0.17855774128E+02  0.91038405199E+01 -0.13604536995E+02  0.24223790140E+02  0.00000000000E+00 0.  1.
         22    1    4    4    0    0 -0.25839508366E+02 -0.25750751038E+01 -0.26345155004E+02  0.36991599000E+02  0.00000000000E+00 0.  1.
<mgrwt>
<rscale>  0 0.91145211E+02</rscale>
<asrwt>0</asrwt>
<pdfrwt beam="2">  1        3 0.17080853E-01 0.91145211E+02</pdfrwt>
<pdfrwt beam="1">  1       -3 0.28778719E-02 0.91145211E+02</pdfrwt>
<totfact> 0.32624251E+04</totfact>
</mgrwt>
</event>
<event>
 7    1  0.1247599E-009  0.9394721E+02  0.7818608E-02  0.1293565E+00
          3   -1    0    0  501    0  0.00000000000E+00  0.00000000000E+00  0.11556807049E+02  0.11557248382E+02  0.10100000000E+00 0. -1.
         -3   -1    0    0    0  501 -0.00000000000E+00 -0.00000000000E+00 -0.19092405054E+03  0.19092407725E+03  0.10100000000E+00 0.  1.
         23    2    1    2    0    0  0.00000000000E+00  0.00000000000E+00 -0.17936724349E+03  0.20248132563E+03  0.93947214933E+02 0.  0.
    9000005    2    3    3    0    0  0.20554104792E+02 -0.31737079258E+02 -0.32895295858E+02  0.51207584138E+02  0.10507271770E+02 0.  0.
         22    1    3    3    0    0 -0.20554104792E+02  0.31737079258E+02 -0.14647194763E+03  0.15127374149E+03  0.00000000000E+00 0.  1.
         22    1    4    4    0    0  0.49220247627E+01 -0.40761738067E+01 -0.15509256250E+01  0.65762368389E+01  0.00000000000E+00 0.  1.
         22    1    4    4    0    0  0.15632080029E+02 -0.27660905451E+02 -0.31344370233E+02  0.44631347299E+02  0.00000000000E+00 0.  1.
<mgrwt>
<rscale>  0 0.93947215E+02</rscale>
<asrwt>0</asrwt>
<pdfrwt beam="1">  1        3 0.17780065E-02 0.93947215E+02</pdfrwt>
<pdfrwt beam="2">  1       -3 0.29372964E-01 0.93947215E+02</pdfrwt>
<totfact> 0.26162198E+04</totfact>
</mgrwt>
</event>
<event>
 7    1  0.1247599E-009  0.8920271E+02  0.7818608E-02  0.1304794E+00
          3   -1    0    0  501    0  0.00000000000E+00  0.00000000000E+00  0.96958951599E+01  0.96964211930E+01  0.10100000000E+00 0. -1.
         -3   -1    0    0    0  501 -0.00000000000E+00 -0.00000000000E+00 -0.20516120034E+03  0.20516122520E+03  0.10100000000E+00 0.  1.
         23    2    1    2    0    0  0.00000000000E+00  0.88817841970E-15 -0.19546530518E+03  0.21485764640E+03  0.89202705592E+02 0.  0.
    9000005    2    3    3    0    0  0.33285886134E+02  0.74055660612E+01 -0.16527418146E+03  0.16931320024E+03  0.13733611776E+02 0.  0.
         22    1    3    3    0    0 -0.33285886134E+02 -0.74055660612E+01 -0.30191123721E+02  0.45544446159E+02  0.00000000000E+00 0. -1.
         22    1    4    4    0    0  0.19394057828E+02  0.11933765982E+01 -0.11966586777E+03  0.12123313712E+03  0.00000000000E+00 0. -1.
         22    1    4    4    0    0  0.13891828306E+02  0.62121894629E+01 -0.45608313691E+02  0.48080063117E+02  0.00000000000E+00 0. -1.
<mgrwt>
<rscale>  0 0.89202706E+02</rscale>
<asrwt>0</asrwt>
<pdfrwt beam="1">  1        3 0.14917187E-02 0.89202706E+02</pdfrwt>
<pdfrwt beam="2">  1       -3 0.31563301E-01 0.89202706E+02</pdfrwt>
<totfact> 0.29428043E+04</totfact>
</mgrwt>
</event>
<event>
 7    1  0.1247599E-009  0.9572084E+02  0.7818608E-02  0.1289561E+00
         -3   -1    0    0    0  501 -0.00000000000E+00  0.00000000000E+00  0.22817125561E+02  0.22817349098E+02  0.10100000000E+00 0.  1.
          3   -1    0    0  501    0  0.00000000000E+00 -0.00000000000E+00 -0.10038963776E+03  0.10038968857E+03  0.10100000000E+00 0. -1.
         23    2    1    2    0    0  0.00000000000E+00  0.00000000000E+00 -0.77572512203E+02  0.12320703767E+03  0.95720841417E+02 0.  0.
    9000005    2    3    3    0    0  0.15669144270E+02 -0.36248611393E+02 -0.72709207454E+02  0.83418400557E+02  0.10607393312E+02 0.  0.
         22    1    3    3    0    0 -0.15669144270E+02  0.36248611393E+02 -0.48633047486E+01  0.39788637111E+02  0.00000000000E+00 0.  1.
         22    1    4    4    0    0  0.39926116378E+01 -0.20937940616E+02 -0.32972142230E+02  0.39261946821E+02  0.00000000000E+00 0.  1.
         22    1    4    4    0    0  0.11676532632E+02 -0.15310670776E+02 -0.39737065224E+02  0.44156453736E+02  0.00000000000E+00 0.  1.
<mgrwt>
<rscale>  0 0.95720841E+02</rscale>
<asrwt>0</asrwt>
<pdfrwt beam="2">  1        3 0.15444581E-01 0.95720841E+02</pdfrwt>
<pdfrwt beam="1">  1       -3 0.35103482E-02 0.95720841E+02</pdfrwt>
<totfact> 0.28926480E+04</totfact>
</mgrwt>
</event>
<event>
 7    1  0.1247599E-009  0.9123721E+02  0.7818608E-02  0.1299883E+00
         -3   -1    0    0    0  501 -0.00000000000E+00  0.00000000000E+00  0.44881180052E+01  0.44892543065E+01  0.10100000000E+00 0.  1.
          3   -1    0    0  501    0  0.00000000000E+00 -0.00000000000E+00 -0.46362163114E+03  0.46362164214E+03  0.10100000000E+00 0. -1.
         23    2    1    2    0    0  0.00000000000E+00  0.00000000000E+00 -0.45913351313E+03  0.46811089644E+03  0.91237210006E+02 0.  0.
    9000005    2    3    3    0    0  0.41421533417E+02  0.16724275847E+02 -0.21564070703E+03  0.22055445549E+03  0.12161762883E+02 0.  0.
         22    1    3    3    0    0 -0.41421533417E+02 -0.16724275847E+02 -0.24349280610E+03  0.24755644095E+03  0.00000000000E+00 0.  1.
         22    1    4    4    0    0  0.23005843292E+02  0.10133136616E+02 -0.14887957172E+03  0.15098700659E+03  0.00000000000E+00 0.  1.
         22    1    4    4    0    0  0.18415690125E+02  0.65911392310E+01 -0.66761135304E+02  0.69567448899E+02  0.00000000000E+00 0.  1.
<mgrwt>
<rscale>  0 0.91237210E+02</rscale>
<asrwt>0</asrwt>
<pdfrwt beam="2">  1        3 0.71326455E-01 0.91237210E+02</pdfrwt>
<pdfrwt beam="1">  1       -3 0.69056831E-03 0.91237210E+02</pdfrwt>
<totfact> 0.18677278E+04</totfact>
</mgrwt>
</event>
<event>
 7    1  0.1247599E-009  0.8279982E+02  0.7818608E-02  0.1321289E+00
          3   -1    0    0  501    0  0.00000000000E+00  0.00000000000E+00  0.20817041845E+02  0.20817286859E+02  0.10100000000E+00 0. -1.
         -3   -1    0    0    0  501 -0.00000000000E+00 -0.00000000000E+00 -0.82333340640E+02  0.82333402590E+02  0.10100000000E+00 0.  1.
         23    2    1    2    0    0  0.00000000000E+00  0.00000000000E+00 -0.61516298796E+02  0.10315068945E+03  0.82799817126E+02 0.  0.
    9000005    2    3    3    0    0  0.40405691838E+02  0.72455197250E+01 -0.36061730077E+02  0.54849006686E+02  0.47799235641E+01 0.  0.
         22    1    3    3    0    0 -0.40405691838E+02 -0.72455197250E+01 -0.25454568718E+02  0.48301682762E+02  0.00000000000E+00 0. -1.
         22    1    4    4    0    0  0.92981797855E+00  0.84236713585E+00 -0.56500387390E+00  0.13759989979E+01  0.00000000000E+00 0.  1.
         22    1    4    4    0    0  0.39475873860E+02  0.64031525892E+01 -0.35496726204E+02  0.53473007688E+02  0.00000000000E+00 0.  1.
<mgrwt>
<rscale>  0 0.82799817E+02</rscale>
<asrwt>0</asrwt>
<pdfrwt beam="1">  1        3 0.32026455E-02 0.82799817E+02</pdfrwt>
<pdfrwt beam="2">  1       -3 0.12666691E-01 0.82799817E+02</pdfrwt>
<totfact> 0.44684464E+04</totfact>
</mgrwt>
</event>
<event>
 7    1  0.1247599E-009  0.8705777E+02  0.7818608E-02  0.1310137E+00
          3   -1    0    0  501    0  0.00000000000E+00  0.00000000000E+00  0.53965966109E+02  0.53966060623E+02  0.10100000000E+00 0. -1.
         -3   -1    0    0    0  501 -0.00000000000E+00 -0.00000000000E+00 -0.35110151777E+02  0.35110297048E+02  0.10100000000E+00 0.  1.
         23    2    1    2    0    0  0.00000000000E+00  0.00000000000E+00  0.18855814332E+02  0.89076357671E+02  0.87057772552E+02 0.  0.
    9000005    2    3    3    0    0 -0.25842766471E+01  0.37303096444E+02 -0.12053012464E+02  0.40562905268E+02  0.10093298976E+02 0.  0.
         22    1    3    3    0    0  0.25842766471E+01 -0.37303096444E+02  0.30908826796E+02  0.48513452403E+02  0.00000000000E+00 0. -1.
         22    1    4    4    0    0 -0.24094394579E+01  0.35595296861E+02 -0.13668606153E+02  0.38205514671E+02  0.00000000000E+00 0. -1.
         22    1    4    4    0    0 -0.17483718920E+00  0.17077995836E+01  0.16155936890E+01  0.23573905973E+01  0.00000000000E+00 0. -1.
<mgrwt>
<rscale>  0 0.87057773E+02</rscale>
<asrwt>0</asrwt>
<pdfrwt beam="1">  1        3 0.83024748E-02 0.87057773E+02</pdfrwt>
<pdfrwt beam="2">  1       -3 0.54015802E-02 0.87057773E+02</pdfrwt>
<totfact> 0.40246121E+04</totfact>
</mgrwt>
</event>
<event>
 7    1  0.1247599E-009  0.9224945E+02  0.7818608E-02  0.1297494E+00
         -3   -1    0    0    0  501 -0.00000000000E+00  0.00000000000E+00  0.13067839134E+02  0.13068229437E+02  0.10100000000E+00 0.  1.
          3   -1    0    0  501    0  0.00000000000E+00 -0.00000000000E+00 -0.16280068304E+03  0.16280071437E+03  0.10100000000E+00 0. -1.
         23    2    1    2    0    0  0.00000000000E+00  0.00000000000E+00 -0.14973284391E+03  0.17586894381E+03  0.92249449058E+02 0.  0.
    9000005    2    3    3    0    0 -0.25134534734E+02 -0.35094032581E+02 -0.10559979590E+03  0.11413514524E+03  0.34897744492E+01 0.  0.
         22    1    3    3    0    0  0.25134534734E+02  0.35094032581E+02 -0.44133048004E+02  0.61733798565E+02  0.00000000000E+00 0. -1.
         22    1    4    4    0    0 -0.74546509913E+01 -0.80625288002E+01 -0.28565739703E+02  0.30603556605E+02  0.00000000000E+00 0. -1.
         22    1    4    4    0    0 -0.17679883743E+02 -0.27031503781E+02 -0.77034056201E+02  0.83531588639E+02  0.00000000000E+00 0. -1.
<mgrwt>
<rscale>  0 0.92249449E+02</rscale>
<asrwt>0</asrwt>
<pdfrwt beam="2">  1        3 0.25046290E-01 0.92249449E+02</pdfrwt>
<pdfrwt beam="1">  1       -3 0.20104693E-02 0.92249449E+02</pdfrwt>
<totfact> 0.28866425E+04</totfact>
</mgrwt>
</event>
<event>
 7    1  0.1247599E-009  0.9254603E+02  0.7818608E-02  0.1296801E+00
         -3   -1    0    0    0  501 -0.00000000000E+00  0.00000000000E+00  0.29976653851E+03  0.29976655553E+03  0.10100000000E+00 0.  1.
          3   -1    0    0  501    0  0.00000000000E+00 -0.00000000000E+00 -0.71424907162E+01  0.71432047871E+01  0.10100000000E+00 0. -1.
         23    2    1    2    0    0  0.00000000000E+00  0.00000000000E+00  0.29262404780E+03  0.30690976032E+03  0.92546029778E+02 0.  0.
    9000005    2    3    3    0    0 -0.86901217439E+01  0.19882840051E+02  0.28140907869E+03  0.28248393225E+03  0.11629998693E+02 0.  0.
         22    1    3    3    0    0  0.86901217439E+01 -0.19882840051E+02  0.11214969113E+02  0.24425828064E+02  0.00000000000E+00 0. -1.
         22    1    4    4    0    0  0.74567496435E-01  0.91141604736E+01  0.65801484021E+02  0.66429728141E+02  0.00000000000E+00 0. -1.
         22    1    4    4    0    0 -0.87646892403E+01  0.10768679578E+02  0.21560759466E+03  0.21605420411E+03  0.00000000000E+00 0. -1.
<mgrwt>
<rscale>  0 0.92546030E+02</rscale>
<asrwt>0</asrwt>
<pdfrwt beam="2">  1        3 0.10989007E-02 0.92546030E+02</pdfrwt>
<pdfrwt beam="1">  1       -3 0.46117998E-01 0.92546030E+02</pdfrwt>
<totfact> 0.22824688E+04</totfact>
</mgrwt>
</event>
<event>
 7    1  0.1247599E-009  0.8672130E+02  0.7818608E-02  0.1310992E+00
          3   -1    0    0  501    0  0.00000000000E+00  0.00000000000E+00  0.41038095824E+02  0.41038220110E+02  0.10100000000E+00 0. -1.
         -3   -1    0    0    0  501 -0.00000000000E+00 -0.00000000000E+00 -0.45814396601E+02  0.45814507930E+02  0.10100000000E+00 0.  1.
         23    2    1    2    0    0  0.00000000000E+00 -0.35527136788E-14 -0.47763007771E+01  0.86852728041E+02  0.86721296802E+02 0.  0.
    9000005    2    3    3    0    0 -0.26301453262E+02 -0.31289590257E+02 -0.16755385673E+02  0.44258087802E+02  0.26889560626E+01 0.  0.
         22    1    3    3    0    0  0.26301453262E+02  0.31289590257E+02  0.11979084896E+02  0.42594640239E+02  0.00000000000E+00 0.  1.
         22    1    4    4    0    0 -0.14479007400E+02 -0.19236130379E+02 -0.10148429466E+02  0.26127781916E+02  0.00000000000E+00 0. -1.
         22    1    4    4    0    0 -0.11822445861E+02 -0.12053459878E+02 -0.66069562069E+01  0.18130305886E+02  0.00000000000E+00 0. -1.
<mgrwt>
<rscale>  0 0.86721297E+02</rscale>
<asrwt>0</asrwt>
<pdfrwt beam="1">  1        3 0.63135714E-02 0.86721297E+02</pdfrwt>
<pdfrwt beam="2">  1       -3 0.70483868E-02 0.86721297E+02</pdfrwt>
<totfact> 0.40871410E+04</totfact>
</mgrwt>
</event>
<event>
 7    1  0.1247599E-009  0.9248700E+02  0.7818608E-02  0.1296938E+00
         -3   -1    0    0    0  501 -0.00000000000E+00  0.00000000000E+00  0.75972034994E+02  0.75972102131E+02  0.10100000000E+00 0.  1.
          3   -1    0    0  501    0  0.00000000000E+00 -0.00000000000E+00 -0.28147835358E+02  0.28148016561E+02  0.10100000000E+00 0. -1.
         23    2    1    2    0    0 -0.35527136788E-14  0.00000000000E+00  0.47824199636E+02  0.10412011869E+03  0.92486999332E+02 0.  0.
    9000005    2    3    3    0    0 -0.30920708688E+02 -0.14654614670E+02 -0.11022158287E+02  0.36048525514E+02  0.26758664958E+01 0.  0.
         22    1    3    3    0    0  0.30920708688E+02  0.14654614670E+02  0.58846357923E+02  0.68071593178E+02  0.00000000000E+00 0. -1.
         22    1    4    4    0    0 -0.64087030458E+01 -0.41114143221E+01 -0.30197972830E+01  0.81911158023E+01  0.00000000000E+00 0.  1.
         22    1    4    4    0    0 -0.24512005642E+02 -0.10543200348E+02 -0.80023610041E+01  0.27857409711E+02  0.00000000000E+00 0.  1.
<mgrwt>
<rscale>  0 0.92486999E+02</rscale>
<asrwt>0</asrwt>
<pdfrwt beam="2">  1        3 0.43304554E-02 0.92486999E+02</pdfrwt>
<pdfrwt beam="1">  1       -3 0.11688024E-01 0.92486999E+02</pdfrwt>
<totfact> 0.33058168E+04</totfact>
</mgrwt>
</event>
<event>
 7    1  0.1247599E-009  0.7935090E+02  0.7818608E-02  0.1330904E+00
          3   -1    0    0  501    0  0.00000000000E+00  0.00000000000E+00  0.31654444783E+03  0.31654446394E+03  0.10100000000E+00 0. -1.
         -3   -1    0    0    0  501 -0.00000000000E+00 -0.00000000000E+00 -0.49723623715E+01  0.49733880357E+01  0.10100000000E+00 0.  1.
         23    2    1    2    0    0 -0.35527136788E-14 -0.88817841970E-15  0.31157208546E+03  0.32151785198E+03  0.79350896051E+02 0.  0.
    9000005    2    3    3    0    0 -0.20503505914E+02 -0.61502532486E+01  0.29079508749E+03  0.29168660972E+03  0.78151145381E+01 0.  0.
         22    1    3    3    0    0  0.20503505914E+02  0.61502532486E+01  0.20776997970E+02  0.29831242254E+02  0.00000000000E+00 0.  1.
         22    1    4    4    0    0 -0.77692607290E+00 -0.35972969340E+00  0.52311234540E+02  0.52318240401E+02  0.00000000000E+00 0. -1.
         22    1    4    4    0    0 -0.19726579841E+02 -0.57905235552E+01  0.23848385295E+03  0.23936836932E+03  0.00000000000E+00 0. -1.
<mgrwt>
<rscale>  0 0.79350896E+02</rscale>
<asrwt>0</asrwt>
<pdfrwt beam="1">  1        3 0.48699238E-01 0.79350896E+02</pdfrwt>
<pdfrwt beam="2">  1       -3 0.76505878E-03 0.79350896E+02</pdfrwt>
<totfact> 0.33594014E+04</totfact>
</mgrwt>
</event>
<event>
 7    1  0.1247599E-009  0.9349546E+02  0.7818608E-02  0.1294601E+00
          3   -1    0    0  501    0  0.00000000000E+00  0.00000000000E+00  0.57917287800E+02  0.57917375865E+02  0.10100000000E+00 0. -1.
         -3   -1    0    0    0  501 -0.00000000000E+00 -0.00000000000E+00 -0.37732074312E+02  0.37732209488E+02  0.10100000000E+00 0.  1.
         23    2    1    2    0    0  0.00000000000E+00  0.00000000000E+00  0.20185213488E+02  0.95649585353E+02  0.93495456225E+02 0.  0.
    9000005    2    3    3    0    0 -0.33209549384E+02 -0.30199467893E+02  0.17724511696E+02  0.50694751524E+02  0.15521516868E+02 0.  0.
         22    1    3    3    0    0  0.33209549384E+02  0.30199467893E+02  0.24607017924E+01  0.44954833829E+02  0.00000000000E+00 0.  1.
         22    1    4    4    0    0 -0.12455356947E+02 -0.15848807022E+02  0.15377670593E+02  0.25353369669E+02  0.00000000000E+00 0. -1.
         22    1    4    4    0    0 -0.20754192437E+02 -0.14350660871E+02  0.23468411028E+01  0.25341381855E+02  0.00000000000E+00 0. -1.
<mgrwt>
<rscale>  0 0.93495456E+02</rscale>
<asrwt>0</asrwt>
<pdfrwt beam="1">  1        3 0.89103691E-02 0.93495456E+02</pdfrwt>
<pdfrwt beam="2">  1       -3 0.58049517E-02 0.93495456E+02</pdfrwt>
<totfact> 0.32677907E+04</totfact>
</mgrwt>
</event>
<event>
 7    1  0.1247599E-009  0.9231113E+02  0.7818608E-02  0.1297350E+00
          3   -1    0    0  501    0  0.00000000000E+00  0.00000000000E+00  0.11513564313E+03  0.11513568743E+03  0.10100000000E+00 0. -1.
         -3   -1    0    0    0  501 -0.00000000000E+00 -0.00000000000E+00 -0.18502651269E+02  0.18502926930E+02  0.10100000000E+00 0.  1.
         23    2    1    2    0    0  0.00000000000E+00  0.71054273576E-14  0.96632991859E+02  0.13363861436E+03  0.92311126805E+02 0.  0.
    9000005    2    3    3    0    0  0.12676180041E+02 -0.43857311476E+02  0.44651754547E+02  0.64456258640E+02  0.87567564364E+01 0.  0.
         22    1    3    3    0    0 -0.12676180041E+02  0.43857311476E+02  0.51981237312E+02  0.69182355719E+02  0.00000000000E+00 0. -1.
         22    1    4    4    0    0  0.11798372326E+02 -0.41780245179E+02  0.38953611529E+02  0.58328160677E+02  0.00000000000E+00 0.  1.
         22    1    4    4    0    0  0.87780771474E+00 -0.20770662976E+01  0.56981430180E+01  0.61280979629E+01  0.00000000000E+00 0.  1.
<mgrwt>
<rscale>  0 0.92311127E+02</rscale>
<asrwt>0</asrwt>
<pdfrwt beam="1">  1        3 0.17713200E-01 0.92311127E+02</pdfrwt>
<pdfrwt beam="2">  1       -3 0.28465865E-02 0.92311127E+02</pdfrwt>
<totfact> 0.31269404E+04</totfact>
</mgrwt>
</event>
<event>
 7    1  0.1247599E-009  0.9295792E+02  0.7818608E-02  0.1295843E+00
          3   -1    0    0  501    0  0.00000000000E+00  0.00000000000E+00  0.59088932942E+02  0.59089019261E+02  0.10100000000E+00 0. -1.
         -3   -1    0    0    0  501 -0.00000000000E+00 -0.00000000000E+00 -0.36559856684E+02  0.36559996194E+02  0.10100000000E+00 0.  1.
         23    2    1    2    0    0  0.00000000000E+00  0.00000000000E+00  0.22529076258E+02  0.95649015455E+02  0.92957919945E+02 0.  0.
    9000005    2    3    3    0    0  0.41114608712E+02  0.13565637581E+02  0.25944973143E+02  0.52219694437E+02  0.13390940342E+02 0.  0.
         22    1    3    3    0    0 -0.41114608712E+02 -0.13565637581E+02 -0.34158968852E+01  0.43429321017E+02  0.00000000000E+00 0. -1.
         22    1    4    4    0    0  0.22075101784E+02  0.13729854974E+02  0.12079439273E+02  0.28665866280E+02  0.00000000000E+00 0. -1.
         22    1    4    4    0    0  0.19039506927E+02 -0.16421739339E+00  0.13865533870E+02  0.23553828158E+02  0.00000000000E+00 0. -1.
<mgrwt>
<rscale>  0 0.92957920E+02</rscale>
<asrwt>0</asrwt>
<pdfrwt beam="1">  1        3 0.90906223E-02 0.92957920E+02</pdfrwt>
<pdfrwt beam="2">  1       -3 0.56246108E-02 0.92957920E+02</pdfrwt>
<totfact> 0.33196898E+04</totfact>
</mgrwt>
</event>
<event>
 7    1  0.1357298E-009  0.9078692E+02  0.7818608E-02  0.1300957E+00
          3   -1    0    0  501    0  0.00000000000E+00  0.00000000000E+00  0.55331734803E+02  0.55331826983E+02  0.10100000000E+00 0. -1.
         -3   -1    0    0    0  501 -0.00000000000E+00 -0.00000000000E+00 -0.37240030870E+02  0.37240167832E+02  0.10100000000E+00 0.  1.
         23    2    1    2    0    0  0.00000000000E+00  0.00000000000E+00  0.18091703933E+02  0.92571994816E+02  0.90786917961E+02 0.  0.
    9000005    2    3    3    0    0  0.11049678888E+02  0.38709778082E+02  0.28240534025E+02  0.51056442610E+02  0.13736456867E+02 0.  0.
         22    1    3    3    0    0 -0.11049678888E+02 -0.38709778082E+02 -0.10148830092E+02  0.41515552206E+02  0.00000000000E+00 0.  1.
         22    1    4    4    0    0 -0.56206546617E+00  0.15750438121E+02  0.16362245363E+02  0.22718170963E+02  0.00000000000E+00 0.  1.
         22    1    4    4    0    0  0.11611744354E+02  0.22959339961E+02  0.11878288662E+02  0.28338271647E+02  0.00000000000E+00 0.  1.
<mgrwt>
<rscale>  0 0.90786918E+02</rscale>
<asrwt>0</asrwt>
<pdfrwt beam="1">  1        3 0.85125922E-02 0.90786918E+02</pdfrwt>
<pdfrwt beam="2">  1       -3 0.57292532E-02 0.90786918E+02</pdfrwt>
<totfact> 0.35645148E+04</totfact>
</mgrwt>
</event>
<event>
 7    1  0.1247599E-009  0.9097402E+02  0.7818608E-02  0.1300510E+00
         -3   -1    0    0    0  501 -0.00000000000E+00  0.00000000000E+00  0.17678331463E+02  0.17678619978E+02  0.10100000000E+00 0.  1.
          3   -1    0    0  501    0  0.00000000000E+00 -0.00000000000E+00 -0.11703851215E+03  0.11703855573E+03  0.10100000000E+00 0. -1.
         23    2    1    2    0    0  0.00000000000E+00  0.00000000000E+00 -0.99360180688E+02  0.13471717571E+03  0.90974017854E+02 0.  0.
    9000005    2    3    3    0    0  0.16857709190E+02  0.24770483544E+02 -0.18728758326E+01  0.32729265532E+02  0.13036024863E+02 0.  0.
         22    1    3    3    0    0 -0.16857709190E+02 -0.24770483544E+02 -0.97487304856E+02  0.10198791018E+03  0.00000000000E+00 0. -1.
         22    1    4    4    0    0  0.18133598789E+02  0.24133003464E+02  0.23105103857E+00  0.30187458419E+02  0.00000000000E+00 0.  1.
         22    1    4    4    0    0 -0.12758895982E+01  0.63748007980E+00 -0.21039268711E+01  0.25418071127E+01  0.00000000000E+00 0.  1.
<mgrwt>
<rscale>  0 0.90974018E+02</rscale>
<asrwt>0</asrwt>
<pdfrwt beam="2">  1        3 0.18005950E-01 0.90974018E+02</pdfrwt>
<pdfrwt beam="1">  1       -3 0.27197689E-02 0.90974018E+02</pdfrwt>
<totfact> 0.32463829E+04</totfact>
</mgrwt>
</event>
<event>
 7    1  0.1247599E-009  0.8827174E+02  0.7818608E-02  0.1307092E+00
         -3   -1    0    0    0  501 -0.00000000000E+00  0.00000000000E+00  0.11380436187E+03  0.11380440669E+03  0.10100000000E+00 0.  1.
          3   -1    0    0  501    0  0.00000000000E+00 -0.00000000000E+00 -0.17116676340E+02  0.17116974321E+02  0.10100000000E+00 0. -1.
         23    2    1    2    0    0  0.00000000000E+00  0.88817841970E-15  0.96687685533E+02  0.13092138101E+03  0.88271736544E+02 0.  0.
    9000005    2    3    3    0    0  0.91341768661E+01 -0.50759745782E+01  0.11165661177E+03  0.11266576660E+03  0.10824846702E+02 0.  0.
         22    1    3    3    0    0 -0.91341768661E+01  0.50759745782E+01 -0.14968926237E+02  0.18255614414E+02  0.00000000000E+00 0. -1.
         22    1    4    4    0    0  0.72328200003E+01  0.10400591149E+01  0.82026775701E+02  0.82351607999E+02  0.00000000000E+00 0. -1.
         22    1    4    4    0    0  0.19013568659E+01 -0.61160336930E+01  0.29629836070E+02  0.30314158599E+02  0.00000000000E+00 0. -1.
<mgrwt>
<rscale>  0 0.88271737E+02</rscale>
<asrwt>0</asrwt>
<pdfrwt beam="2">  1        3 0.26333611E-02 0.88271737E+02</pdfrwt>
<pdfrwt beam="1">  1       -3 0.17508390E-01 0.88271737E+02</pdfrwt>
<totfact> 0.35491830E+04</totfact>
</mgrwt>
</event>
<event>
 7    1  0.1247599E-009  0.8907506E+02  0.7818608E-02  0.1305107E+00
          3   -1    0    0  501    0  0.00000000000E+00  0.00000000000E+00  0.83638815328E+02  0.83638876311E+02  0.10100000000E+00 0. -1.
         -3   -1    0    0    0  501 -0.00000000000E+00 -0.00000000000E+00 -0.23715981308E+02  0.23716196373E+02  0.10100000000E+00 0.  1.
         23    2    1    2    0    0  0.00000000000E+00  0.00000000000E+00  0.59922834020E+02  0.10735507268E+03  0.89075055958E+02 0.  0.
    9000005    2    3    3    0    0  0.28688297811E+02 -0.11236372615E+02 -0.68556152330E+01  0.33811644796E+02  0.12122432212E+02 0.  0.
         22    1    3    3    0    0 -0.28688297811E+02  0.11236372615E+02  0.66778449253E+02  0.73543427888E+02  0.00000000000E+00 0. -1.
         22    1    4    4    0    0  0.24829313192E+01 -0.58029162796E+01 -0.19222093068E+01  0.65980052972E+01  0.00000000000E+00 0.  1.
         22    1    4    4    0    0  0.26205366492E+02 -0.54334563349E+01 -0.49334059262E+01  0.27213639498E+02  0.00000000000E+00 0.  1.
<mgrwt>
<rscale>  0 0.89075056E+02</rscale>
<asrwt>0</asrwt>
<pdfrwt beam="1">  1        3 0.12867531E-01 0.89075056E+02</pdfrwt>
<pdfrwt beam="2">  1       -3 0.36486337E-02 0.89075056E+02</pdfrwt>
<totfact> 0.36362441E+04</totfact>
</mgrwt>
</event>
<event>
 7    1  0.1247599E-009  0.1111805E+03  0.7818608E-02  0.1258399E+00
          3   -1    0    0  501    0  0.00000000000E+00  0.00000000000E+00  0.13790157152E+01  0.13827094209E+01  0.10100000000E+00 0. -1.
         -3   -1    0    0    0  501 -0.00000000000E+00 -0.00000000000E+00 -0.22379275266E+04  0.22379275289E+04  0.10100000000E+00 0.  1.
         23    2    1    2    0    0  0.00000000000E+00  0.35527136788E-14 -0.22365485109E+04  0.22393102383E+04  0.11118049206E+03 0.  0.
    9000005    2    3    3    0    0  0.53106710235E+01  0.24419415505E+02 -0.21173157519E+04  0.21174867517E+04  0.99819415055E+01 0.  0.
         22    1    3    3    0    0 -0.53106710235E+01 -0.24419415505E+02 -0.11923275893E+03  0.12182348658E+03  0.00000000000E+00 0. -1.
         22    1    4    4    0    0 -0.37270666896E+00 -0.43386567094E+00 -0.20807566232E+03  0.20807644845E+03  0.00000000000E+00 0. -1.
         22    1    4    4    0    0  0.56833776924E+01  0.24853281176E+02 -0.19092400896E+04  0.19094103033E+04  0.00000000000E+00 0. -1.
<mgrwt>
<rscale>  0 0.11118049E+03</rscale>
<asrwt>0</asrwt>
<pdfrwt beam="1">  1        3 0.21244236E-03 0.11118049E+03</pdfrwt>
<pdfrwt beam="2">  1       -3 0.34429392E+00 0.11118049E+03</pdfrwt>
<totfact> 0.15978704E+03</totfact>
</mgrwt>
</event>
<event>
 7    1  0.1247599E-009  0.9363595E+02  0.7818608E-02  0.1294278E+00
          3   -1    0    0  501    0  0.00000000000E+00  0.00000000000E+00  0.54373058848E+02  0.54373152654E+02  0.10100000000E+00 0. -1.
         -3   -1    0    0    0  501 -0.00000000000E+00 -0.00000000000E+00 -0.40312467844E+02  0.40312594368E+02  0.10100000000E+00 0.  1.
         23    2    1    2    0    0  0.00000000000E+00  0.17763568394E-14  0.14060591004E+02  0.94685747022E+02  0.93635946461E+02 0.  0.
    9000005    2    3    3    0    0 -0.16335517743E+02  0.14243322073E+02 -0.34444324240E+02  0.41559029012E+02  0.84273398237E+01 0.  0.
         22    1    3    3    0    0  0.16335517743E+02 -0.14243322073E+02  0.48504915244E+02  0.53126718009E+02  0.00000000000E+00 0. -1.
         22    1    4    4    0    0 -0.16710840906E+02  0.13173540195E+02 -0.34368711587E+02  0.40422799275E+02  0.00000000000E+00 0. -1.
         22    1    4    4    0    0  0.37532316290E+00  0.10697818784E+01 -0.75612652894E-01  0.11362297378E+01  0.00000000000E+00 0. -1.
<mgrwt>
<rscale>  0 0.93635946E+02</rscale>
<asrwt>0</asrwt>
<pdfrwt beam="1">  1        3 0.83651029E-02 0.93635946E+02</pdfrwt>
<pdfrwt beam="2">  1       -3 0.62019351E-02 0.93635946E+02</pdfrwt>
<totfact> 0.32611486E+04</totfact>
</mgrwt>
</event>
<event>
 7    1  0.1247599E-009  0.9290280E+02  0.7818608E-02  0.1295971E+00
         -3   -1    0    0    0  501 -0.00000000000E+00  0.00000000000E+00  0.42834500945E+02  0.42834620019E+02  0.10100000000E+00 0.  1.
          3   -1    0    0  501    0  0.00000000000E+00 -0.00000000000E+00 -0.50373465254E+02  0.50373566508E+02  0.10100000000E+00 0. -1.
         23    2    1    2    0    0 -0.71054273576E-14  0.00000000000E+00 -0.75389643098E+01  0.93208186527E+02  0.92902798950E+02 0.  0.
    9000005    2    3    3    0    0  0.36893402425E+02  0.87142693213E+01  0.22662535447E+02  0.44739720285E+02  0.71407580852E+01 0.  0.
         22    1    3    3    0    0 -0.36893402425E+02 -0.87142693213E+01 -0.30201499757E+02  0.48468466242E+02  0.00000000000E+00 0. -1.
         22    1    4    4    0    0  0.91569409770E+01  0.50678868258E+01  0.45437601163E+01  0.11409592496E+02  0.00000000000E+00 0. -1.
         22    1    4    4    0    0  0.27736461448E+02  0.36463824956E+01  0.18118775330E+02  0.33330127789E+02  0.00000000000E+00 0. -1.
<mgrwt>
<rscale>  0 0.92902799E+02</rscale>
<asrwt>0</asrwt>
<pdfrwt beam="2">  1        3 0.77497808E-02 0.92902799E+02</pdfrwt>
<pdfrwt beam="1">  1       -3 0.65899402E-02 0.92902799E+02</pdfrwt>
<totfact> 0.33426121E+04</totfact>
</mgrwt>
</event>
<event>
 7    1  0.1247599E-009  0.9142590E+02  0.7818608E-02  0.1299435E+00
         -3   -1    0    0    0  501 -0.00000000000E+00  0.00000000000E+00  0.11003188787E+03  0.11003193422E+03  0.10100000000E+00 0.  1.
          3   -1    0    0  501    0  0.00000000000E+00 -0.00000000000E+00 -0.18991344939E+02  0.18991613506E+02  0.10100000000E+00 0. -1.
         23    2    1    2    0    0  0.00000000000E+00  0.00000000000E+00  0.91040542927E+02  0.12902354773E+03  0.91425901207E+02 0.  0.
    9000005    2    3    3    0    0  0.85477894847E+01  0.87509232693E+01  0.10749190130E+03  0.10852255859E+03  0.85436242486E+01 0.  0.
         22    1    3    3    0    0 -0.85477894847E+01 -0.87509232693E+01 -0.16451358373E+02  0.20500989134E+02  0.00000000000E+00 0. -1.
         22    1    4    4    0    0  0.68127823872E+00  0.35196349599E+01  0.59603451697E+02  0.59711166665E+02  0.00000000000E+00 0.  1.
         22    1    4    4    0    0  0.78665112459E+01  0.52312883094E+01  0.47888449603E+02  0.48811391928E+02  0.00000000000E+00 0.  1.
<mgrwt>
<rscale>  0 0.91425901E+02</rscale>
<asrwt>0</asrwt>
<pdfrwt beam="2">  1        3 0.29217697E-02 0.91425901E+02</pdfrwt>
<pdfrwt beam="1">  1       -3 0.16928006E-01 0.91425901E+02</pdfrwt>
<totfact> 0.32400727E+04</totfact>
</mgrwt>
</event>
<event>
 7    1  0.1247599E-009  0.9099380E+02  0.7818608E-02  0.1300463E+00
         -3   -1    0    0    0  501 -0.00000000000E+00  0.00000000000E+00  0.20234844804E+03  0.20234847325E+03  0.10100000000E+00 0.  1.
          3   -1    0    0  501    0  0.00000000000E+00 -0.00000000000E+00 -0.10229444242E+02  0.10229942840E+02  0.10100000000E+00 0. -1.
         23    2    1    2    0    0 -0.88817841970E-15  0.00000000000E+00  0.19211900380E+03  0.21257841609E+03  0.90993798500E+02 0.  0.
    9000005    2    3    3    0    0 -0.79806895329E+01 -0.23896225934E+02  0.18450969561E+03  0.18626069220E+03  0.38074488728E+01 0.  0.
         22    1    3    3    0    0  0.79806895329E+01  0.23896225934E+02  0.76093081890E+01  0.26317723884E+02  0.00000000000E+00 0. -1.
         22    1    4    4    0    0 -0.35953537774E+01 -0.58092734142E+01  0.54110810476E+02  0.54540389041E+02  0.00000000000E+00 0. -1.
         22    1    4    4    0    0 -0.43853357555E+01 -0.18086952520E+02  0.13039888513E+03  0.13172030316E+03  0.00000000000E+00 0. -1.
<mgrwt>
<rscale>  0 0.90993799E+02</rscale>
<asrwt>0</asrwt>
<pdfrwt beam="2">  1        3 0.15738010E-02 0.90993799E+02</pdfrwt>
<pdfrwt beam="1">  1       -3 0.31130570E-01 0.90993799E+02</pdfrwt>
<totfact> 0.28010569E+04</totfact>
</mgrwt>
</event>
<event>
 7    1  0.1247599E-009  0.9097448E+02  0.7818608E-02  0.1300509E+00
          3   -1    0    0  501    0  0.00000000000E+00  0.00000000000E+00  0.83768203535E+02  0.83768264423E+02  0.10100000000E+00 0. -1.
         -3   -1    0    0    0  501 -0.00000000000E+00 -0.00000000000E+00 -0.24699997056E+02  0.24700203553E+02  0.10100000000E+00 0.  1.
         23    2    1    2    0    0  0.00000000000E+00 -0.88817841970E-15  0.59068206479E+02  0.10846846798E+03  0.90974477347E+02 0.  0.
    9000005    2    3    3    0    0 -0.44207508322E+02 -0.66703900852E+01  0.28532089529E+02  0.54327426849E+02  0.11772479741E+02 0.  0.
         22    1    3    3    0    0  0.44207508322E+02  0.66703900852E+01  0.30536116950E+02  0.54141041127E+02  0.00000000000E+00 0.  1.
         22    1    4    4    0    0 -0.32938767864E+02 -0.23164513043E+01  0.25893761320E+02  0.41962069185E+02  0.00000000000E+00 0.  1.
         22    1    4    4    0    0 -0.11268740458E+02 -0.43539387809E+01  0.26383282094E+01  0.12365357664E+02  0.00000000000E+00 0.  1.
<mgrwt>
<rscale>  0 0.90974477E+02</rscale>
<asrwt>0</asrwt>
<pdfrwt beam="1">  1        3 0.12887436E-01 0.90974477E+02</pdfrwt>
<pdfrwt beam="2">  1       -3 0.38000201E-02 0.90974477E+02</pdfrwt>
<totfact> 0.34260786E+04</totfact>
</mgrwt>
</event>
<event>
 7    1  0.1247599E-009  0.9059418E+02  0.7818608E-02  0.1301419E+00
         -3   -1    0    0    0  501 -0.00000000000E+00  0.00000000000E+00  0.74210046235E+02  0.74210114966E+02  0.10100000000E+00 0.  1.
          3   -1    0    0  501    0  0.00000000000E+00 -0.00000000000E+00 -0.27648730522E+02  0.27648914996E+02  0.10100000000E+00 0. -1.
         23    2    1    2    0    0  0.00000000000E+00  0.00000000000E+00  0.46561315713E+02  0.10185902996E+03  0.90594182285E+02 0.  0.
    9000005    2    3    3    0    0  0.16540345980E+02 -0.15276527289E+02 -0.19702034012E+02  0.31874839976E+02  0.10994541742E+02 0.  0.
         22    1    3    3    0    0 -0.16540345980E+02  0.15276527289E+02  0.66263349725E+02  0.69984189986E+02  0.00000000000E+00 0.  1.
         22    1    4    4    0    0  0.17541215760E+02 -0.15066631345E+02 -0.20230155188E+02  0.30723880115E+02  0.00000000000E+00 0.  1.
         22    1    4    4    0    0 -0.10008697798E+01 -0.20989594454E+00  0.52812117609E+00  0.11509598604E+01  0.00000000000E+00 0.  1.
<mgrwt>
<rscale>  0 0.90594182E+02</rscale>
<asrwt>0</asrwt>
<pdfrwt beam="2">  1        3 0.42536704E-02 0.90594182E+02</pdfrwt>
<pdfrwt beam="1">  1       -3 0.11416950E-01 0.90594182E+02</pdfrwt>
<totfact> 0.35142391E+04</totfact>
</mgrwt>
</event>
<event>
 7    1  0.1247599E-009  0.8934764E+02  0.7818608E-02  0.1304439E+00
          3   -1    0    0  501    0  0.00000000000E+00  0.00000000000E+00  0.13381158569E+03  0.13381162381E+03  0.10100000000E+00 0. -1.
         -3   -1    0    0    0  501 -0.00000000000E+00 -0.00000000000E+00 -0.14914418120E+02  0.14914760100E+02  0.10100000000E+00 0.  1.
         23    2    1    2    0    0  0.00000000000E+00  0.00000000000E+00  0.11889716757E+03  0.14872638391E+03  0.89347640227E+02 0.  0.
    9000005    2    3    3    0    0  0.41148861179E+01 -0.39443514962E+02  0.26360984190E+02  0.48050327197E+02  0.64194467013E+01 0.  0.
         22    1    3    3    0    0 -0.41148861179E+01  0.39443514962E+02  0.92536183382E+02  0.10067605671E+03  0.00000000000E+00 0. -1.
         22    1    4    4    0    0  0.45402077565E+01 -0.38842445950E+02  0.26576908774E+02  0.47282990322E+02  0.00000000000E+00 0. -1.
         22    1    4    4    0    0 -0.42532163856E+00 -0.60106901181E+00 -0.21592458372E+00  0.76733687455E+00  0.00000000000E+00 0. -1.
<mgrwt>
<rscale>  0 0.89347640E+02</rscale>
<asrwt>0</asrwt>
<pdfrwt beam="1">  1        3 0.20586426E-01 0.89347640E+02</pdfrwt>
<pdfrwt beam="2">  1       -3 0.22945552E-02 0.89347640E+02</pdfrwt>
<totfact> 0.33151173E+04</totfact>
</mgrwt>
</event>
<event>
 7    1  0.1247599E-009  0.9063186E+02  0.7818608E-02  0.1301329E+00
         -3   -1    0    0    0  501 -0.00000000000E+00  0.00000000000E+00  0.81505420283E+01  0.81511677908E+01  0.10100000000E+00 0.  1.
          3   -1    0    0  501    0  0.00000000000E+00 -0.00000000000E+00 -0.25194022543E+03  0.25194024567E+03  0.10100000000E+00 0. -1.
         23    2    1    2    0    0  0.00000000000E+00  0.00000000000E+00 -0.24378968340E+03  0.26009141346E+03  0.90631857674E+02 0.  0.
    9000005    2    3    3    0    0 -0.13213722990E+02  0.14362333726E+02 -0.23885690998E+03  0.23996155110E+03  0.12167310858E+02 0.  0.
         22    1    3    3    0    0  0.13213722990E+02 -0.14362333726E+02 -0.49327734175E+01  0.20129862366E+02  0.00000000000E+00 0.  1.
         22    1    4    4    0    0 -0.32060386076E+01  0.42892840987E+01 -0.22080144582E+02  0.22720242657E+02  0.00000000000E+00 0. -1.
         22    1    4    4    0    0 -0.10007684382E+02  0.10073049627E+02 -0.21677676540E+03  0.21724130844E+03  0.00000000000E+00 0. -1.
<mgrwt>
<rscale>  0 0.90631858E+02</rscale>
<asrwt>0</asrwt>
<pdfrwt beam="2">  1        3 0.38760079E-01 0.90631858E+02</pdfrwt>
<pdfrwt beam="1">  1       -3 0.12539794E-02 0.90631858E+02</pdfrwt>
<totfact> 0.26078595E+04</totfact>
</mgrwt>
</event>
<event>
 7    1  0.1247599E-009  0.9260555E+02  0.7818608E-02  0.1296662E+00
         -3   -1    0    0    0  501 -0.00000000000E+00  0.00000000000E+00  0.15550326049E+03  0.15550329329E+03  0.10100000000E+00 0.  1.
          3   -1    0    0  501    0  0.00000000000E+00 -0.00000000000E+00 -0.13786932593E+02  0.13787302540E+02  0.10100000000E+00 0. -1.
         23    2    1    2    0    0  0.71054273576E-14  0.00000000000E+00  0.14171632790E+03  0.16929059583E+03  0.92605551908E+02 0.  0.
    9000005    2    3    3    0    0 -0.36857780707E+02  0.59842007925E+01  0.26221906602E+02  0.47909921883E+02  0.14610461020E+02 0.  0.
         22    1    3    3    0    0  0.36857780707E+02 -0.59842007925E+01  0.11549442130E+03  0.12138067395E+03  0.00000000000E+00 0.  1.
         22    1    4    4    0    0 -0.92929719958E+01  0.74104938010E+01  0.42225155134E+01  0.12613658635E+02  0.00000000000E+00 0. -1.
         22    1    4    4    0    0 -0.27564808711E+02 -0.14262930085E+01  0.21999391089E+02  0.35296263248E+02  0.00000000000E+00 0. -1.
<mgrwt>
<rscale>  0 0.92605552E+02</rscale>
<asrwt>0</asrwt>
<pdfrwt beam="2">  1        3 0.21210974E-02 0.92605552E+02</pdfrwt>
<pdfrwt beam="1">  1       -3 0.23923611E-01 0.92605552E+02</pdfrwt>
<totfact> 0.28922308E+04</totfact>
</mgrwt>
</event>
<event>
 7    1  0.1247599E-009  0.1105252E+03  0.7818608E-02  0.1259600E+00
         -3   -1    0    0    0  501 -0.00000000000E+00  0.00000000000E+00  0.19166436244E+03  0.19166438905E+03  0.10100000000E+00 0.  1.
          3   -1    0    0  501    0  0.00000000000E+00 -0.00000000000E+00 -0.15933685758E+02  0.15934005863E+02  0.10100000000E+00 0. -1.
         23    2    1    2    0    0  0.00000000000E+00  0.00000000000E+00  0.17573067668E+03  0.20759839491E+03  0.11052521361E+03 0.  0.
    9000005    2    3    3    0    0 -0.13070866995E+02 -0.50197729709E+02  0.12066529362E+03  0.13194883415E+03  0.12638121578E+02 0.  0.
         22    1    3    3    0    0  0.13070866995E+02  0.50197729709E+02  0.55065383055E+02  0.75649560759E+02  0.00000000000E+00 0. -1.
         22    1    4    4    0    0 -0.56768501491E+01 -0.10505583102E+02  0.17709120846E+02  0.21358999627E+02  0.00000000000E+00 0. -1.
         22    1    4    4    0    0 -0.73940168461E+01 -0.39692146608E+02  0.10295617278E+03  0.11058983453E+03  0.00000000000E+00 0. -1.
<mgrwt>
<rscale>  0 0.11052521E+03</rscale>
<asrwt>0</asrwt>
<pdfrwt beam="2">  1        3 0.24513629E-02 0.11052521E+03</pdfrwt>
<pdfrwt beam="1">  1       -3 0.29486852E-01 0.11052521E+03</pdfrwt>
<totfact> 0.16625254E+04</totfact>
</mgrwt>
</event>
<event>
 7    1  0.1247599E-009  0.9230262E+02  0.7818608E-02  0.1297369E+00
         -3   -1    0    0    0  501 -0.00000000000E+00  0.00000000000E+00  0.96279522066E+01  0.96284819516E+01  0.10100000000E+00 0.  1.
          3   -1    0    0  501    0  0.00000000000E+00 -0.00000000000E+00 -0.22121831836E+03  0.22121834142E+03  0.10100000000E+00 0. -1.
         23    2    1    2    0    0  0.00000000000E+00  0.88817841970E-15 -0.21159036615E+03  0.23084682337E+03  0.92302615403E+02 0.  0.
    9000005    2    3    3    0    0  0.34020234475E+02 -0.79765805006E+01 -0.17995336387E+03  0.18370976678E+03  0.12044212396E+02 0.  0.
         22    1    3    3    0    0 -0.34020234475E+02  0.79765805006E+01 -0.31637002281E+02  0.47137056585E+02  0.00000000000E+00 0.  1.
         22    1    4    4    0    0  0.79000766991E+01  0.28067206711E+01 -0.52146715086E+02  0.52816368552E+02  0.00000000000E+00 0.  1.
         22    1    4    4    0    0  0.26120157776E+02 -0.10783301172E+02 -0.12780664879E+03  0.13089339823E+03  0.00000000000E+00 0.  1.
<mgrwt>
<rscale>  0 0.92302615E+02</rscale>
<asrwt>0</asrwt>
<pdfrwt beam="2">  1        3 0.34033626E-01 0.92302615E+02</pdfrwt>
<pdfrwt beam="1">  1       -3 0.14812661E-02 0.92302615E+02</pdfrwt>
<totfact> 0.26099754E+04</totfact>
</mgrwt>
</event>
<event>
 7    1  0.1247599E-009  0.9028842E+02  0.7818608E-02  0.1302155E+00
          3   -1    0    0  501    0  0.00000000000E+00  0.00000000000E+00  0.46759285960E+02  0.46759395040E+02  0.10100000000E+00 0. -1.
         -3   -1    0    0    0  501 -0.00000000000E+00 -0.00000000000E+00 -0.43584696862E+02  0.43584813887E+02  0.10100000000E+00 0.  1.
         23    2    1    2    0    0  0.00000000000E+00 -0.35527136788E-14  0.31745890974E+01  0.90344208927E+02  0.90288416038E+02 0.  0.
    9000005    2    3    3    0    0 -0.32417814756E+02  0.29099203557E+02  0.11389895475E+02  0.46013975225E+02  0.94803921802E+01 0.  0.
         22    1    3    3    0    0  0.32417814756E+02 -0.29099203557E+02 -0.82153063773E+01  0.44330233702E+02  0.00000000000E+00 0. -1.
         22    1    4    4    0    0 -0.46759406842E+01  0.27088799828E+01  0.46645243145E+01  0.71386440676E+01  0.00000000000E+00 0. -1.
         22    1    4    4    0    0 -0.27741874072E+02  0.26390323574E+02  0.67253711602E+01  0.38875331157E+02  0.00000000000E+00 0. -1.
<mgrwt>
<rscale>  0 0.90288416E+02</rscale>
<asrwt>0</asrwt>
<pdfrwt beam="1">  1        3 0.71937536E-02 0.90288416E+02</pdfrwt>
<pdfrwt beam="2">  1       -3 0.67053555E-02 0.90288416E+02</pdfrwt>
<totfact> 0.36358404E+04</totfact>
</mgrwt>
</event>
<event>
 7    1  0.1247599E-009  0.9188437E+02  0.7818608E-02  0.1298352E+00
         -3   -1    0    0    0  501 -0.00000000000E+00  0.00000000000E+00  0.10207690989E+03  0.10207695986E+03  0.10100000000E+00 0.  1.
          3   -1    0    0  501    0  0.00000000000E+00 -0.00000000000E+00 -0.20677213139E+02  0.20677459810E+02  0.10100000000E+00 0. -1.
         23    2    1    2    0    0  0.00000000000E+00  0.22204460493E-15  0.81399696752E+02  0.12275441967E+03  0.91884367097E+02 0.  0.
    9000005    2    3    3    0    0  0.36929230822E+02  0.16038499831E+01  0.76771118584E+02  0.85501712925E+02  0.70991436500E+01 0.  0.
         22    1    3    3    0    0 -0.36929230822E+02 -0.16038499831E+01  0.46285781677E+01  0.37252706743E+02  0.00000000000E+00 0. -1.
         22    1    4    4    0    0  0.95009539301E+01  0.16939902102E-01  0.13352999335E+02  0.16388136068E+02  0.00000000000E+00 0.  1.
         22    1    4    4    0    0  0.27428276892E+02  0.15869100809E+01  0.63418119249E+02  0.69113576857E+02  0.00000000000E+00 0.  1.
<mgrwt>
<rscale>  0 0.91884367E+02</rscale>
<asrwt>0</asrwt>
<pdfrwt beam="2">  1        3 0.31811325E-02 0.91884367E+02</pdfrwt>
<pdfrwt beam="1">  1       -3 0.15704163E-01 0.91884367E+02</pdfrwt>
<totfact> 0.32372567E+04</totfact>
</mgrwt>
</event>
<event>
 7    1  0.1247599E-009  0.9023004E+02  0.7818608E-02  0.1302296E+00
         -3   -1    0    0    0  501 -0.00000000000E+00  0.00000000000E+00  0.18075440614E+03  0.18075443436E+03  0.10100000000E+00 0.  1.
          3   -1    0    0  501    0  0.00000000000E+00 -0.00000000000E+00 -0.11260134459E+02  0.11260587419E+02  0.10100000000E+00 0. -1.
         23    2    1    2    0    0 -0.22204460493E-15  0.00000000000E+00  0.16949427168E+03  0.19201502178E+03  0.90230041868E+02 0.  0.
    9000005    2    3    3    0    0 -0.17478000821E+01  0.34270593993E+02  0.27482731299E+02  0.45916404332E+02  0.13247160049E+02 0.  0.
         22    1    3    3    0    0  0.17478000821E+01 -0.34270593993E+02  0.14201154038E+03  0.14609861745E+03  0.00000000000E+00 0.  1.
         22    1    4    4    0    0  0.32625186221E+01  0.30033282234E+02  0.23013158510E+02  0.37976934238E+02  0.00000000000E+00 0. -1.
         22    1    4    4    0    0 -0.50103187042E+01  0.42373117590E+01  0.44695727897E+01  0.79394700946E+01  0.00000000000E+00 0. -1.
<mgrwt>
<rscale>  0 0.90230042E+02</rscale>
<asrwt>0</asrwt>
<pdfrwt beam="2">  1        3 0.17323656E-02 0.90230042E+02</pdfrwt>
<pdfrwt beam="1">  1       -3 0.27808404E-01 0.90230042E+02</pdfrwt>
<totfact> 0.29740787E+04</totfact>
</mgrwt>
</event>
<event>
 7    1  0.1247599E-009  0.9184612E+02  0.7818608E-02  0.1298442E+00
         -3   -1    0    0    0  501 -0.00000000000E+00  0.00000000000E+00  0.83885471932E+02  0.83885532735E+02  0.10100000000E+00 0.  1.
          3   -1    0    0  501    0  0.00000000000E+00 -0.00000000000E+00 -0.25140384420E+02  0.25140587299E+02  0.10100000000E+00 0. -1.
         23    2    1    2    0    0 -0.17763568394E-14  0.35527136788E-14  0.58745087512E+02  0.10902612003E+03  0.91846118823E+02 0.  0.
    9000005    2    3    3    0    0 -0.11417625055E+02  0.27851709464E+02 -0.10156414976E+02  0.33836380528E+02  0.11647660713E+02 0.  0.
         22    1    3    3    0    0  0.11417625055E+02 -0.27851709464E+02  0.68901502489E+02  0.75189739507E+02  0.00000000000E+00 0.  1.
         22    1    4    4    0    0 -0.91121679333E+01  0.22843653336E+02 -0.12796192040E+02  0.27723755750E+02  0.00000000000E+00 0.  1.
         22    1    4    4    0    0 -0.23054571219E+01  0.50080561280E+01  0.26397770640E+01  0.61126247775E+01  0.00000000000E+00 0.  1.
<mgrwt>
<rscale>  0 0.91846119E+02</rscale>
<asrwt>0</asrwt>
<pdfrwt beam="2">  1        3 0.38677718E-02 0.91846119E+02</pdfrwt>
<pdfrwt beam="1">  1       -3 0.12905477E-01 0.91846119E+02</pdfrwt>
<totfact> 0.33344981E+04</totfact>
</mgrwt>
</event>
<event>
 7    1  0.1247599E-009  0.9153165E+02  0.7818608E-02  0.1299184E+00
         -3   -1    0    0    0  501 -0.00000000000E+00  0.00000000000E+00  0.59552364839E+02  0.59552450487E+02  0.10100000000E+00 0.  1.
          3   -1    0    0  501    0  0.00000000000E+00 -0.00000000000E+00 -0.35170728135E+02  0.35170873155E+02  0.10100000000E+00 0. -1.
         23    2    1    2    0    0  0.00000000000E+00  0.00000000000E+00  0.24381636705E+02  0.94723323642E+02  0.91531654816E+02 0.  0.
    9000005    2    3    3    0    0  0.34621368756E+02  0.12961847467E+02  0.38124308482E+02  0.55283373188E+02  0.15366840583E+02 0.  0.
         22    1    3    3    0    0 -0.34621368756E+02 -0.12961847467E+02 -0.13742671777E+02  0.39439950454E+02  0.00000000000E+00 0. -1.
         22    1    4    4    0    0  0.35770290225E+02  0.13227994327E+02  0.34341100376E+02  0.51320606697E+02  0.00000000000E+00 0. -1.
         22    1    4    4    0    0 -0.11489214687E+01 -0.26614686033E+00  0.37832081056E+01  0.39627664911E+01  0.00000000000E+00 0. -1.
<mgrwt>
<rscale>  0 0.91531655E+02</rscale>
<asrwt>0</asrwt>
<pdfrwt beam="2">  1        3 0.54108990E-02 0.91531655E+02</pdfrwt>
<pdfrwt beam="1">  1       -3 0.91619199E-02 0.91531655E+02</pdfrwt>
<totfact> 0.34698760E+04</totfact>
</mgrwt>
</event>
<event>
 7    1  0.1247599E-009  0.9306511E+02  0.7818608E-02  0.1295594E+00
          3   -1    0    0  501    0  0.00000000000E+00  0.00000000000E+00  0.61640057824E+02  0.61640140570E+02  0.10100000000E+00 0. -1.
         -3   -1    0    0    0  501 -0.00000000000E+00 -0.00000000000E+00 -0.35127606767E+02  0.35127751966E+02  0.10100000000E+00 0.  1.
         23    2    1    2    0    0  0.11102230246E-15 -0.17763568394E-14  0.26512451056E+02  0.96767892536E+02  0.93065111427E+02 0.  0.
    9000005    2    3    3    0    0  0.28249323037E+00 -0.10195719350E+02  0.60313404347E+02  0.61461562525E+02  0.59820087411E+01 0.  0.
         22    1    3    3    0    0 -0.28249323037E+00  0.10195719350E+02 -0.33800953291E+02  0.35306330011E+02  0.00000000000E+00 0.  1.
         22    1    4    4    0    0  0.26751937171E+01 -0.41365952112E+01  0.33932449005E+02  0.34288178383E+02  0.00000000000E+00 0. -1.
         22    1    4    4    0    0 -0.23927004867E+01 -0.60591241389E+01  0.26380955342E+02  0.27173384142E+02  0.00000000000E+00 0. -1.
<mgrwt>
<rscale>  0 0.93065111E+02</rscale>
<asrwt>0</asrwt>
<pdfrwt beam="1">  1        3 0.94831033E-02 0.93065111E+02</pdfrwt>
<pdfrwt beam="2">  1       -3 0.54042648E-02 0.93065111E+02</pdfrwt>
<totfact> 0.33012518E+04</totfact>
</mgrwt>
</event>
<event>
 7    1  0.1450823E-009  0.8860962E+02  0.7818608E-02  0.1306254E+00
         -3   -1    0    0    0  501 -0.00000000000E+00  0.00000000000E+00  0.85772730752E+02  0.85772790217E+02  0.10100000000E+00 0.  1.
          3   -1    0    0  501    0  0.00000000000E+00 -0.00000000000E+00 -0.22884908046E+02  0.22885130921E+02  0.10100000000E+00 0. -1.
         23    2    1    2    0    0  0.00000000000E+00  0.00000000000E+00  0.62887822706E+02  0.10865792114E+03  0.88609624655E+02 0.  0.
    9000005    2    3    3    0    0 -0.22314902593E+02 -0.13236644125E+02 -0.10546377710E+02  0.30775025608E+02  0.12755880720E+02 0.  0.
         22    1    3    3    0    0  0.22314902593E+02  0.13236644125E+02  0.73434200416E+02  0.77882895530E+02  0.00000000000E+00 0.  1.
         22    1    4    4    0    0 -0.12732164500E+02 -0.10964631382E+02 -0.65292472005E+00  0.16815393689E+02  0.00000000000E+00 0.  1.
         22    1    4    4    0    0 -0.95827380930E+01 -0.22720127429E+01 -0.98934529904E+01  0.13959631920E+02  0.00000000000E+00 0.  1.
<mgrwt>
<rscale>  0 0.88609625E+02</rscale>
<asrwt>0</asrwt>
<pdfrwt beam="2">  1        3 0.35207768E-02 0.88609625E+02</pdfrwt>
<pdfrwt beam="1">  1       -3 0.13195826E-01 0.88609625E+02</pdfrwt>
<totfact> 0.36782069E+04</totfact>
</mgrwt>
</event>
<event>
 7    1  0.1247599E-009  0.8723269E+02  0.7818608E-02  0.1309695E+00
          3   -1    0    0  501    0  0.00000000000E+00  0.00000000000E+00  0.53058878160E+03  0.53058879121E+03  0.10100000000E+00 0. -1.
         -3   -1    0    0    0  501 -0.00000000000E+00 -0.00000000000E+00 -0.35847027348E+01  0.35861253041E+01  0.10100000000E+00 0.  1.
         23    2    1    2    0    0 -0.35527136788E-14 -0.11102230246E-15  0.52700407886E+03  0.53417491651E+03  0.87232690519E+02 0.  0.
    9000005    2    3    3    0    0  0.31720923953E+02 -0.76254345224E+00  0.44364932618E+03  0.44498515654E+03  0.13426333634E+02 0.  0.
         22    1    3    3    0    0 -0.31720923953E+02  0.76254345224E+00  0.83354752681E+02  0.89189759969E+02  0.00000000000E+00 0.  1.
         22    1    4    4    0    0  0.26325916616E+02  0.16645987670E+01  0.28293691811E+03  0.28416390412E+03  0.00000000000E+00 0.  1.
         22    1    4    4    0    0  0.53950073361E+01 -0.24271422192E+01  0.16071240807E+03  0.16082125242E+03  0.00000000000E+00 0.  1.
<mgrwt>
<rscale>  0 0.87232691E+02</rscale>
<asrwt>0</asrwt>
<pdfrwt beam="1">  1        3 0.81629146E-01 0.87232691E+02</pdfrwt>
<pdfrwt beam="2">  1       -3 0.55160295E-03 0.87232691E+02</pdfrwt>
<totfact> 0.19247880E+04</totfact>
</mgrwt>
</event>
<event>
 7    1  0.1255821E-009  0.9979474E+02  0.7818608E-02  0.1280728E+00
         -3   -1    0    0    0  501 -0.00000000000E+00  0.00000000000E+00  0.80255693320E+01  0.80262048381E+01  0.10100000000E+00 0.  1.
          3   -1    0    0  501    0  0.00000000000E+00 -0.00000000000E+00 -0.31021395913E+03  0.31021397557E+03  0.10100000000E+00 0. -1.
         23    2    1    2    0    0  0.00000000000E+00  0.17763568394E-14 -0.30218838979E+03  0.31824018041E+03  0.99794736828E+02 0.  0.
    9000005    2    3    3    0    0 -0.44330860980E+02  0.92921814444E+01 -0.21187705641E+03  0.21720698384E+03  0.15343302231E+02 0.  0.
         22    1    3    3    0    0  0.44330860980E+02 -0.92921814444E+01 -0.90311333379E+02  0.10103319656E+03  0.00000000000E+00 0.  1.
         22    1    4    4    0    0 -0.36646741763E+02  0.84950166003E+01 -0.14178981617E+03  0.14669526563E+03  0.00000000000E+00 0.  1.
         22    1    4    4    0    0 -0.76841192170E+01  0.79716484403E+00 -0.70087240249E+02  0.70511718215E+02  0.00000000000E+00 0.  1.
<mgrwt>
<rscale>  0 0.99794737E+02</rscale>
<asrwt>0</asrwt>
<pdfrwt beam="2">  1        3 0.47725265E-01 0.99794737E+02</pdfrwt>
<pdfrwt beam="1">  1       -3 0.12347534E-02 0.99794737E+02</pdfrwt>
<totfact> 0.18293610E+04</totfact>
</mgrwt>
</event>
<event>
 7    1  0.1247599E-009  0.9138040E+02  0.7818608E-02  0.1299543E+00
         -3   -1    0    0    0  501 -0.00000000000E+00  0.00000000000E+00  0.87580924225E+02  0.87580982463E+02  0.10100000000E+00 0.  1.
          3   -1    0    0  501    0  0.00000000000E+00 -0.00000000000E+00 -0.23836006035E+02  0.23836220017E+02  0.10100000000E+00 0. -1.
         23    2    1    2    0    0  0.00000000000E+00  0.00000000000E+00  0.63744918190E+02  0.11141720248E+03  0.91380404974E+02 0.  0.
    9000005    2    3    3    0    0 -0.17357238990E+02 -0.33795174700E+02  0.61590385946E+02  0.73364218529E+02  0.12064217387E+02 0.  0.
         22    1    3    3    0    0  0.17357238990E+02  0.33795174700E+02  0.21545322448E+01  0.38052983950E+02  0.00000000000E+00 0. -1.
         22    1    4    4    0    0 -0.70756252160E+01 -0.12559736063E+02  0.34789104854E+02  0.37657579034E+02  0.00000000000E+00 0.  1.
         22    1    4    4    0    0 -0.10281613774E+02 -0.21235438637E+02  0.26801281091E+02  0.35706639495E+02  0.00000000000E+00 0.  1.
<mgrwt>
<rscale>  0 0.91380405E+02</rscale>
<asrwt>0</asrwt>
<pdfrwt beam="2">  1        3 0.36670987E-02 0.91380405E+02</pdfrwt>
<pdfrwt beam="1">  1       -3 0.13474010E-01 0.91380405E+02</pdfrwt>
<totfact> 0.33640718E+04</totfact>
</mgrwt>
</event>
<event>
 7    1  0.1247599E-009  0.9052579E+02  0.7818608E-02  0.1301583E+00
         -3   -1    0    0    0  501 -0.00000000000E+00  0.00000000000E+00  0.86308474980E+02  0.86308534076E+02  0.10100000000E+00 0.  1.
          3   -1    0    0  501    0  0.00000000000E+00 -0.00000000000E+00 -0.23737121076E+02  0.23737335950E+02  0.10100000000E+00 0. -1.
         23    2    1    2    0    0 -0.35527136788E-14  0.00000000000E+00  0.62571353904E+02  0.11004587003E+03  0.90525792902E+02 0.  0.
    9000005    2    3    3    0    0  0.30769117194E+02 -0.28152024854E+02  0.13745210403E+02  0.45833197091E+02  0.13133014517E+02 0.  0.
         22    1    3    3    0    0 -0.30769117194E+02  0.28152024854E+02  0.48826143501E+02  0.64212672935E+02  0.00000000000E+00 0.  1.
         22    1    4    4    0    0  0.29118352687E+02 -0.20939974807E+02  0.13814322686E+02  0.38434314348E+02  0.00000000000E+00 0. -1.
         22    1    4    4    0    0  0.16507645069E+01 -0.72120500471E+01 -0.69112283111E-01  0.73988827432E+01  0.00000000000E+00 0. -1.
<mgrwt>
<rscale>  0 0.90525793E+02</rscale>
<asrwt>0</asrwt>
<pdfrwt beam="2">  1        3 0.36518858E-02 0.90525793E+02</pdfrwt>
<pdfrwt beam="1">  1       -3 0.13278248E-01 0.90525793E+02</pdfrwt>
<totfact> 0.34609874E+04</totfact>
</mgrwt>
</event>
<event>
 7    1  0.1247599E-009  0.9148919E+02  0.7818608E-02  0.1299285E+00
          3   -1    0    0  501    0  0.00000000000E+00  0.00000000000E+00  0.36393588377E+02  0.36393728525E+02  0.10100000000E+00 0. -1.
         -3   -1    0    0    0  501 -0.00000000000E+00 -0.00000000000E+00 -0.57497968483E+02  0.57498057190E+02  0.10100000000E+00 0.  1.
         23    2    1    2    0    0  0.35527136788E-14  0.00000000000E+00 -0.21104380106E+02  0.93891785715E+02  0.91489193706E+02 0.  0.
    9000005    2    3    3    0    0 -0.20199249501E+02  0.33924706626E+02  0.12653822584E+02  0.41944585126E+02  0.63508735902E+01 0.  0.
         22    1    3    3    0    0  0.20199249501E+02 -0.33924706626E+02 -0.33758202690E+02  0.51947200588E+02  0.00000000000E+00 0.  1.
         22    1    4    4    0    0 -0.12612270238E+01  0.61336543271E+01  0.30783791283E+01  0.69777379621E+01  0.00000000000E+00 0.  1.
         22    1    4    4    0    0 -0.18938022477E+02  0.27791052299E+02  0.95754434561E+01  0.34966847164E+02  0.00000000000E+00 0.  1.
<mgrwt>
<rscale>  0 0.91489194E+02</rscale>
<asrwt>0</asrwt>
<pdfrwt beam="1">  1        3 0.55990312E-02 0.91489194E+02</pdfrwt>
<pdfrwt beam="2">  1       -3 0.88458589E-02 0.91489194E+02</pdfrwt>
<totfact> 0.34805523E+04</totfact>
</mgrwt>
</event>
<event>
 7    1  0.1247599E-009  0.9138461E+02  0.7818608E-02  0.1299533E+00
          3   -1    0    0  501    0  0.00000000000E+00  0.00000000000E+00  0.42098657635E+02  0.42098778791E+02  0.10100000000E+00 0. -1.
         -3   -1    0    0    0  501 -0.00000000000E+00 -0.00000000000E+00 -0.49592469973E+02  0.49592572821E+02  0.10100000000E+00 0.  1.
         23    2    1    2    0    0  0.35527136788E-14  0.00000000000E+00 -0.74938123375E+01  0.91691351612E+02  0.91384608863E+02 0.  0.
    9000005    2    3    3    0    0  0.20583348082E+02  0.16707672092E+02 -0.40418008723E+02  0.49420519675E+02  0.10293289604E+02 0.  0.
         22    1    3    3    0    0 -0.20583348082E+02 -0.16707672092E+02  0.32924196385E+02  0.42270831937E+02  0.00000000000E+00 0. -1.
         22    1    4    4    0    0  0.21000698688E+02  0.15840921099E+02 -0.34291144696E+02  0.43218592425E+02  0.00000000000E+00 0. -1.
         22    1    4    4    0    0 -0.41735060626E+00  0.86675099291E+00 -0.61268640272E+01  0.62019272505E+01  0.00000000000E+00 0. -1.
<mgrwt>
<rscale>  0 0.91384609E+02</rscale>
<asrwt>0</asrwt>
<pdfrwt beam="1">  1        3 0.64767338E-02 0.91384609E+02</pdfrwt>
<pdfrwt beam="2">  1       -3 0.76296280E-02 0.91384609E+02</pdfrwt>
<totfact> 0.35080762E+04</totfact>
</mgrwt>
</event>
<event>
 7    1  0.1247599E-009  0.9079636E+02  0.7818608E-02  0.1300935E+00
          3   -1    0    0  501    0  0.00000000000E+00  0.00000000000E+00  0.36681086896E+02  0.36681225945E+02  0.10100000000E+00 0. -1.
         -3   -1    0    0    0  501 -0.00000000000E+00 -0.00000000000E+00 -0.56186554137E+02  0.56186644915E+02  0.10100000000E+00 0.  1.
         23    2    1    2    0    0  0.00000000000E+00  0.00000000000E+00 -0.19505467241E+02  0.92867870860E+02  0.90796355575E+02 0.  0.
    9000005    2    3    3    0    0 -0.14048443096E+02  0.38009032821E+02 -0.29153035769E+02  0.51213088326E+02  0.11438338688E+02 0.  0.
         22    1    3    3    0    0  0.14048443096E+02 -0.38009032821E+02  0.96475685279E+01  0.41654782534E+02  0.00000000000E+00 0. -1.
         22    1    4    4    0    0  0.15625671551E+00  0.11678513463E+02 -0.47634526155E+01  0.12613586868E+02  0.00000000000E+00 0.  1.
         22    1    4    4    0    0 -0.14204699811E+02  0.26330519359E+02 -0.24389583154E+02  0.38599501458E+02  0.00000000000E+00 0.  1.
<mgrwt>
<rscale>  0 0.90796356E+02</rscale>
<asrwt>0</asrwt>
<pdfrwt beam="1">  1        3 0.56432618E-02 0.90796356E+02</pdfrwt>
<pdfrwt beam="2">  1       -3 0.86441029E-02 0.90796356E+02</pdfrwt>
<totfact> 0.35612910E+04</totfact>
</mgrwt>
</event>
<event>
 7    1  0.1247599E-009  0.9073791E+02  0.7818608E-02  0.1301075E+00
          3   -1    0    0  501    0  0.00000000000E+00  0.00000000000E+00  0.14093782150E+03  0.14093785769E+03  0.10100000000E+00 0. -1.
         -3   -1    0    0    0  501 -0.00000000000E+00 -0.00000000000E+00 -0.14604397267E+02  0.14604746507E+02  0.10100000000E+00 0.  1.
         23    2    1    2    0    0  0.00000000000E+00  0.00000000000E+00  0.12633342424E+03  0.15554260420E+03  0.90737906313E+02 0.  0.
    9000005    2    3    3    0    0  0.28631045368E+02 -0.16191051280E+02  0.11591409919E+03  0.12103971686E+03  0.11517281201E+02 0.  0.
         22    1    3    3    0    0 -0.28631045368E+02  0.16191051280E+02  0.10419325047E+02  0.34502887341E+02  0.00000000000E+00 0.  1.
         22    1    4    4    0    0  0.79259435787E+01 -0.15686935559E+01  0.15545523887E+02  0.17519837157E+02  0.00000000000E+00 0.  1.
         22    1    4    4    0    0  0.20705101789E+02 -0.14622357724E+02  0.10036857530E+03  0.10351987970E+03  0.00000000000E+00 0.  1.
<mgrwt>
<rscale>  0 0.90737906E+02</rscale>
<asrwt>0</asrwt>
<pdfrwt beam="1">  1        3 0.21682770E-01 0.90737906E+02</pdfrwt>
<pdfrwt beam="2">  1       -3 0.22468601E-02 0.90737906E+02</pdfrwt>
<totfact> 0.31378206E+04</totfact>
</mgrwt>
</event>
<event>
 7    1  0.1247599E-009  0.8990079E+02  0.7818608E-02  0.1303092E+00
         -3   -1    0    0    0  501 -0.00000000000E+00  0.00000000000E+00  0.15548630296E+02  0.15548958328E+02  0.10100000000E+00 0.  1.
          3   -1    0    0  501    0  0.00000000000E+00 -0.00000000000E+00 -0.12994785460E+03  0.12994789385E+03  0.10100000000E+00 0. -1.
         23    2    1    2    0    0  0.00000000000E+00  0.00000000000E+00 -0.11439922430E+03  0.14549685217E+03  0.89900786828E+02 0.  0.
    9000005    2    3    3    0    0 -0.95373027260E+01  0.36561119558E+02 -0.94835415593E+02  0.10294784258E+03  0.13297617598E+02 0.  0.
         22    1    3    3    0    0  0.95373027260E+01 -0.36561119558E+02 -0.19563808706E+02  0.42549009598E+02  0.00000000000E+00 0.  1.
         22    1    4    4    0    0 -0.45647142663E+01  0.29816019598E+02 -0.83990349080E+02  0.89242424774E+02  0.00000000000E+00 0.  1.
         22    1    4    4    0    0 -0.49725884597E+01  0.67450999598E+01 -0.10845066513E+02  0.13705417802E+02  0.00000000000E+00 0.  1.
<mgrwt>
<rscale>  0 0.89900787E+02</rscale>
<asrwt>0</asrwt>
<pdfrwt beam="2">  1        3 0.19992005E-01 0.89900787E+02</pdfrwt>
<pdfrwt beam="1">  1       -3 0.23921253E-02 0.89900787E+02</pdfrwt>
<totfact> 0.32811349E+04</totfact>
</mgrwt>
</event>
<event>
 7    1  0.1247599E-009  0.8836530E+02  0.7818608E-02  0.1306859E+00
         -3   -1    0    0    0  501 -0.00000000000E+00  0.00000000000E+00  0.34667272461E+03  0.34667273933E+03  0.10100000000E+00 0.  1.
          3   -1    0    0  501    0  0.00000000000E+00 -0.00000000000E+00 -0.56305098969E+01  0.56314156922E+01  0.10100000000E+00 0. -1.
         23    2    1    2    0    0  0.00000000000E+00  0.00000000000E+00  0.34104221472E+03  0.35230415502E+03  0.88365295362E+02 0.  0.
    9000005    2    3    3    0    0 -0.20572168621E+02 -0.36432078393E+02  0.12269661885E+03  0.12998611775E+03  0.95613845375E+01 0.  0.
         22    1    3    3    0    0  0.20572168621E+02  0.36432078393E+02  0.21834559587E+03  0.22231803727E+03  0.00000000000E+00 0.  1.
         22    1    4    4    0    0 -0.90411579806E+01 -0.86690305412E+01  0.43809684937E+02  0.45565152501E+02  0.00000000000E+00 0.  1.
         22    1    4    4    0    0 -0.11531010640E+02 -0.27763047852E+02  0.78886933909E+02  0.84420965251E+02  0.00000000000E+00 0.  1.
<mgrwt>
<rscale>  0 0.88365295E+02</rscale>
<asrwt>0</asrwt>
<pdfrwt beam="2">  1        3 0.86630297E-03 0.88365295E+02</pdfrwt>
<pdfrwt beam="1">  1       -3 0.53334344E-01 0.88365295E+02</pdfrwt>
<totfact> 0.24058246E+04</totfact>
</mgrwt>
</event>
<event>
 7    1  0.1247599E-009  0.9126281E+02  0.7818608E-02  0.1299822E+00
          3   -1    0    0  501    0  0.00000000000E+00  0.00000000000E+00  0.35569379467E+02  0.35569522862E+02  0.10100000000E+00 0. -1.
         -3   -1    0    0    0  501 -0.00000000000E+00 -0.00000000000E+00 -0.58539520994E+02  0.58539608123E+02  0.10100000000E+00 0.  1.
         23    2    1    2    0    0 -0.35527136788E-14  0.00000000000E+00 -0.22970141527E+02  0.94109130985E+02  0.91262813528E+02 0.  0.
    9000005    2    3    3    0    0 -0.23869326824E+02 -0.32323594303E+02 -0.31986431168E+02  0.52928395313E+02  0.12795457782E+02 0.  0.
         22    1    3    3    0    0  0.23869326824E+02  0.32323594303E+02  0.90162896410E+01  0.41180735673E+02  0.00000000000E+00 0. -1.
         22    1    4    4    0    0 -0.43287824652E+01 -0.12130150696E+02 -0.16206162186E+02  0.20700690963E+02  0.00000000000E+00 0. -1.
         22    1    4    4    0    0 -0.19540544359E+02 -0.20193443606E+02 -0.15780268982E+02  0.32227704350E+02  0.00000000000E+00 0. -1.
<mgrwt>
<rscale>  0 0.91262814E+02</rscale>
<asrwt>0</asrwt>
<pdfrwt beam="1">  1        3 0.54722300E-02 0.91262814E+02</pdfrwt>
<pdfrwt beam="2">  1       -3 0.90060979E-02 0.91262814E+02</pdfrwt>
<totfact> 0.35025063E+04</totfact>
</mgrwt>
</event>
<event>
 7    1  0.1247599E-009  0.8943948E+02  0.7818608E-02  0.1304215E+00
         -3   -1    0    0    0  501 -0.00000000000E+00  0.00000000000E+00  0.72739929538E+01  0.72746941167E+01  0.10100000000E+00 0.  1.
          3   -1    0    0  501    0  0.00000000000E+00 -0.00000000000E+00 -0.27491828708E+03  0.27491830564E+03  0.10100000000E+00 0. -1.
         23    2    1    2    0    0  0.00000000000E+00  0.00000000000E+00 -0.26764429413E+03  0.28219299975E+03  0.89439481938E+02 0.  0.
    9000005    2    3    3    0    0 -0.31366593273E+02 -0.30451583267E+02 -0.15166879554E+03  0.15825156855E+03  0.11356641627E+02 0.  0.
         22    1    3    3    0    0  0.31366593273E+02  0.30451583267E+02 -0.11597549859E+03  0.12394143121E+03  0.00000000000E+00 0. -1.
         22    1    4    4    0    0 -0.27309915992E+02 -0.30716088331E+02 -0.13836470240E+03  0.14434022470E+03  0.00000000000E+00 0. -1.
         22    1    4    4    0    0 -0.40566772807E+01  0.26450506473E+00 -0.13304093140E+02  0.13911343852E+02  0.00000000000E+00 0. -1.
<mgrwt>
<rscale>  0 0.89439482E+02</rscale>
<asrwt>0</asrwt>
<pdfrwt beam="2">  1        3 0.42295169E-01 0.89439482E+02</pdfrwt>
<pdfrwt beam="1">  1       -3 0.11191314E-02 0.89439482E+02</pdfrwt>
<totfact> 0.26045621E+04</totfact>
</mgrwt>
</event>
<event>
 7    1  0.1247599E-009  0.8960674E+02  0.7818608E-02  0.1303807E+00
         -3   -1    0    0    0  501 -0.00000000000E+00  0.00000000000E+00  0.66018298493E+02  0.66018375752E+02  0.10100000000E+00 0.  1.
          3   -1    0    0  501    0  0.00000000000E+00 -0.00000000000E+00 -0.30405665693E+02  0.30405833441E+02  0.10100000000E+00 0. -1.
         23    2    1    2    0    0  0.00000000000E+00 -0.71054273576E-14  0.35612632800E+02  0.96424209193E+02  0.89606743628E+02 0.  0.
    9000005    2    3    3    0    0  0.17412821870E+02 -0.34641665632E+02 -0.36938550817E+01  0.41213237884E+02  0.13477204766E+02 0.  0.
         22    1    3    3    0    0 -0.17412821870E+02  0.34641665632E+02  0.39306487881E+02  0.55210971308E+02  0.00000000000E+00 0. -1.
         22    1    4    4    0    0  0.10731633295E+02 -0.79499022942E+01  0.57991041002E+00  0.13368066268E+02  0.00000000000E+00 0.  1.
         22    1    4    4    0    0  0.66811885754E+01 -0.26691763338E+02 -0.42737654917E+01  0.27845171616E+02  0.00000000000E+00 0.  1.
<mgrwt>
<rscale>  0 0.89606744E+02</rscale>
<asrwt>0</asrwt>
<pdfrwt beam="2">  1        3 0.46778136E-02 0.89606744E+02</pdfrwt>
<pdfrwt beam="1">  1       -3 0.10156680E-01 0.89606744E+02</pdfrwt>
<totfact> 0.36627534E+04</totfact>
</mgrwt>
</event>
<event>
 7    1  0.1247599E-009  0.9216076E+02  0.7818608E-02  0.1297702E+00
         -3   -1    0    0    0  501 -0.00000000000E+00  0.00000000000E+00  0.44794718361E+02  0.44794832225E+02  0.10100000000E+00 0.  1.
          3   -1    0    0  501    0  0.00000000000E+00 -0.00000000000E+00 -0.47402717534E+02  0.47402825134E+02  0.10100000000E+00 0. -1.
         23    2    1    2    0    0  0.00000000000E+00  0.00000000000E+00 -0.26079991732E+01  0.92197657358E+02  0.92160763683E+02 0.  0.
    9000005    2    3    3    0    0  0.16257101599E+02  0.10041764368E+02  0.40126514538E+02  0.45385596453E+02  0.91970001828E+01 0.  0.
         22    1    3    3    0    0 -0.16257101599E+02 -0.10041764368E+02 -0.42734513712E+02  0.46812060905E+02  0.00000000000E+00 0. -1.
         22    1    4    4    0    0  0.14990278244E+02  0.94949581783E+01  0.27788343014E+02  0.32970512281E+02  0.00000000000E+00 0. -1.
         22    1    4    4    0    0  0.12668233555E+01  0.54680619012E+00  0.12338171525E+02  0.12415084172E+02  0.00000000000E+00 0. -1.
<mgrwt>
<rscale>  0 0.92160764E+02</rscale>
<asrwt>0</asrwt>
<pdfrwt beam="2">  1        3 0.72927428E-02 0.92160764E+02</pdfrwt>
<pdfrwt beam="1">  1       -3 0.68915122E-02 0.92160764E+02</pdfrwt>
<totfact> 0.34241612E+04</totfact>
</mgrwt>
</event>
<event>
 7    1  0.1247599E-009  0.8486403E+02  0.7818608E-02  0.1315788E+00
          3   -1    0    0  501    0  0.00000000000E+00  0.00000000000E+00  0.54808713482E+03  0.54808714413E+03  0.10100000000E+00 0. -1.
         -3   -1    0    0    0  501 -0.00000000000E+00 -0.00000000000E+00 -0.32842318004E+01  0.32857844602E+01  0.10100000000E+00 0.  1.
         23    2    1    2    0    0  0.00000000000E+00 -0.35527136788E-14  0.54480290302E+03  0.55137292859E+03  0.84864027946E+02 0.  0.
    9000005    2    3    3    0    0  0.10757136630E+02  0.31035707275E+02  0.44565278695E+03  0.44692353112E+03  0.74367356958E+01 0.  0.
         22    1    3    3    0    0 -0.10757136630E+02 -0.31035707275E+02  0.99150116078E+02  0.10444939747E+03  0.00000000000E+00 0.  1.
         22    1    4    4    0    0  0.75395258613E+01  0.28436851445E+02  0.37689273091E+03  0.37803919053E+03  0.00000000000E+00 0. -1.
         22    1    4    4    0    0  0.32176107690E+01  0.25988558301E+01  0.68760056040E+02  0.68884340581E+02  0.00000000000E+00 0. -1.
<mgrwt>
<rscale>  0 0.84864028E+02</rscale>
<asrwt>0</asrwt>
<pdfrwt beam="1">  1        3 0.84321163E-01 0.84864028E+02</pdfrwt>
<pdfrwt beam="2">  1       -3 0.50538691E-03 0.84864028E+02</pdfrwt>
<totfact> 0.20241535E+04</totfact>
</mgrwt>
</event>
<event>
 7    1  0.1247599E-009  0.7966275E+02  0.7818608E-02  0.1330011E+00
          3   -1    0    0  501    0  0.00000000000E+00  0.00000000000E+00  0.27847220382E+02  0.27847403541E+02  0.10100000000E+00 0. -1.
         -3   -1    0    0    0  501 -0.00000000000E+00 -0.00000000000E+00 -0.56972536750E+02  0.56972626276E+02  0.10100000000E+00 0.  1.
         23    2    1    2    0    0  0.35527136788E-14  0.00000000000E+00 -0.29125316369E+02  0.84820029817E+02  0.79662747910E+02 0.  0.
    9000005    2    3    3    0    0 -0.31437195088E+02 -0.21824366591E+02 -0.25249296298E+02  0.46354152163E+02  0.68249723175E+01 0.  0.
         22    1    3    3    0    0  0.31437195088E+02  0.21824366591E+02 -0.38760200711E+01  0.38465877654E+02  0.00000000000E+00 0. -1.
         22    1    4    4    0    0 -0.26480404159E+02 -0.20708673334E+02 -0.23348783384E+02  0.40929532629E+02  0.00000000000E+00 0. -1.
         22    1    4    4    0    0 -0.49567909293E+01 -0.11156932567E+01 -0.19005129135E+01  0.54246195345E+01  0.00000000000E+00 0. -1.
<mgrwt>
<rscale>  0 0.79662748E+02</rscale>
<asrwt>0</asrwt>
<pdfrwt beam="1">  1        3 0.42842088E-02 0.79662748E+02</pdfrwt>
<pdfrwt beam="2">  1       -3 0.87650266E-02 0.79662748E+02</pdfrwt>
<totfact> 0.51610845E+04</totfact>
</mgrwt>
</event>
<event>
 7    1  0.1247599E-009  0.9190593E+02  0.7818608E-02  0.1298301E+00
         -3   -1    0    0    0  501 -0.00000000000E+00  0.00000000000E+00  0.10659732679E+02  0.10660211151E+02  0.10100000000E+00 0.  1.
          3   -1    0    0  501    0  0.00000000000E+00 -0.00000000000E+00 -0.19809336488E+03  0.19809339063E+03  0.10100000000E+00 0. -1.
         23    2    1    2    0    0  0.00000000000E+00  0.00000000000E+00 -0.18743363221E+03  0.20875360178E+03  0.91905928948E+02 0.  0.
    9000005    2    3    3    0    0 -0.11306526822E+02 -0.37515733463E+02 -0.39265940790E+02  0.55492606793E+02  0.15321542085E+01 0.  0.
         22    1    3    3    0    0  0.11306526822E+02  0.37515733463E+02 -0.14816769142E+03  0.15326099499E+03  0.00000000000E+00 0. -1.
         22    1    4    4    0    0 -0.68562533804E+01 -0.25249284509E+02 -0.26159846849E+02  0.36998272470E+02  0.00000000000E+00 0.  1.
         22    1    4    4    0    0 -0.44502734415E+01 -0.12266448954E+02 -0.13106093941E+02  0.18494334322E+02  0.00000000000E+00 0.  1.
<mgrwt>
<rscale>  0 0.91905929E+02</rscale>
<asrwt>0</asrwt>
<pdfrwt beam="2">  1        3 0.30475938E-01 0.91905929E+02</pdfrwt>
<pdfrwt beam="1">  1       -3 0.16399978E-02 0.91905929E+02</pdfrwt>
<totfact> 0.27455066E+04</totfact>
</mgrwt>
</event>
<event>
 7    1  0.1247599E-009  0.9174981E+02  0.7818608E-02  0.1298669E+00
         -3   -1    0    0    0  501 -0.00000000000E+00  0.00000000000E+00  0.11005984573E+02  0.11006447993E+02  0.10100000000E+00 0.  1.
          3   -1    0    0  501    0  0.00000000000E+00 -0.00000000000E+00 -0.19121026260E+03  0.19121028928E+03  0.10100000000E+00 0. -1.
         23    2    1    2    0    0  0.44408920985E-15  0.35527136788E-14 -0.18020427803E+03  0.20221673727E+03  0.91749806605E+02 0.  0.
    9000005    2    3    3    0    0 -0.30020164356E+01 -0.30182094618E+02 -0.17860373668E+02  0.37063734810E+02  0.11608468989E+02 0.  0.
         22    1    3    3    0    0  0.30020164356E+01  0.30182094618E+02 -0.16234390436E+03  0.16515300246E+03  0.00000000000E+00 0. -1.
         22    1    4    4    0    0 -0.10284511929E+01 -0.18258060235E+01 -0.58348207226E+01  0.61997106672E+01  0.00000000000E+00 0. -1.
         22    1    4    4    0    0 -0.19735652427E+01 -0.28356288595E+02 -0.12025552945E+02  0.30864024143E+02  0.00000000000E+00 0. -1.
<mgrwt>
<rscale>  0 0.91749807E+02</rscale>
<asrwt>0</asrwt>
<pdfrwt beam="2">  1        3 0.29416999E-01 0.91749807E+02</pdfrwt>
<pdfrwt beam="1">  1       -3 0.16932662E-02 0.91749807E+02</pdfrwt>
<totfact> 0.27907844E+04</totfact>
</mgrwt>
</event>
<event>
 7    1  0.1247599E-009  0.8708329E+02  0.7818608E-02  0.1310073E+00
         -3   -1    0    0    0  501 -0.00000000000E+00  0.00000000000E+00  0.10528746163E+03  0.10528751008E+03  0.10100000000E+00 0.  1.
          3   -1    0    0  501    0  0.00000000000E+00 -0.00000000000E+00 -0.18006459254E+02  0.18006742511E+02  0.10100000000E+00 0. -1.
         23    2    1    2    0    0  0.00000000000E+00 -0.22204460493E-15  0.87281002379E+02  0.12329425259E+03  0.87083289700E+02 0.  0.
    9000005    2    3    3    0    0  0.37984447648E+02 -0.46572175923E+00  0.19226078817E+02  0.45355123898E+02  0.15633617535E+02 0.  0.
         22    1    3    3    0    0 -0.37984447648E+02  0.46572175923E+00  0.68054923562E+02  0.77939128690E+02  0.00000000000E+00 0.  1.
         22    1    4    4    0    0  0.21641103928E+02 -0.52874428421E+01  0.17301463292E+02  0.28207003795E+02  0.00000000000E+00 0.  1.
         22    1    4    4    0    0  0.16343343720E+02  0.48217210829E+01  0.19246155250E+01  0.17148120103E+02  0.00000000000E+00 0.  1.
<mgrwt>
<rscale>  0 0.87083290E+02</rscale>
<asrwt>0</asrwt>
<pdfrwt beam="2">  1        3 0.27702499E-02 0.87083290E+02</pdfrwt>
<pdfrwt beam="1">  1       -3 0.16198097E-01 0.87083290E+02</pdfrwt>
<totfact> 0.37391071E+04</totfact>
</mgrwt>
</event>
<event>
 7    1  0.1247599E-009  0.9002163E+02  0.7818608E-02  0.1302799E+00
          3   -1    0    0  501    0  0.00000000000E+00  0.00000000000E+00  0.11072410674E+03  0.11072415281E+03  0.10100000000E+00 0. -1.
         -3   -1    0    0    0  501 -0.00000000000E+00 -0.00000000000E+00 -0.18297301041E+02  0.18297579796E+02  0.10100000000E+00 0.  1.
         23    2    1    2    0    0  0.35527136788E-14  0.00000000000E+00  0.92426805702E+02  0.12902173260E+03  0.90021625578E+02 0.  0.
    9000005    2    3    3    0    0 -0.28169136280E+02 -0.14699440840E+02  0.15297999391E+01  0.32731341305E+02  0.77088660630E+01 0.  0.
         22    1    3    3    0    0  0.28169136280E+02  0.14699440840E+02  0.90897005763E+02  0.96290391299E+02  0.00000000000E+00 0. -1.
         22    1    4    4    0    0 -0.48017325960E+01 -0.36443529234E+01 -0.25784305698E+01  0.65563898875E+01  0.00000000000E+00 0.  1.
         22    1    4    4    0    0 -0.23367403684E+02 -0.11055087917E+02  0.41082305089E+01  0.26174951417E+02  0.00000000000E+00 0.  1.
<mgrwt>
<rscale>  0 0.90021626E+02</rscale>
<asrwt>0</asrwt>
<pdfrwt beam="1">  1        3 0.17034503E-01 0.90021626E+02</pdfrwt>
<pdfrwt beam="2">  1       -3 0.28149944E-02 0.90021626E+02</pdfrwt>
<totfact> 0.33786821E+04</totfact>
</mgrwt>
</event>
<event>
 7    1  0.1247599E-009  0.8876115E+02  0.7818608E-02  0.1305880E+00
          3   -1    0    0  501    0  0.00000000000E+00  0.00000000000E+00  0.24922391291E+02  0.24922595946E+02  0.10100000000E+00 0. -1.
         -3   -1    0    0    0  501 -0.00000000000E+00 -0.00000000000E+00 -0.79030196889E+02  0.79030261427E+02  0.10100000000E+00 0.  1.
         23    2    1    2    0    0 -0.35527136788E-14 -0.35527136788E-14 -0.54107805597E+02  0.10395285737E+03  0.88761151015E+02 0.  0.
    9000005    2    3    3    0    0  0.31991915315E+02  0.20745260893E+02 -0.53136751287E+02  0.65811129023E+02  0.73308847223E+01 0.  0.
         22    1    3    3    0    0 -0.31991915315E+02 -0.20745260893E+02 -0.97105431014E+00  0.38141728350E+02  0.00000000000E+00 0. -1.
         22    1    4    4    0    0  0.16710052918E+02  0.67066636816E+01 -0.26672595289E+02  0.32181245248E+02  0.00000000000E+00 0. -1.
         22    1    4    4    0    0  0.15281862397E+02  0.14038597212E+02 -0.26464155998E+02  0.33629883775E+02  0.00000000000E+00 0. -1.
<mgrwt>
<rscale>  0 0.88761151E+02</rscale>
<asrwt>0</asrwt>
<pdfrwt beam="1">  1        3 0.38342348E-02 0.88761151E+02</pdfrwt>
<pdfrwt beam="2">  1       -3 0.12158512E-01 0.88761151E+02</pdfrwt>
<totfact> 0.36979241E+04</totfact>
</mgrwt>
</event>
<event>
 7    1  0.1247599E-009  0.9200821E+02  0.7818608E-02  0.1298060E+00
         -3   -1    0    0    0  501 -0.00000000000E+00  0.00000000000E+00  0.50728439062E+02  0.50728539607E+02  0.10100000000E+00 0.  1.
          3   -1    0    0  501    0  0.00000000000E+00 -0.00000000000E+00 -0.41719546409E+02  0.41719668665E+02  0.10100000000E+00 0. -1.
         23    2    1    2    0    0  0.00000000000E+00  0.44408920985E-15  0.90088926532E+01  0.92448208272E+02  0.92008211948E+02 0.  0.
    9000005    2    3    3    0    0 -0.42242037159E+02  0.38216516090E+01 -0.12949008027E+02  0.44686883682E+02  0.54996399809E+01 0.  0.
         22    1    3    3    0    0  0.42242037159E+02 -0.38216516090E+01  0.21957900680E+02  0.47761324591E+02  0.00000000000E+00 0.  1.
         22    1    4    4    0    0 -0.28983163919E+02  0.46964617675E+01 -0.10455416968E+02  0.31167230994E+02  0.00000000000E+00 0. -1.
         22    1    4    4    0    0 -0.13258873240E+02 -0.87481015851E+00 -0.24935910588E+01  0.13519652687E+02  0.00000000000E+00 0. -1.
<mgrwt>
<rscale>  0 0.92008212E+02</rscale>
<asrwt>0</asrwt>
<pdfrwt beam="2">  1        3 0.64184089E-02 0.92008212E+02</pdfrwt>
<pdfrwt beam="1">  1       -3 0.78043924E-02 0.92008212E+02</pdfrwt>
<totfact> 0.34378820E+04</totfact>
</mgrwt>
</event>
<event>
 7    1  0.1247599E-009  0.9565968E+02  0.7818608E-02  0.1289697E+00
          3   -1    0    0  501    0  0.00000000000E+00  0.00000000000E+00  0.95506729447E+02  0.95506782851E+02  0.10100000000E+00 0. -1.
         -3   -1    0    0    0  501 -0.00000000000E+00 -0.00000000000E+00 -0.23953049852E+02  0.23953262788E+02  0.10100000000E+00 0.  1.
         23    2    1    2    0    0  0.00000000000E+00  0.00000000000E+00  0.71553679595E+02  0.11946004564E+03  0.95659675102E+02 0.  0.
    9000005    2    3    3    0    0 -0.13842459619E+02 -0.32040597264E+02 -0.45904343342E+01  0.35697645677E+02  0.59191433692E+01 0.  0.
         22    1    3    3    0    0  0.13842459619E+02  0.32040597264E+02  0.76144113929E+02  0.83762399962E+02  0.00000000000E+00 0. -1.
         22    1    4    4    0    0 -0.10312084217E+02 -0.22831153867E+02 -0.60311150057E+00  0.25059218090E+02  0.00000000000E+00 0. -1.
         22    1    4    4    0    0 -0.35303754011E+01 -0.92094433970E+01 -0.39873228337E+01  0.10638427588E+02  0.00000000000E+00 0. -1.
<mgrwt>
<rscale>  0 0.95659675E+02</rscale>
<asrwt>0</asrwt>
<pdfrwt beam="1">  1        3 0.14693363E-01 0.95659675E+02</pdfrwt>
<pdfrwt beam="2">  1       -3 0.36851051E-02 0.95659675E+02</pdfrwt>
<totfact> 0.29199415E+04</totfact>
</mgrwt>
</event>
<event>
 7    1  0.1247599E-009  0.9072422E+02  0.7818608E-02  0.1301107E+00
          3   -1    0    0  501    0  0.00000000000E+00  0.00000000000E+00  0.36977496928E+02  0.36977634863E+02  0.10100000000E+00 0. -1.
         -3   -1    0    0    0  501 -0.00000000000E+00 -0.00000000000E+00 -0.55647639199E+02  0.55647730856E+02  0.10100000000E+00 0.  1.
         23    2    1    2    0    0  0.35527136788E-14  0.00000000000E+00 -0.18670142271E+02  0.92625365718E+02  0.90724220372E+02 0.  0.
    9000005    2    3    3    0    0 -0.24559295217E+02 -0.19629535442E+02 -0.41014528904E+02  0.54054012913E+02  0.15848251874E+02 0.  0.
         22    1    3    3    0    0  0.24559295217E+02  0.19629535442E+02  0.22344386634E+02  0.38571352806E+02  0.00000000000E+00 0. -1.
         22    1    4    4    0    0 -0.14372012232E+02 -0.12381650503E+02 -0.35784388392E+02  0.40501635244E+02  0.00000000000E+00 0. -1.
         22    1    4    4    0    0 -0.10187282986E+02 -0.72478849382E+01 -0.52301405120E+01  0.13552377669E+02  0.00000000000E+00 0. -1.
<mgrwt>
<rscale>  0 0.90724220E+02</rscale>
<asrwt>0</asrwt>
<pdfrwt beam="1">  1        3 0.56888633E-02 0.90724220E+02</pdfrwt>
<pdfrwt beam="2">  1       -3 0.85611930E-02 0.90724220E+02</pdfrwt>
<totfact> 0.35708685E+04</totfact>
</mgrwt>
</event>
<event>
 7    1  0.1247599E-009  0.9202631E+02  0.7818608E-02  0.1298018E+00
          3   -1    0    0  501    0  0.00000000000E+00  0.00000000000E+00  0.15448631811E+02  0.15448961966E+02  0.10100000000E+00 0. -1.
         -3   -1    0    0    0  501 -0.00000000000E+00 -0.00000000000E+00 -0.13704658839E+03  0.13704662560E+03  0.10100000000E+00 0.  1.
         23    2    1    2    0    0  0.00000000000E+00  0.00000000000E+00 -0.12159795657E+03  0.15249558757E+03  0.92026307025E+02 0.  0.
    9000005    2    3    3    0    0 -0.26006460385E+02 -0.11129212622E+02 -0.12070445523E+03  0.12419375547E+03  0.73707550901E+01 0.  0.
         22    1    3    3    0    0  0.26006460385E+02  0.11129212622E+02 -0.89350134451E+00  0.28301832096E+02  0.00000000000E+00 0. -1.
         22    1    4    4    0    0 -0.15511869909E+02 -0.84409609412E+01 -0.60598488256E+02  0.63119289513E+02  0.00000000000E+00 0. -1.
         22    1    4    4    0    0 -0.10494590476E+02 -0.26882516811E+01 -0.60105966974E+02  0.61074465960E+02  0.00000000000E+00 0. -1.
<mgrwt>
<rscale>  0 0.92026307E+02</rscale>
<asrwt>0</asrwt>
<pdfrwt beam="1">  1        3 0.23767409E-02 0.92026307E+02</pdfrwt>
<pdfrwt beam="2">  1       -3 0.21084118E-01 0.92026307E+02</pdfrwt>
<totfact> 0.30381881E+04</totfact>
</mgrwt>
</event>
<event>
 7    1  0.1247599E-009  0.9138604E+02  0.7818608E-02  0.1299529E+00
          3   -1    0    0  501    0  0.00000000000E+00  0.00000000000E+00  0.15876385424E+02  0.15876706684E+02  0.10100000000E+00 0. -1.
         -3   -1    0    0    0  501 -0.00000000000E+00 -0.00000000000E+00 -0.13150510346E+03  0.13150514225E+03  0.10100000000E+00 0.  1.
         23    2    1    2    0    0  0.71054273576E-14  0.00000000000E+00 -0.11562871804E+03  0.14738184893E+03  0.91386043572E+02 0.  0.
    9000005    2    3    3    0    0  0.34648380156E+02  0.41673138485E+00 -0.10557090640E+03  0.11130078067E+03  0.64779306270E+01 0.  0.
         22    1    3    3    0    0 -0.34648380156E+02 -0.41673138485E+00 -0.10057811635E+02  0.36081068268E+02  0.00000000000E+00 0. -1.
         22    1    4    4    0    0  0.86436055439E+00 -0.10902345006E+01 -0.32194102576E+01  0.35071830351E+01  0.00000000000E+00 0. -1.
         22    1    4    4    0    0  0.33784019602E+02  0.15069658855E+01 -0.10235149615E+03  0.10779359763E+03  0.00000000000E+00 0. -1.
<mgrwt>
<rscale>  0 0.91386044E+02</rscale>
<asrwt>0</asrwt>
<pdfrwt beam="1">  1        3 0.24425486E-02 0.91386044E+02</pdfrwt>
<pdfrwt beam="2">  1       -3 0.20231581E-01 0.91386044E+02</pdfrwt>
<totfact> 0.31274029E+04</totfact>
</mgrwt>
</event>
<event>
 7    1  0.1247599E-009  0.9058206E+02  0.7818608E-02  0.1301448E+00
         -3   -1    0    0    0  501 -0.00000000000E+00  0.00000000000E+00  0.87916452694E+01  0.87922254033E+01  0.10100000000E+00 0. -1.
          3   -1    0    0  501    0  0.00000000000E+00 -0.00000000000E+00 -0.23331291890E+03  0.23331294076E+03  0.10100000000E+00 0.  1.
         23    2    1    2    0    0  0.00000000000E+00 -0.44408920985E-15 -0.22452127363E+03  0.24210516616E+03  0.90582057665E+02 0.  0.
    9000005    2    3    3    0    0 -0.37615528824E+02 -0.20334351209E+01 -0.17652741837E+03  0.18109309351E+03  0.14619035961E+02 0.  0.
         22    1    3    3    0    0  0.37615528824E+02  0.20334351209E+01 -0.47993855258E+02  0.61012072655E+02  0.00000000000E+00 0. -1.
         22    1    4    4    0    0 -0.94439371136E+01 -0.26631610868E+01 -0.23070557356E+02  0.25070520375E+02  0.00000000000E+00 0.  1.
         22    1    4    4    0    0 -0.28171591711E+02  0.62972596586E+00 -0.15345686101E+03  0.15602257313E+03  0.00000000000E+00 0.  1.
<mgrwt>
<rscale>  0 0.90582058E+02</rscale>
<asrwt>0</asrwt>
<pdfrwt beam="2">  1        3 0.35894337E-01 0.90582058E+02</pdfrwt>
<pdfrwt beam="1">  1       -3 0.13526073E-02 0.90582058E+02</pdfrwt>
<totfact> 0.26928064E+04</totfact>
</mgrwt>
</event>
<event>
 7    1  0.1247599E-009  0.9074414E+02  0.7818608E-02  0.1301060E+00
          3   -1    0    0  501    0  0.00000000000E+00  0.00000000000E+00  0.22148214426E+03  0.22148216729E+03  0.10100000000E+00 0.  1.
         -3   -1    0    0    0  501 -0.00000000000E+00 -0.00000000000E+00 -0.92944688828E+01  0.92950176338E+01  0.10100000000E+00 0. -1.
         23    2    1    2    0    0 -0.35527136788E-14  0.71054273576E-14  0.21218767538E+03  0.23077718492E+03  0.90744143055E+02 0.  0.
    9000005    2    3    3    0    0  0.17124431067E+02 -0.33549961988E+02  0.48482870035E+02  0.62794717442E+02  0.13181113875E+02 0.  0.
         22    1    3    3    0    0 -0.17124431067E+02  0.33549961988E+02  0.16370480534E+03  0.16798246748E+03  0.00000000000E+00 0.  1.
         22    1    4    4    0    0  0.31896862282E+01 -0.17811948928E+02  0.28704946599E+02  0.33932485646E+02  0.00000000000E+00 0.  1.
         22    1    4    4    0    0  0.13934744839E+02 -0.15738013060E+02  0.19777923436E+02  0.28862231796E+02  0.00000000000E+00 0.  1.
<mgrwt>
<rscale>  0 0.90744143E+02</rscale>
<asrwt>0</asrwt>
<pdfrwt beam="1">  1        3 0.34074219E-01 0.90744143E+02</pdfrwt>
<pdfrwt beam="2">  1       -3 0.14299623E-02 0.90744143E+02</pdfrwt>
<totfact> 0.27329498E+04</totfact>
</mgrwt>
</event>
<event>
 7    1  0.1247599E-009  0.9549652E+02  0.7818608E-02  0.1290062E+00
          3   -1    0    0  501    0  0.00000000000E+00  0.00000000000E+00  0.12137764814E+02  0.12138185024E+02  0.10100000000E+00 0. -1.
         -3   -1    0    0    0  501 -0.00000000000E+00 -0.00000000000E+00 -0.18783125518E+03  0.18783128234E+03  0.10100000000E+00 0.  1.
         23    2    1    2    0    0  0.00000000000E+00  0.00000000000E+00 -0.17569349037E+03  0.19996946736E+03  0.95496519929E+02 0.  0.
    9000005    2    3    3    0    0 -0.29150352320E+02  0.29629863377E+02 -0.41562798270E+02  0.59546127395E+02  0.95185736119E+01 0.  0.
         22    1    3    3    0    0  0.29150352320E+02 -0.29629863377E+02 -0.13413069210E+03  0.14042333997E+03  0.00000000000E+00 0.  1.
         22    1    4    4    0    0 -0.10407082958E+02  0.11971938837E+02 -0.22397309854E+02  0.27445840922E+02  0.00000000000E+00 0.  1.
         22    1    4    4    0    0 -0.18743269362E+02  0.17657924540E+02 -0.19165488415E+02  0.32100286473E+02  0.00000000000E+00 0.  1.
<mgrwt>
<rscale>  0 0.95496520E+02</rscale>
<asrwt>0</asrwt>
<pdfrwt beam="1">  1        3 0.18673830E-02 0.95496520E+02</pdfrwt>
<pdfrwt beam="2">  1       -3 0.28897148E-01 0.95496520E+02</pdfrwt>
<totfact> 0.25140527E+04</totfact>
</mgrwt>
</event>
<event>
 7    1  0.1247599E-009  0.9168811E+02  0.7818608E-02  0.1298814E+00
         -3   -1    0    0    0  501 -0.00000000000E+00  0.00000000000E+00  0.17338415522E+02  0.17338709693E+02  0.10100000000E+00 0.  1.
          3   -1    0    0  501    0  0.00000000000E+00 -0.00000000000E+00 -0.12121372240E+03  0.12121376448E+03  0.10100000000E+00 0. -1.
         23    2    1    2    0    0  0.00000000000E+00  0.00000000000E+00 -0.10387530688E+03  0.13855247417E+03  0.91688105662E+02 0.  0.
    9000005    2    3    3    0    0 -0.42004211026E+02 -0.15006169605E+02 -0.41947220745E+02  0.62233232022E+02  0.11129553876E+02 0.  0.
         22    1    3    3    0    0  0.42004211026E+02  0.15006169605E+02 -0.61928086132E+02  0.76319242148E+02  0.00000000000E+00 0.  1.
         22    1    4    4    0    0 -0.11939073708E+02 -0.27154982791E+00 -0.15495598671E+02  0.19563455689E+02  0.00000000000E+00 0. -1.
         22    1    4    4    0    0 -0.30065137318E+02 -0.14734619777E+02 -0.26451622074E+02  0.42669776333E+02  0.00000000000E+00 0. -1.
<mgrwt>
<rscale>  0 0.91688106E+02</rscale>
<asrwt>0</asrwt>
<pdfrwt beam="2">  1        3 0.18648290E-01 0.91688106E+02</pdfrwt>
<pdfrwt beam="1">  1       -3 0.26674745E-02 0.91688106E+02</pdfrwt>
<totfact> 0.31539642E+04</totfact>
</mgrwt>
</event>
<event>
 7    1  0.1247599E-009  0.8844625E+02  0.7818608E-02  0.1306659E+00
         -3   -1    0    0    0  501 -0.00000000000E+00  0.00000000000E+00  0.13575957826E+02  0.13576333521E+02  0.10100000000E+00 0.  1.
          3   -1    0    0  501    0  0.00000000000E+00 -0.00000000000E+00 -0.14405263543E+03  0.14405267084E+03  0.10100000000E+00 0. -1.
         23    2    1    2    0    0 -0.88817841970E-15 -0.71054273576E-14 -0.13047667760E+03  0.15762900436E+03  0.88446252699E+02 0.  0.
    9000005    2    3    3    0    0  0.73045944029E+01  0.33399300159E+02 -0.11432685899E+03  0.11981780242E+03  0.10807624193E+02 0.  0.
         22    1    3    3    0    0 -0.73045944029E+01 -0.33399300159E+02 -0.16149818615E+02  0.37811201935E+02  0.00000000000E+00 0.  1.
         22    1    4    4    0    0  0.38781784693E+01  0.29167748308E+02 -0.10471888429E+03  0.10877427332E+03  0.00000000000E+00 0.  1.
         22    1    4    4    0    0  0.34264159337E+01  0.42315518510E+01 -0.96079747038E+01  0.11043529107E+02  0.00000000000E+00 0.  1.
<mgrwt>
<rscale>  0 0.88446253E+02</rscale>
<asrwt>0</asrwt>
<pdfrwt beam="2">  1        3 0.22161975E-01 0.88446253E+02</pdfrwt>
<pdfrwt beam="1">  1       -3 0.20886406E-02 0.88446253E+02</pdfrwt>
<totfact> 0.33483713E+04</totfact>
</mgrwt>
</event>
<event>
 7    1  0.1247599E-009  0.9142960E+02  0.7818608E-02  0.1299426E+00
          3   -1    0    0  501    0  0.00000000000E+00  0.00000000000E+00  0.81919983305E+03  0.81919983927E+03  0.10100000000E+00 0. -1.
         -3   -1    0    0    0  501 -0.00000000000E+00 -0.00000000000E+00 -0.25500721550E+01  0.25520715107E+01  0.10100000000E+00 0.  1.
         23    2    1    2    0    0  0.00000000000E+00  0.00000000000E+00  0.81664976089E+03  0.82175191078E+03  0.91429595385E+02 0.  0.
    9000005    2    3    3    0    0  0.16395756815E+01  0.16288598267E+02  0.79119659148E+03  0.79148855877E+03  0.13931462788E+02 0.  0.
         22    1    3    3    0    0 -0.16395756815E+01 -0.16288598267E+02  0.25453169416E+02  0.30263352016E+02  0.00000000000E+00 0.  1.
         22    1    4    4    0    0  0.56186409714E+01  0.18376386465E+01  0.31707079251E+03  0.31712589536E+03  0.00000000000E+00 0.  1.
         22    1    4    4    0    0 -0.39790652898E+01  0.14450959621E+02  0.47412579896E+03  0.47436266341E+03  0.00000000000E+00 0.  1.
<mgrwt>
<rscale>  0 0.91429595E+02</rscale>
<asrwt>0</asrwt>
<pdfrwt beam="1">  1        3 0.12603098E+00 0.91429595E+02</pdfrwt>
<pdfrwt beam="2">  1       -3 0.39247282E-03 0.91429595E+02</pdfrwt>
<totfact> 0.12023794E+04</totfact>
</mgrwt>
</event>
<event>
 7    1  0.1247599E-009  0.9086554E+02  0.7818608E-02  0.1300769E+00
         -3   -1    0    0    0  501 -0.00000000000E+00  0.00000000000E+00  0.36059316461E+01  0.36073458437E+01  0.10100000000E+00 0.  1.
          3   -1    0    0  501    0  0.00000000000E+00 -0.00000000000E+00 -0.57231440310E+03  0.57231441202E+03  0.10100000000E+00 0. -1.
         23    2    1    2    0    0  0.00000000000E+00  0.00000000000E+00 -0.56870847146E+03  0.57592175786E+03  0.90865536197E+02 0.  0.
    9000005    2    3    3    0    0  0.28782324382E+02  0.33488330763E+02 -0.33721055738E+03  0.34025000581E+03  0.10450643407E+02 0.  0.
         22    1    3    3    0    0 -0.28782324382E+02 -0.33488330763E+02 -0.23149791408E+03  0.23567175205E+03  0.00000000000E+00 0.  1.
         22    1    4    4    0    0  0.17731091736E+02  0.24150864179E+02 -0.19244313474E+03  0.19476143346E+03  0.00000000000E+00 0. -1.
         22    1    4    4    0    0  0.11051232647E+02  0.93374665836E+01 -0.14476742265E+03  0.14548857235E+03  0.00000000000E+00 0. -1.
<mgrwt>
<rscale>  0 0.90865536E+02</rscale>
<asrwt>0</asrwt>
<pdfrwt beam="2">  1        3 0.88048407E-01 0.90865536E+02</pdfrwt>
<pdfrwt beam="1">  1       -3 0.55486864E-03 0.90865536E+02</pdfrwt>
<totfact> 0.16362028E+04</totfact>
</mgrwt>
</event>
<event>
 7    1  0.1247599E-009  0.9339001E+02  0.7818608E-02  0.1294844E+00
         -3   -1    0    0    0  501 -0.00000000000E+00  0.00000000000E+00  0.30885985178E+02  0.30886150317E+02  0.10100000000E+00 0.  1.
          3   -1    0    0  501    0  0.00000000000E+00 -0.00000000000E+00 -0.70595495236E+02  0.70595567486E+02  0.10100000000E+00 0. -1.
         23    2    1    2    0    0  0.00000000000E+00 -0.71054273576E-14 -0.39709510058E+02  0.10148171780E+03  0.93390009418E+02 0.  0.
    9000005    2    3    3    0    0  0.42421301154E+01  0.42927614536E+02 -0.35794443464E+02  0.58167707320E+02  0.15539119480E+02 0.  0.
         22    1    3    3    0    0 -0.42421301154E+01 -0.42927614536E+02 -0.39150665937E+01  0.43314010483E+02  0.00000000000E+00 0.  1.
         22    1    4    4    0    0 -0.15223380233E+01  0.35957341849E+02 -0.23809081429E+02  0.43152291995E+02  0.00000000000E+00 0. -1.
         22    1    4    4    0    0  0.57644681387E+01  0.69702726870E+01 -0.11985362035E+02  0.15015415325E+02  0.00000000000E+00 0. -1.
<mgrwt>
<rscale>  0 0.93390009E+02</rscale>
<asrwt>0</asrwt>
<pdfrwt beam="2">  1        3 0.10860864E-01 0.93390009E+02</pdfrwt>
<pdfrwt beam="1">  1       -3 0.47517083E-02 0.93390009E+02</pdfrwt>
<totfact> 0.32371380E+04</totfact>
</mgrwt>
</event>
<event>
 7    1  0.1247599E-009  0.9087674E+02  0.7818608E-02  0.1300742E+00
          3   -1    0    0  501    0  0.00000000000E+00  0.00000000000E+00  0.13705295935E+02  0.13705668085E+02  0.10100000000E+00 0. -1.
         -3   -1    0    0    0  501 -0.00000000000E+00 -0.00000000000E+00 -0.15064338712E+03  0.15064342098E+03  0.10100000000E+00 0.  1.
         23    2    1    2    0    0  0.00000000000E+00  0.00000000000E+00 -0.13693809119E+03  0.16434908907E+03  0.90876742121E+02 0.  0.
    9000005    2    3    3    0    0 -0.45322030127E+01  0.33150237034E+02 -0.16972257162E+02  0.39804798096E+02  0.13299825516E+02 0.  0.
         22    1    3    3    0    0  0.45322030127E+01 -0.33150237034E+02 -0.11996583403E+03  0.12454429097E+03  0.00000000000E+00 0.  1.
         22    1    4    4    0    0  0.38221130441E+01  0.20074844840E+02 -0.85729651205E+01  0.22160859063E+02  0.00000000000E+00 0. -1.
         22    1    4    4    0    0 -0.83543160568E+01  0.13075392194E+02 -0.83992920417E+01  0.17643939033E+02  0.00000000000E+00 0. -1.
<mgrwt>
<rscale>  0 0.90876742E+02</rscale>
<asrwt>0</asrwt>
<pdfrwt beam="1">  1        3 0.21085384E-02 0.90876742E+02</pdfrwt>
<pdfrwt beam="2">  1       -3 0.23175936E-01 0.90876742E+02</pdfrwt>
<totfact> 0.30724892E+04</totfact>
</mgrwt>
</event>
<event>
 7    1  0.1247599E-009  0.6463909E+02  0.7818608E-02  0.1379334E+00
         -3   -1    0    0    0  501 -0.00000000000E+00  0.00000000000E+00  0.24970582654E+03  0.24970584697E+03  0.10100000000E+00 0.  1.
          3   -1    0    0  501    0  0.00000000000E+00 -0.00000000000E+00 -0.41825037902E+01  0.41837230973E+01  0.10100000000E+00 0. -1.
         23    2    1    2    0    0  0.00000000000E+00 -0.66613381478E-15  0.24552332275E+03  0.25388957007E+03  0.64639088583E+02 0.  0.
    9000005    2    3    3    0    0 -0.11692518135E+02 -0.14626907672E+01  0.24017332025E+03  0.24094828067E+03  0.15296919587E+02 0.  0.
         22    1    3    3    0    0  0.11692518135E+02  0.14626907672E+01  0.53500024981E+01  0.12941289401E+02  0.00000000000E+00 0. -1.
         22    1    4    4    0    0 -0.46159993181E+01  0.61862802671E+01  0.63404762436E+02  0.63872853489E+02  0.00000000000E+00 0. -1.
         22    1    4    4    0    0 -0.70765188173E+01 -0.76489710342E+01  0.17676855782E+03  0.17707542718E+03  0.00000000000E+00 0. -1.
<mgrwt>
<rscale>  0 0.64639089E+02</rscale>
<asrwt>0</asrwt>
<pdfrwt beam="2">  1        3 0.64355736E-03 0.64639089E+02</pdfrwt>
<pdfrwt beam="1">  1       -3 0.38416384E-01 0.64639089E+02</pdfrwt>
<totfact> 0.64122004E+04</totfact>
</mgrwt>
</event>
<event>
 7    1  0.1247599E-009  0.9099902E+02  0.7818608E-02  0.1300450E+00
         -3   -1    0    0    0  501 -0.00000000000E+00  0.00000000000E+00  0.30682019012E+03  0.30682020675E+03  0.10100000000E+00 0.  1.
          3   -1    0    0  501    0  0.00000000000E+00 -0.00000000000E+00 -0.67468975558E+01  0.67476534905E+01  0.10100000000E+00 0. -1.
         23    2    1    2    0    0  0.00000000000E+00  0.00000000000E+00  0.30007329257E+03  0.31356786024E+03  0.90999022311E+02 0.  0.
    9000005    2    3    3    0    0  0.50685644627E+01  0.22488070060E+02  0.28435170118E+03  0.28566495579E+03  0.14736803028E+02 0.  0.
         22    1    3    3    0    0 -0.50685644627E+01 -0.22488070060E+02  0.15721591390E+02  0.27902904447E+02  0.00000000000E+00 0. -1.
         22    1    4    4    0    0  0.57523661557E+01  0.12152251045E+02  0.86156171950E+02  0.87198927097E+02  0.00000000000E+00 0. -1.
         22    1    4    4    0    0 -0.68380169293E+00  0.10335819016E+02  0.19819552923E+03  0.19846602869E+03  0.00000000000E+00 0. -1.
<mgrwt>
<rscale>  0 0.90999022E+02</rscale>
<asrwt>0</asrwt>
<pdfrwt beam="2">  1        3 0.10380439E-02 0.90999022E+02</pdfrwt>
<pdfrwt beam="1">  1       -3 0.47203157E-01 0.90999022E+02</pdfrwt>
<totfact> 0.23630502E+04</totfact>
</mgrwt>
</event>
<event>
 7    1  0.1247599E-009  0.6535939E+02  0.7818608E-02  0.1376625E+00
         -3   -1    0    0    0  501 -0.00000000000E+00  0.00000000000E+00  0.33689202787E+02  0.33689354185E+02  0.10100000000E+00 0.  1.
          3   -1    0    0  501    0  0.00000000000E+00 -0.00000000000E+00 -0.31700131174E+02  0.31700292072E+02  0.10100000000E+00 0. -1.
         23    2    1    2    0    0  0.00000000000E+00  0.00000000000E+00  0.19890716123E+01  0.65389646258E+02  0.65359386715E+02 0.  0.
    9000005    2    3    3    0    0 -0.26523558820E+02  0.18244402908E+02  0.40168831992E+01  0.33133337886E+02  0.67324081032E+01 0.  0.
         22    1    3    3    0    0  0.26523558820E+02 -0.18244402908E+02 -0.20278115868E+01  0.32256308372E+02  0.00000000000E+00 0. -1.
         22    1    4    4    0    0 -0.19016343702E+02  0.13265915388E+02  0.59119916057E+01  0.23928173429E+02  0.00000000000E+00 0. -1.
         22    1    4    4    0    0 -0.75072151172E+01  0.49784875207E+01 -0.18951084065E+01  0.92051644571E+01  0.00000000000E+00 0. -1.
<mgrwt>
<rscale>  0 0.65359387E+02</rscale>
<asrwt>0</asrwt>
<pdfrwt beam="2">  1        3 0.48769673E-02 0.65359387E+02</pdfrwt>
<pdfrwt beam="1">  1       -3 0.51829783E-02 0.65359387E+02</pdfrwt>
<totfact> 0.91240674E+04</totfact>
</mgrwt>
</event>
<event>
 7    1  0.1247599E-009  0.8961988E+02  0.7818608E-02  0.1303775E+00
          3   -1    0    0  501    0  0.00000000000E+00  0.00000000000E+00  0.10023474132E+02  0.10023982975E+02  0.10100000000E+00 0. -1.
         -3   -1    0    0    0  501 -0.00000000000E+00 -0.00000000000E+00 -0.20031724518E+03  0.20031727064E+03  0.10100000000E+00 0.  1.
         23    2    1    2    0    0  0.00000000000E+00  0.00000000000E+00 -0.19029377105E+03  0.21034125362E+03  0.89619884365E+02 0.  0.
    9000005    2    3    3    0    0 -0.43551579795E+02  0.39464001461E+01 -0.85479035872E+02  0.96769941717E+02  0.12059928256E+02 0.  0.
         22    1    3    3    0    0  0.43551579795E+02 -0.39464001461E+01 -0.10481473518E+03  0.11357131190E+03  0.00000000000E+00 0.  1.
         22    1    4    4    0    0 -0.13887687238E+02 -0.19292206271E+01 -0.17933012828E+02  0.22763626647E+02  0.00000000000E+00 0.  1.
         22    1    4    4    0    0 -0.29663892556E+02  0.58756207732E+01 -0.67546023044E+02  0.74006315069E+02  0.00000000000E+00 0.  1.
<mgrwt>
<rscale>  0 0.89619884E+02</rscale>
<asrwt>0</asrwt>
<pdfrwt beam="1">  1        3 0.15421142E-02 0.89619884E+02</pdfrwt>
<pdfrwt beam="2">  1       -3 0.30818076E-01 0.89619884E+02</pdfrwt>
<totfact> 0.29297242E+04</totfact>
</mgrwt>
</event>
<event>
 7    1  0.1247599E-009  0.9013531E+02  0.7818608E-02  0.1302524E+00
          3   -1    0    0  501    0  0.00000000000E+00  0.00000000000E+00  0.17462493968E+02  0.17462786049E+02  0.10100000000E+00 0. -1.
         -3   -1    0    0    0  501 -0.00000000000E+00 -0.00000000000E+00 -0.11631047951E+03  0.11631052337E+03  0.10100000000E+00 0.  1.
         23    2    1    2    0    0  0.00000000000E+00  0.00000000000E+00 -0.98847985546E+02  0.13377330942E+03  0.90135309759E+02 0.  0.
    9000005    2    3    3    0    0  0.71189902921E+01  0.42144743940E+02 -0.65468171303E+02  0.79541663088E+02  0.14626525508E+02 0.  0.
         22    1    3    3    0    0 -0.71189902921E+01 -0.42144743940E+02 -0.33379814243E+02  0.54231646328E+02  0.00000000000E+00 0. -1.
         22    1    4    4    0    0  0.59281158754E+01  0.43317762215E+01 -0.10418174299E+02  0.12745399122E+02  0.00000000000E+00 0.  1.
         22    1    4    4    0    0  0.11908744167E+01  0.37812967718E+02 -0.55049997004E+02  0.66796263965E+02  0.00000000000E+00 0.  1.
<mgrwt>
<rscale>  0 0.90135310E+02</rscale>
<asrwt>0</asrwt>
<pdfrwt beam="1">  1        3 0.26865634E-02 0.90135310E+02</pdfrwt>
<pdfrwt beam="2">  1       -3 0.17893945E-01 0.90135310E+02</pdfrwt>
<totfact> 0.33352108E+04</totfact>
</mgrwt>
</event>
<event>
 7    1  0.1247599E-009  0.9339526E+02  0.7818608E-02  0.1294832E+00
          3   -1    0    0  501    0  0.00000000000E+00  0.00000000000E+00  0.27953236073E+02  0.27953418538E+02  0.10100000000E+00 0. -1.
         -3   -1    0    0    0  501 -0.00000000000E+00 -0.00000000000E+00 -0.78010838286E+02  0.78010903668E+02  0.10100000000E+00 0.  1.
         23    2    1    2    0    0 -0.35527136788E-14  0.00000000000E+00 -0.50057602213E+02  0.10596432221E+03  0.93395257060E+02 0.  0.
    9000005    2    3    3    0    0 -0.29254094461E+02  0.12167255967E+02 -0.63787987955E+02  0.71433645220E+02  0.54785127181E+01 0.  0.
         22    1    3    3    0    0  0.29254094461E+02 -0.12167255967E+02  0.13730385742E+02  0.34530676986E+02  0.00000000000E+00 0. -1.
         22    1    4    4    0    0 -0.19273193614E+02  0.62356177796E+01 -0.44975349805E+02  0.49326676467E+02  0.00000000000E+00 0. -1.
         22    1    4    4    0    0 -0.99809008464E+01  0.59316381877E+01 -0.18812638150E+02  0.22106968753E+02  0.00000000000E+00 0. -1.
<mgrwt>
<rscale>  0 0.93395257E+02</rscale>
<asrwt>0</asrwt>
<pdfrwt beam="1">  1        3 0.43005170E-02 0.93395257E+02</pdfrwt>
<pdfrwt beam="2">  1       -3 0.12001686E-01 0.93395257E+02</pdfrwt>
<totfact> 0.32062808E+04</totfact>
</mgrwt>
</event>
<event>
 6    1  0.1247599E-009  0.1877723E+03  0.7818608E-02  0.1160486E+00
         -3   -1    0    0    0  501 -0.00000000000E+00  0.00000000000E+00  0.81031069313E+02  0.81031132258E+02  0.10100000000E+00 0.  1.
          3   -1    0    0  501    0  0.00000000000E+00 -0.00000000000E+00 -0.10878045529E+03  0.10878050218E+03  0.10100000000E+00 0. -1.
    9000005    2    1    2    0    0 -0.52204313010E+01  0.78985008741E+02 -0.64257483680E+02  0.10264096445E+03  0.11843093563E+02 0.  0.
         22    1    1    2    0    0  0.52204313010E+01 -0.78985008741E+02  0.36508097701E+02  0.87170669990E+02  0.00000000000E+00 0.  1.
         22    1    3    3    0    0 -0.50257943242E+01  0.72897485399E+02 -0.54572771589E+02  0.91200270751E+02  0.00000000000E+00 0.  1.
         22    1    3    3    0    0 -0.19463697679E+00  0.60875233417E+01 -0.96847120903E+01  0.11440693697E+02  0.00000000000E+00 0.  1.
<mgrwt>
<rscale>  0 0.18777228E+03</rscale>
<asrwt>0</asrwt>
<pdfrwt beam="2">  1        3 0.16735463E-01 0.18777228E+03</pdfrwt>
<pdfrwt beam="1">  1       -3 0.12466327E-01 0.18777228E+03</pdfrwt>
<totfact> 0.37777513E+03</totfact>
</mgrwt>
</event>
<event>
 7    1  0.1247599E-009  0.9146785E+02  0.7818608E-02  0.1299336E+00
          3   -1    0    0  501    0  0.00000000000E+00  0.00000000000E+00  0.71511980990E+01  0.71519113006E+01  0.10100000000E+00 0. -1.
         -3   -1    0    0    0  501 -0.00000000000E+00 -0.00000000000E+00 -0.29246602116E+03  0.29246603860E+03  0.10100000000E+00 0.  1.
         23    2    1    2    0    0 -0.88817841970E-15  0.00000000000E+00 -0.28531482306E+03  0.29961794990E+03  0.91467850331E+02 0.  0.
    9000005    2    3    3    0    0  0.68526615535E+01  0.34346377440E+02 -0.23876649814E+03  0.24136523179E+03  0.45936774453E+01 0.  0.
         22    1    3    3    0    0 -0.68526615535E+01 -0.34346377440E+02 -0.46548324926E+02  0.58252718109E+02  0.00000000000E+00 0. -1.
         22    1    4    4    0    0 -0.33995483722E+00  0.56500153145E+01 -0.32772416078E+02  0.33257623155E+02  0.00000000000E+00 0.  1.
         22    1    4    4    0    0  0.71926163907E+01  0.28696362126E+02 -0.20599408206E+03  0.20810760864E+03  0.00000000000E+00 0.  1.
<mgrwt>
<rscale>  0 0.91467850E+02</rscale>
<asrwt>0</asrwt>
<pdfrwt beam="1">  1        3 0.11002408E-02 0.91467850E+02</pdfrwt>
<pdfrwt beam="2">  1       -3 0.44994820E-01 0.91467850E+02</pdfrwt>
<totfact> 0.23833271E+04</totfact>
</mgrwt>
</event>
<event>
 7    1  0.1247599E-009  0.9020856E+02  0.7818608E-02  0.1302347E+00
         -3   -1    0    0    0  501 -0.00000000000E+00  0.00000000000E+00  0.43978145770E+02  0.43978261748E+02  0.10100000000E+00 0.  1.
          3   -1    0    0  501    0  0.00000000000E+00 -0.00000000000E+00 -0.46259018468E+02  0.46259128727E+02  0.10100000000E+00 0. -1.
         23    2    1    2    0    0  0.00000000000E+00  0.35527136788E-14 -0.22808726976E+01  0.90237390476E+02  0.90208559791E+02 0.  0.
    9000005    2    3    3    0    0  0.36791252979E+02  0.23025551116E+02 -0.72795672573E+01  0.46548041118E+02  0.15164291361E+02 0.  0.
         22    1    3    3    0    0 -0.36791252979E+02 -0.23025551116E+02  0.49986945597E+01  0.43689349358E+02  0.00000000000E+00 0. -1.
         22    1    4    4    0    0  0.33961467453E+02  0.22780859100E+02 -0.24781164337E+01  0.40969377271E+02  0.00000000000E+00 0. -1.
         22    1    4    4    0    0  0.28297855260E+01  0.24469201576E+00 -0.48014508236E+01  0.55786638469E+01  0.00000000000E+00 0. -1.
<mgrwt>
<rscale>  0 0.90208560E+02</rscale>
<asrwt>0</asrwt>
<pdfrwt beam="2">  1        3 0.71167895E-02 0.90208560E+02</pdfrwt>
<pdfrwt beam="1">  1       -3 0.67658859E-02 0.90208560E+02</pdfrwt>
<totfact> 0.36454427E+04</totfact>
</mgrwt>
</event>
<event>
 7    1  0.1247599E-009  0.9004226E+02  0.7818608E-02  0.1302749E+00
          3   -1    0    0  501    0  0.00000000000E+00  0.00000000000E+00  0.59235299667E+02  0.59235385773E+02  0.10100000000E+00 0. -1.
         -3   -1    0    0    0  501 -0.00000000000E+00 -0.00000000000E+00 -0.34217622522E+02  0.34217771583E+02  0.10100000000E+00 0.  1.
         23    2    1    2    0    0  0.00000000000E+00 -0.17763568394E-14  0.25017677145E+02  0.93453157355E+02  0.90042259245E+02 0.  0.
    9000005    2    3    3    0    0 -0.40226528378E+02  0.14230279369E+02  0.26389222314E+02  0.50761758076E+02  0.77259687023E+01 0.  0.
         22    1    3    3    0    0  0.40226528378E+02 -0.14230279369E+02 -0.13715451696E+01  0.42691399279E+02  0.00000000000E+00 0.  1.
         22    1    4    4    0    0 -0.39207854664E+01  0.29446810929E+01  0.89109769151E+00  0.49837496434E+01  0.00000000000E+00 0. -1.
         22    1    4    4    0    0 -0.36305742911E+02  0.11285598276E+02  0.25498124623E+02  0.45778008433E+02  0.00000000000E+00 0. -1.
<mgrwt>
<rscale>  0 0.90042259E+02</rscale>
<asrwt>0</asrwt>
<pdfrwt beam="1">  1        3 0.91131411E-02 0.90042259E+02</pdfrwt>
<pdfrwt beam="2">  1       -3 0.52642677E-02 0.90042259E+02</pdfrwt>
<totfact> 0.36381618E+04</totfact>
</mgrwt>
</event>
<event>
 7    1  0.1247599E-009  0.1090413E+03  0.7818608E-02  0.1262356E+00
         -3   -1    0    0    0  501 -0.00000000000E+00  0.00000000000E+00  0.52957869877E+02  0.52957966189E+02  0.10100000000E+00 0.  1.
          3   -1    0    0  501    0  0.00000000000E+00 -0.00000000000E+00 -0.56129382182E+02  0.56129473052E+02  0.10100000000E+00 0. -1.
         23    2    1    2    0    0  0.88817841970E-15 -0.71054273576E-14 -0.31715123050E+01  0.10908743924E+03  0.10904132661E+03 0.  0.
    9000005    2    3    3    0    0 -0.77206147408E+01  0.50006902978E+02 -0.21714562784E+02  0.55197338494E+02  0.38633796708E+01 0.  0.
         22    1    3    3    0    0  0.77206147408E+01 -0.50006902978E+02  0.18543050479E+02  0.53890100747E+02  0.00000000000E+00 0.  1.
         22    1    4    4    0    0 -0.68954920106E+01  0.34658834488E+02 -0.14140446628E+02  0.38062249657E+02  0.00000000000E+00 0.  1.
         22    1    4    4    0    0 -0.82512273018E+00  0.15348068491E+02 -0.75741161557E+01  0.17135088837E+02  0.00000000000E+00 0.  1.
<mgrwt>
<rscale>  0 0.10904133E+03</rscale>
<asrwt>0</asrwt>
<pdfrwt beam="2">  1        3 0.86353039E-02 0.10904133E+03</pdfrwt>
<pdfrwt beam="1">  1       -3 0.81473790E-02 0.10904133E+03</pdfrwt>
<totfact> 0.20793783E+04</totfact>
</mgrwt>
</event>
<event>
 7    1  0.1247599E-009  0.9046552E+02  0.7818608E-02  0.1301728E+00
          3   -1    0    0  501    0  0.00000000000E+00  0.00000000000E+00  0.18036113613E+03  0.18036116441E+03  0.10100000000E+00 0. -1.
         -3   -1    0    0    0  501 -0.00000000000E+00 -0.00000000000E+00 -0.11343668149E+02  0.11344117775E+02  0.10100000000E+00 0.  1.
         23    2    1    2    0    0  0.00000000000E+00  0.00000000000E+00  0.16901746798E+03  0.19170528218E+03  0.90465522353E+02 0.  0.
    9000005    2    3    3    0    0  0.28118143873E+02  0.27361735835E+01  0.14493726032E+02  0.34620262254E+02  0.13797746318E+02 0.  0.
         22    1    3    3    0    0 -0.28118143873E+02 -0.27361735835E+01  0.15452374195E+03  0.15708501993E+03  0.00000000000E+00 0. -1.
         22    1    4    4    0    0  0.21644066990E+02 -0.37641099852E+01  0.12336776006E+02  0.25195836999E+02  0.00000000000E+00 0. -1.
         22    1    4    4    0    0  0.64740768834E+01  0.65002835687E+01  0.21569500256E+01  0.94244252546E+01  0.00000000000E+00 0. -1.
<mgrwt>
<rscale>  0 0.90465522E+02</rscale>
<asrwt>0</asrwt>
<pdfrwt beam="1">  1        3 0.27747903E-01 0.90465522E+02</pdfrwt>
<pdfrwt beam="2">  1       -3 0.17452165E-02 0.90465522E+02</pdfrwt>
<totfact> 0.29550445E+04</totfact>
</mgrwt>
</event>
<event>
 7    1  0.1247599E-009  0.9163724E+02  0.7818608E-02  0.1298935E+00
         -3   -1    0    0    0  501 -0.00000000000E+00  0.00000000000E+00  0.30152360742E+02  0.30152529899E+02  0.10100000000E+00 0.  1.
          3   -1    0    0  501    0  0.00000000000E+00 -0.00000000000E+00 -0.69624189647E+02  0.69624262904E+02  0.10100000000E+00 0. -1.
         23    2    1    2    0    0  0.00000000000E+00  0.00000000000E+00 -0.39471828904E+02  0.99776792803E+02  0.91637236455E+02 0.  0.
    9000005    2    3    3    0    0  0.27124943359E+02  0.24471211417E+02 -0.48637588916E+02  0.62112301607E+02  0.12558670906E+02 0.  0.
         22    1    3    3    0    0 -0.27124943359E+02 -0.24471211417E+02  0.91657600122E+01  0.37664491196E+02  0.00000000000E+00 0.  1.
         22    1    4    4    0    0  0.70800079094E+01  0.13146503125E+02 -0.13658020075E+02  0.20236070982E+02  0.00000000000E+00 0.  1.
         22    1    4    4    0    0  0.20044935450E+02  0.11324708292E+02 -0.34979568841E+02  0.41876230626E+02  0.00000000000E+00 0.  1.
<mgrwt>
<rscale>  0 0.91637236E+02</rscale>
<asrwt>0</asrwt>
<pdfrwt beam="2">  1        3 0.10711432E-01 0.91637236E+02</pdfrwt>
<pdfrwt beam="1">  1       -3 0.46388434E-02 0.91637236E+02</pdfrwt>
<totfact> 0.34214309E+04</totfact>
</mgrwt>
</event>
<event>
 7    1  0.1247599E-009  0.8965738E+02  0.7818608E-02  0.1303684E+00
         -3   -1    0    0    0  501 -0.00000000000E+00  0.00000000000E+00  0.13283965331E+02  0.13284349284E+02  0.10100000000E+00 0.  1.
          3   -1    0    0  501    0  0.00000000000E+00 -0.00000000000E+00 -0.15127839781E+03  0.15127843152E+03  0.10100000000E+00 0. -1.
         23    2    1    2    0    0  0.00000000000E+00  0.00000000000E+00 -0.13799443248E+03  0.16456278081E+03  0.89657378016E+02 0.  0.
    9000005    2    3    3    0    0 -0.35778989417E+02  0.16675435439E+02 -0.30647119184E+02  0.50187731510E+02  0.46212821810E+01 0.  0.
         22    1    3    3    0    0  0.35778989417E+02 -0.16675435439E+02 -0.10734731329E+03  0.11437504930E+03  0.00000000000E+00 0. -1.
         22    1    4    4    0    0 -0.34667823084E+02  0.16955719165E+02 -0.29618304677E+02  0.48647696160E+02  0.00000000000E+00 0.  1.
         22    1    4    4    0    0 -0.11111663332E+01 -0.28028372544E+00 -0.10288145079E+01  0.15400353497E+01  0.00000000000E+00 0.  1.
<mgrwt>
<rscale>  0 0.89657378E+02</rscale>
<asrwt>0</asrwt>
<pdfrwt beam="2">  1        3 0.23273631E-01 0.89657378E+02</pdfrwt>
<pdfrwt beam="1">  1       -3 0.20437192E-02 0.89657378E+02</pdfrwt>
<totfact> 0.31851514E+04</totfact>
</mgrwt>
</event>
<event>
 7    1  0.1247599E-009  0.9130335E+02  0.7818608E-02  0.1299726E+00
          3   -1    0    0  501    0  0.00000000000E+00  0.00000000000E+00  0.15284996925E+02  0.15285330615E+02  0.10100000000E+00 0. -1.
         -3   -1    0    0    0  501 -0.00000000000E+00 -0.00000000000E+00 -0.13634593308E+03  0.13634597049E+03  0.10100000000E+00 0.  1.
         23    2    1    2    0    0  0.00000000000E+00  0.00000000000E+00 -0.12106093616E+03  0.15163130111E+03  0.91303347210E+02 0.  0.
    9000005    2    3    3    0    0 -0.93001381717E+01 -0.36347130717E+02 -0.20606409990E+02  0.44399224241E+02  0.11792391578E+02 0.  0.
         22    1    3    3    0    0  0.93001381717E+01  0.36347130717E+02 -0.10045452617E+03  0.10723207686E+03  0.00000000000E+00 0.  1.
         22    1    4    4    0    0  0.25195323740E+01 -0.10628138578E+02 -0.71802439707E+01  0.13071391529E+02  0.00000000000E+00 0. -1.
         22    1    4    4    0    0 -0.11819670546E+02 -0.25718992139E+02 -0.13426166020E+02  0.31327832712E+02  0.00000000000E+00 0. -1.
<mgrwt>
<rscale>  0 0.91303347E+02</rscale>
<asrwt>0</asrwt>
<pdfrwt beam="1">  1        3 0.23515666E-02 0.91303347E+02</pdfrwt>
<pdfrwt beam="2">  1       -3 0.20976325E-01 0.91303347E+02</pdfrwt>
<totfact> 0.31091404E+04</totfact>
</mgrwt>
</event>
<event>
 7    1  0.1247599E-009  0.8566953E+02  0.7818608E-02  0.1313691E+00
          3   -1    0    0  501    0  0.00000000000E+00  0.00000000000E+00  0.50056860315E+01  0.50067048691E+01  0.10100000000E+00 0. -1.
         -3   -1    0    0    0  501 -0.00000000000E+00 -0.00000000000E+00 -0.36650823818E+03  0.36650825210E+03  0.10100000000E+00 0.  1.
         23    2    1    2    0    0  0.00000000000E+00  0.00000000000E+00 -0.36150255215E+03  0.37151495697E+03  0.85669528067E+02 0.  0.
    9000005    2    3    3    0    0 -0.31861769687E+02 -0.21612129193E+02 -0.26176993956E+03  0.26460915493E+03  0.34995882556E+01 0.  0.
         22    1    3    3    0    0  0.31861769687E+02  0.21612129193E+02 -0.99732612591E+02  0.10690580204E+03  0.00000000000E+00 0. -1.
         22    1    4    4    0    0 -0.55197772580E+01 -0.52847014190E+01 -0.55702575989E+02  0.56224309528E+02  0.00000000000E+00 0.  1.
         22    1    4    4    0    0 -0.26341992429E+02 -0.16327427774E+02 -0.20606736357E+03  0.20838484540E+03  0.00000000000E+00 0.  1.
<mgrwt>
<rscale>  0 0.85669528E+02</rscale>
<asrwt>0</asrwt>
<pdfrwt beam="1">  1        3 0.77018527E-03 0.85669528E+02</pdfrwt>
<pdfrwt beam="2">  1       -3 0.56385941E-01 0.85669528E+02</pdfrwt>
<totfact> 0.25372387E+04</totfact>
</mgrwt>
</event>
<event>
 7    1  0.1247599E-009  0.9115563E+02  0.7818608E-02  0.1300077E+00
          3   -1    0    0  501    0  0.00000000000E+00  0.00000000000E+00  0.12397429658E+03  0.12397433772E+03  0.10100000000E+00 0. -1.
         -3   -1    0    0    0  501 -0.00000000000E+00 -0.00000000000E+00 -0.16755995775E+02  0.16756300171E+02  0.10100000000E+00 0.  1.
         23    2    1    2    0    0  0.00000000000E+00  0.00000000000E+00  0.10721830080E+03  0.14073063789E+03  0.91155627440E+02 0.  0.
    9000005    2    3    3    0    0 -0.14874872508E+02 -0.32038938826E+02  0.10355192174E+02  0.37627692993E+02  0.78011436226E+01 0.  0.
         22    1    3    3    0    0  0.14874872508E+02  0.32038938826E+02  0.96863108631E+02  0.10310294490E+03  0.00000000000E+00 0. -1.
         22    1    4    4    0    0  0.21941911297E+00 -0.56660478513E+01  0.54507920210E+00  0.56964334751E+01  0.00000000000E+00 0.  1.
         22    1    4    4    0    0 -0.15094291621E+02 -0.26372890974E+02  0.98101129714E+01  0.31931259518E+02  0.00000000000E+00 0.  1.
<mgrwt>
<rscale>  0 0.91155627E+02</rscale>
<asrwt>0</asrwt>
<pdfrwt beam="1">  1        3 0.19072995E-01 0.91155627E+02</pdfrwt>
<pdfrwt beam="2">  1       -3 0.25778722E-02 0.91155627E+02</pdfrwt>
<totfact> 0.31904006E+04</totfact>
</mgrwt>
</event>
<event>
 7    1  0.1247599E-009  0.8894889E+02  0.7818608E-02  0.1305417E+00
          3   -1    0    0  501    0  0.00000000000E+00  0.00000000000E+00  0.10657302754E+02  0.10657781335E+02  0.10100000000E+00 0. -1.
         -3   -1    0    0    0  501 -0.00000000000E+00 -0.00000000000E+00 -0.18559353408E+03  0.18559356156E+03  0.10100000000E+00 0.  1.
         23    2    1    2    0    0  0.35527136788E-14  0.00000000000E+00 -0.17493623133E+03  0.19625134290E+03  0.88948887336E+02 0.  0.
    9000005    2    3    3    0    0  0.31589431534E+02 -0.29977375530E+02 -0.89918484535E+02  0.10072881939E+03  0.12822868850E+02 0.  0.
         22    1    3    3    0    0 -0.31589431534E+02  0.29977375530E+02 -0.85017746793E+02  0.95522523513E+02  0.00000000000E+00 0. -1.
         22    1    4    4    0    0  0.12191747456E+02 -0.17605520508E+02 -0.53795784574E+02  0.57901463680E+02  0.00000000000E+00 0. -1.
         22    1    4    4    0    0  0.19397684078E+02 -0.12371855022E+02 -0.36122699961E+02  0.42827355706E+02  0.00000000000E+00 0. -1.
<mgrwt>
<rscale>  0 0.88948887E+02</rscale>
<asrwt>0</asrwt>
<pdfrwt beam="1">  1        3 0.16396241E-02 0.88948887E+02</pdfrwt>
<pdfrwt beam="2">  1       -3 0.28552888E-01 0.88948887E+02</pdfrwt>
<totfact> 0.30667645E+04</totfact>
</mgrwt>
</event>
<event>
 7    1  0.1247599E-009  0.8871467E+02  0.7818608E-02  0.1305995E+00
          3   -1    0    0  501    0  0.00000000000E+00  0.00000000000E+00  0.14347835922E+02  0.14348191407E+02  0.10100000000E+00 0. -1.
         -3   -1    0    0    0  501 -0.00000000000E+00 -0.00000000000E+00 -0.13713171051E+03  0.13713174770E+03  0.10100000000E+00 0.  1.
         23    2    1    2    0    0  0.00000000000E+00  0.13877787808E-16 -0.12278387459E+03  0.15147993911E+03  0.88714666736E+02 0.  0.
    9000005    2    3    3    0    0 -0.37768295015E+02  0.99173320653E-01 -0.23470076213E+02  0.45227012133E+02  0.82573727858E+01 0.  0.
         22    1    3    3    0    0  0.37768295015E+02 -0.99173320653E-01 -0.99313798373E+02  0.10625292698E+03  0.00000000000E+00 0.  1.
         22    1    4    4    0    0  0.43664642551E+00  0.62582807606E-02 -0.12575918437E+00  0.45443881815E+00  0.00000000000E+00 0.  1.
         22    1    4    4    0    0 -0.38204941441E+02  0.92915039893E-01 -0.23344317029E+02  0.44772573315E+02  0.00000000000E+00 0.  1.
<mgrwt>
<rscale>  0 0.88714667E+02</rscale>
<asrwt>0</asrwt>
<pdfrwt beam="1">  1        3 0.22073897E-02 0.88714667E+02</pdfrwt>
<pdfrwt beam="2">  1       -3 0.21097216E-01 0.88714667E+02</pdfrwt>
<totfact> 0.33612267E+04</totfact>
</mgrwt>
</event>
<event>
 7    1  0.1247599E-009  0.9062522E+02  0.7818608E-02  0.1301345E+00
         -3   -1    0    0    0  501 -0.00000000000E+00  0.00000000000E+00  0.62394205773E+02  0.62394287519E+02  0.10100000000E+00 0.  1.
          3   -1    0    0  501    0  0.00000000000E+00 -0.00000000000E+00 -0.32907245396E+02  0.32907400392E+02  0.10100000000E+00 0. -1.
         23    2    1    2    0    0  0.00000000000E+00  0.00000000000E+00  0.29486960377E+02  0.95301687911E+02  0.90625222131E+02 0.  0.
    9000005    2    3    3    0    0  0.29449793621E+02  0.26600099898E+02  0.36367749236E+02  0.55025132519E+02  0.11414743330E+02 0.  0.
         22    1    3    3    0    0 -0.29449793621E+02 -0.26600099898E+02 -0.68807888588E+01  0.40276555392E+02  0.00000000000E+00 0. -1.
         22    1    4    4    0    0  0.21477968579E+02  0.15852877660E+02  0.17596337931E+02  0.31972612858E+02  0.00000000000E+00 0.  1.
         22    1    4    4    0    0  0.79718250429E+01  0.10747222238E+02  0.18771411305E+02  0.23052519661E+02  0.00000000000E+00 0.  1.
<mgrwt>
<rscale>  0 0.90625222E+02</rscale>
<asrwt>0</asrwt>
<pdfrwt beam="2">  1        3 0.50626713E-02 0.90625222E+02</pdfrwt>
<pdfrwt beam="1">  1       -3 0.95991268E-02 0.90625222E+02</pdfrwt>
<totfact> 0.35607209E+04</totfact>
</mgrwt>
</event>
<event>
 7    1  0.1699717E-009  0.9248976E+02  0.7818608E-02  0.1296932E+00
         -3   -1    0    0    0  501 -0.00000000000E+00  0.00000000000E+00  0.84831810944E+02  0.84831871069E+02  0.10100000000E+00 0.  1.
          3   -1    0    0  501    0  0.00000000000E+00 -0.00000000000E+00 -0.25209583481E+02  0.25209785805E+02  0.10100000000E+00 0. -1.
         23    2    1    2    0    0  0.00000000000E+00  0.00000000000E+00  0.59622227462E+02  0.11004165687E+03  0.92489762892E+02 0.  0.
    9000005    2    3    3    0    0  0.69223718682E+01 -0.38179290970E+02  0.25178145559E+01  0.41001875119E+02  0.13009107650E+02 0.  0.
         22    1    3    3    0    0 -0.69223718682E+01  0.38179290970E+02  0.57104412906E+02  0.69039781754E+02  0.00000000000E+00 0.  1.
         22    1    4    4    0    0  0.27392898891E+01 -0.23816642124E+02 -0.46394369995E+01  0.24418446446E+02  0.00000000000E+00 0. -1.
         22    1    4    4    0    0  0.41830819791E+01 -0.14362648847E+02  0.71572515554E+01  0.16583428673E+02  0.00000000000E+00 0. -1.
<mgrwt>
<rscale>  0 0.92489763E+02</rscale>
<asrwt>0</asrwt>
<pdfrwt beam="2">  1        3 0.38784177E-02 0.92489763E+02</pdfrwt>
<pdfrwt beam="1">  1       -3 0.13051068E-01 0.92489763E+02</pdfrwt>
<totfact> 0.32646457E+04</totfact>
</mgrwt>
</event>
<event>
 7    1  0.1247599E-009  0.9057167E+02  0.7818608E-02  0.1301473E+00
         -3   -1    0    0    0  501 -0.00000000000E+00  0.00000000000E+00  0.10942540559E+02  0.10943006665E+02  0.10100000000E+00 0.  1.
          3   -1    0    0  501    0  0.00000000000E+00 -0.00000000000E+00 -0.18741151219E+03  0.18741153941E+03  0.10100000000E+00 0. -1.
         23    2    1    2    0    0 -0.35527136788E-14 -0.17763568394E-14 -0.17646897163E+03  0.19835454607E+03  0.90571673268E+02 0.  0.
    9000005    2    3    3    0    0 -0.30686683636E+02 -0.13598612104E+02 -0.15469773599E+03  0.15834727792E+03  0.39844823629E+01 0.  0.
         22    1    3    3    0    0  0.30686683636E+02  0.13598612104E+02 -0.21771235640E+02  0.40007268152E+02  0.00000000000E+00 0.  1.
         22    1    4    4    0    0 -0.20388398614E+02 -0.69906933621E+01 -0.10059697024E+03  0.10288006130E+03  0.00000000000E+00 0.  1.
         22    1    4    4    0    0 -0.10298285021E+02 -0.66079187418E+01 -0.54100765750E+02  0.55467216617E+02  0.00000000000E+00 0.  1.
<mgrwt>
<rscale>  0 0.90571673E+02</rscale>
<asrwt>0</asrwt>
<pdfrwt beam="2">  1        3 0.28832576E-01 0.90571673E+02</pdfrwt>
<pdfrwt beam="1">  1       -3 0.16835059E-02 0.90571673E+02</pdfrwt>
<totfact> 0.29101411E+04</totfact>
</mgrwt>
</event>
<event>
 7    1  0.1247599E-009  0.9062837E+02  0.7818608E-02  0.1301337E+00
          3   -1    0    0  501    0  0.00000000000E+00  0.00000000000E+00  0.83237223649E+01  0.83243351090E+01  0.10100000000E+00 0. -1.
         -3   -1    0    0    0  501 -0.00000000000E+00 -0.00000000000E+00 -0.24667982494E+03  0.24667984562E+03  0.10100000000E+00 0.  1.
         23    2    1    2    0    0  0.00000000000E+00  0.00000000000E+00 -0.23835610258E+03  0.25500418073E+03  0.90628365057E+02 0.  0.
    9000005    2    3    3    0    0 -0.28458065086E+02 -0.33201162370E+02 -0.13627257626E+03  0.14394912683E+03  0.15458247738E+02 0.  0.
         22    1    3    3    0    0  0.28458065086E+02  0.33201162370E+02 -0.10208352632E+03  0.11105505390E+03  0.00000000000E+00 0. -1.
         22    1    4    4    0    0 -0.29918453622E+02 -0.29021938581E+02 -0.11791595181E+03  0.12506621637E+03  0.00000000000E+00 0. -1.
         22    1    4    4    0    0  0.14603885361E+01 -0.41792237885E+01 -0.18356624455E+02  0.18882910463E+02  0.00000000000E+00 0. -1.
<mgrwt>
<rscale>  0 0.90628365E+02</rscale>
<asrwt>0</asrwt>
<pdfrwt beam="1">  1        3 0.12806216E-02 0.90628365E+02</pdfrwt>
<pdfrwt beam="2">  1       -3 0.37950786E-01 0.90628365E+02</pdfrwt>
<totfact> 0.26301367E+04</totfact>
</mgrwt>
</event>
<event>
 7    1  0.1247599E-009  0.8998532E+02  0.7818608E-02  0.1302887E+00
          3   -1    0    0  501    0  0.00000000000E+00  0.00000000000E+00  0.30832322461E+02  0.30832487888E+02  0.10100000000E+00 0. -1.
         -3   -1    0    0    0  501 -0.00000000000E+00 -0.00000000000E+00 -0.65656029397E+02  0.65656107082E+02  0.10100000000E+00 0.  1.
         23    2    1    2    0    0 -0.71054273576E-14  0.22204460493E-15 -0.34823706935E+02  0.96488594969E+02  0.89985323217E+02 0.  0.
    9000005    2    3    3    0    0  0.43676246637E+02  0.13711673835E+01 -0.22803919672E+02  0.51167850204E+02  0.13734464745E+02 0.  0.
         22    1    3    3    0    0 -0.43676246637E+02 -0.13711673835E+01 -0.12019787264E+02  0.45320744766E+02  0.00000000000E+00 0. -1.
         22    1    4    4    0    0  0.27204174281E+02 -0.29171779533E+01 -0.77291172602E+01  0.28430903593E+02  0.00000000000E+00 0. -1.
         22    1    4    4    0    0  0.16472072356E+02  0.42883453368E+01 -0.15074802411E+02  0.22736946611E+02  0.00000000000E+00 0. -1.
<mgrwt>
<rscale>  0 0.89985323E+02</rscale>
<asrwt>0</asrwt>
<pdfrwt beam="1">  1        3 0.47434529E-02 0.89985323E+02</pdfrwt>
<pdfrwt beam="2">  1       -3 0.10100946E-01 0.89985323E+02</pdfrwt>
<totfact> 0.36205856E+04</totfact>
</mgrwt>
</event>
<event>
 7    1  0.1247599E-009  0.9080959E+02  0.7818608E-02  0.1300903E+00
          3   -1    0    0  501    0  0.00000000000E+00  0.00000000000E+00  0.40518333692E+03  0.40518334951E+03  0.10100000000E+00 0. -1.
         -3   -1    0    0    0  501 -0.00000000000E+00 -0.00000000000E+00 -0.50875421320E+01  0.50885445802E+01  0.10100000000E+00 0.  1.
         23    2    1    2    0    0  0.00000000000E+00  0.00000000000E+00  0.40009579479E+03  0.41027189409E+03  0.90809592400E+02 0.  0.
    9000005    2    3    3    0    0  0.42797516152E+02  0.13485030886E+02  0.20535496014E+03  0.21042828992E+03  0.97944932810E+01 0.  0.
         22    1    3    3    0    0 -0.42797516152E+02 -0.13485030886E+02  0.19474083465E+03  0.19984360417E+03  0.00000000000E+00 0.  1.
         22    1    4    4    0    0  0.16266528417E+02  0.50855778378E+01  0.57309814842E+02  0.59790282872E+02  0.00000000000E+00 0.  1.
         22    1    4    4    0    0  0.26530987735E+02  0.83994530478E+01  0.14804514530E+03  0.15063800705E+03  0.00000000000E+00 0.  1.
<mgrwt>
<rscale>  0 0.90809592E+02</rscale>
<asrwt>0</asrwt>
<pdfrwt beam="1">  1        3 0.62335971E-01 0.90809592E+02</pdfrwt>
<pdfrwt beam="2">  1       -3 0.78277693E-03 0.90809592E+02</pdfrwt>
<totfact> 0.20528607E+04</totfact>
</mgrwt>
</event>
<event>
 7    1  0.1247599E-009  0.9137563E+02  0.7818608E-02  0.1299554E+00
          3   -1    0    0  501    0  0.00000000000E+00  0.00000000000E+00  0.31924358072E+02  0.31924517840E+02  0.10100000000E+00 0. -1.
         -3   -1    0    0    0  501 -0.00000000000E+00 -0.00000000000E+00 -0.65384713337E+02  0.65384791344E+02  0.10100000000E+00 0.  1.
         23    2    1    2    0    0 -0.44408920985E-15  0.00000000000E+00 -0.33460355265E+02  0.97309309184E+02  0.91375632853E+02 0.  0.
    9000005    2    3    3    0    0 -0.14451256144E+01  0.35153338010E+02 -0.46423443051E+02  0.59814146746E+02  0.13592296527E+02 0.  0.
         22    1    3    3    0    0  0.14451256144E+01 -0.35153338010E+02  0.12963087786E+02  0.37495162438E+02  0.00000000000E+00 0. -1.
         22    1    4    4    0    0 -0.41227994408E+01  0.31700788483E+02 -0.45038938164E+02  0.55230819445E+02  0.00000000000E+00 0.  1.
         22    1    4    4    0    0  0.26776738264E+01  0.34525495276E+01 -0.13845048871E+01  0.45833273005E+01  0.00000000000E+00 0.  1.
<mgrwt>
<rscale>  0 0.91375633E+02</rscale>
<asrwt>0</asrwt>
<pdfrwt beam="1">  1        3 0.49114580E-02 0.91375633E+02</pdfrwt>
<pdfrwt beam="2">  1       -3 0.10059205E-01 0.91375633E+02</pdfrwt>
<totfact> 0.34666363E+04</totfact>
</mgrwt>
</event>
<event>
 7    1  0.1247599E-009  0.9091249E+02  0.7818608E-02  0.1300657E+00
          3   -1    0    0  501    0  0.00000000000E+00  0.00000000000E+00  0.33647043466E+02  0.33647195054E+02  0.10100000000E+00 0. -1.
         -3   -1    0    0    0  501 -0.00000000000E+00 -0.00000000000E+00 -0.61409824772E+02  0.61409907829E+02  0.10100000000E+00 0.  1.
         23    2    1    2    0    0  0.00000000000E+00  0.22204460493E-15 -0.27762781307E+02  0.95057102883E+02  0.90912489695E+02 0.  0.
    9000005    2    3    3    0    0  0.16427802834E+02  0.16570313026E+01 -0.57189575484E+02  0.61314627066E+02  0.14704335739E+02 0.  0.
         22    1    3    3    0    0 -0.16427802834E+02 -0.16570313026E+01  0.29426794177E+02  0.33742475817E+02  0.00000000000E+00 0. -1.
         22    1    4    4    0    0  0.10418180407E+01 -0.48342412647E+01 -0.19011160016E+02  0.19643815276E+02  0.00000000000E+00 0.  1.
         22    1    4    4    0    0  0.15385984794E+02  0.64912725673E+01 -0.38178415468E+02  0.41670811790E+02  0.00000000000E+00 0.  1.
<mgrwt>
<rscale>  0 0.90912490E+02</rscale>
<asrwt>0</asrwt>
<pdfrwt beam="1">  1        3 0.51764863E-02 0.90912490E+02</pdfrwt>
<pdfrwt beam="2">  1       -3 0.94476834E-02 0.90912490E+02</pdfrwt>
<totfact> 0.35321108E+04</totfact>
</mgrwt>
</event>
<event>
 7    1  0.1247599E-009  0.8416252E+02  0.7818608E-02  0.1317637E+00
         -3   -1    0    0    0  501 -0.00000000000E+00  0.00000000000E+00  0.67622946451E+02  0.67623021877E+02  0.10100000000E+00 0.  1.
          3   -1    0    0  501    0  0.00000000000E+00 -0.00000000000E+00 -0.26186668691E+02  0.26186863465E+02  0.10100000000E+00 0. -1.
         23    2    1    2    0    0  0.00000000000E+00  0.00000000000E+00  0.41436277761E+02  0.93809885342E+02  0.84162518220E+02 0.  0.
    9000005    2    3    3    0    0 -0.38872461751E+02 -0.15309330494E+02  0.21598288172E+02  0.47560672228E+02  0.70772599268E+01 0.  0.
         22    1    3    3    0    0  0.38872461751E+02  0.15309330494E+02  0.19837989588E+02  0.46249213114E+02  0.00000000000E+00 0. -1.
         22    1    4    4    0    0 -0.32278841603E+02 -0.10045077666E+02  0.15749706323E+02  0.37294509647E+02  0.00000000000E+00 0. -1.
         22    1    4    4    0    0 -0.65936201475E+01 -0.52642528286E+01  0.58485818491E+01  0.10266162581E+02  0.00000000000E+00 0. -1.
<mgrwt>
<rscale>  0 0.84162518E+02</rscale>
<asrwt>0</asrwt>
<pdfrwt beam="2">  1        3 0.40287391E-02 0.84162518E+02</pdfrwt>
<pdfrwt beam="1">  1       -3 0.10403551E-01 0.84162518E+02</pdfrwt>
<totfact> 0.43640363E+04</totfact>
</mgrwt>
</event>
<event>
 7    1  0.1247599E-009  0.9033058E+02  0.7818608E-02  0.1302053E+00
         -3   -1    0    0    0  501 -0.00000000000E+00  0.00000000000E+00  0.11527117425E+03  0.11527121850E+03  0.10100000000E+00 0.  1.
          3   -1    0    0  501    0  0.00000000000E+00 -0.00000000000E+00 -0.17696371660E+02  0.17696659880E+02  0.10100000000E+00 0. -1.
         23    2    1    2    0    0  0.00000000000E+00  0.00000000000E+00  0.97574802592E+02  0.13296787838E+03  0.90330584964E+02 0.  0.
    9000005    2    3    3    0    0 -0.13290844522E+02  0.37332712768E+02  0.78239667168E+02  0.88874506399E+02  0.14382432981E+02 0.  0.
         22    1    3    3    0    0  0.13290844522E+02 -0.37332712768E+02  0.19335135424E+02  0.44093371980E+02  0.00000000000E+00 0. -1.
         22    1    4    4    0    0 -0.18947700970E-01  0.68591087891E+01  0.26539792602E+02  0.27411828173E+02  0.00000000000E+00 0. -1.
         22    1    4    4    0    0 -0.13271896821E+02  0.30473603979E+02  0.51699874566E+02  0.61462678227E+02  0.00000000000E+00 0. -1.
<mgrwt>
<rscale>  0 0.90330585E+02</rscale>
<asrwt>0</asrwt>
<pdfrwt beam="2">  1        3 0.27225444E-02 0.90330585E+02</pdfrwt>
<pdfrwt beam="1">  1       -3 0.17734052E-01 0.90330585E+02</pdfrwt>
<totfact> 0.33211226E+04</totfact>
</mgrwt>
</event>
<event>
 7    1  0.1247599E-009  0.6619736E+02  0.7818608E-02  0.1373523E+00
          3   -1    0    0  501    0  0.00000000000E+00  0.00000000000E+00  0.93625738741E+01  0.93631186337E+01  0.10100000000E+00 0. -1.
         -3   -1    0    0    0  501 -0.00000000000E+00 -0.00000000000E+00 -0.11700686927E+03  0.11700691286E+03  0.10100000000E+00 0.  1.
         23    2    1    2    0    0  0.00000000000E+00  0.00000000000E+00 -0.10764429540E+03  0.12637003150E+03  0.66197360438E+02 0.  0.
    9000005    2    3    3    0    0  0.18113682809E+02 -0.18418787732E+02 -0.92194129078E+02  0.96269119788E+02  0.10031387832E+02 0.  0.
         22    1    3    3    0    0 -0.18113682809E+02  0.18418787732E+02 -0.15450166320E+02  0.30100911710E+02  0.00000000000E+00 0. -1.
         22    1    4    4    0    0  0.71160186543E+01 -0.42561206076E+01 -0.16327975408E+02  0.18312702287E+02  0.00000000000E+00 0.  1.
         22    1    4    4    0    0  0.10997664154E+02 -0.14162667125E+02 -0.75866153670E+02  0.77956417501E+02  0.00000000000E+00 0.  1.
<mgrwt>
<rscale>  0 0.66197360E+02</rscale>
<asrwt>0</asrwt>
<pdfrwt beam="1">  1        3 0.14404413E-02 0.66197360E+02</pdfrwt>
<pdfrwt beam="2">  1       -3 0.18001101E-01 0.66197360E+02</pdfrwt>
<totfact> 0.76863944E+04</totfact>
</mgrwt>
</event>
<event>
 7    1  0.1247599E-009  0.9196621E+02  0.7818608E-02  0.1298159E+00
          3   -1    0    0  501    0  0.00000000000E+00  0.00000000000E+00  0.17103191802E+02  0.17103490018E+02  0.10100000000E+00 0. -1.
         -3   -1    0    0    0  501 -0.00000000000E+00 -0.00000000000E+00 -0.12362733644E+03  0.12362737770E+03  0.10100000000E+00 0.  1.
         23    2    1    2    0    0  0.00000000000E+00  0.00000000000E+00 -0.10652414464E+03  0.14073086772E+03  0.91966209757E+02 0.  0.
    9000005    2    3    3    0    0  0.29514577547E+02  0.24457299686E+01 -0.20110531914E+01  0.32102703013E+02  0.12224864946E+02 0.  0.
         22    1    3    3    0    0 -0.29514577547E+02 -0.24457299686E+01 -0.10451309145E+03  0.10862816470E+03  0.00000000000E+00 0.  1.
         22    1    4    4    0    0  0.62591529114E+01  0.37142192196E+01  0.36388864418E+01  0.81371932579E+01  0.00000000000E+00 0. -1.
         22    1    4    4    0    0  0.23255424636E+02 -0.12684892510E+01 -0.56499396332E+01  0.23965509755E+02  0.00000000000E+00 0. -1.
<mgrwt>
<rscale>  0 0.91966210E+02</rscale>
<asrwt>0</asrwt>
<pdfrwt beam="1">  1        3 0.26312865E-02 0.91966210E+02</pdfrwt>
<pdfrwt beam="2">  1       -3 0.19019616E-01 0.91966210E+02</pdfrwt>
<totfact> 0.31147439E+04</totfact>
</mgrwt>
</event>
<event>
 7    1  0.1247599E-009  0.9170893E+02  0.7818608E-02  0.1298765E+00
         -3   -1    0    0    0  501 -0.00000000000E+00  0.00000000000E+00  0.80373215730E+01  0.80379561499E+01  0.10100000000E+00 0.  1.
          3   -1    0    0  501    0  0.00000000000E+00 -0.00000000000E+00 -0.26159757184E+03  0.26159759134E+03  0.10100000000E+00 0. -1.
         23    2    1    2    0    0  0.00000000000E+00  0.00000000000E+00 -0.25356025027E+03  0.26963554749E+03  0.91708930608E+02 0.  0.
    9000005    2    3    3    0    0 -0.32405040108E+02 -0.20392087070E+02 -0.60908492231E+02  0.73216037983E+02  0.13594850224E+02 0.  0.
         22    1    3    3    0    0  0.32405040108E+02  0.20392087070E+02 -0.19265175803E+03  0.19641950950E+03  0.00000000000E+00 0. -1.
         22    1    4    4    0    0 -0.28083952825E+02 -0.22305179967E+02 -0.52732868404E+02  0.63772916428E+02  0.00000000000E+00 0. -1.
         22    1    4    4    0    0 -0.43210872834E+01  0.19130928970E+01 -0.81756238269E+01  0.94431215550E+01  0.00000000000E+00 0. -1.
<mgrwt>
<rscale>  0 0.91708931E+02</rscale>
<asrwt>0</asrwt>
<pdfrwt beam="2">  1        3 0.40245824E-01 0.91708931E+02</pdfrwt>
<pdfrwt beam="1">  1       -3 0.12365615E-02 0.91708931E+02</pdfrwt>
<totfact> 0.24863075E+04</totfact>
</mgrwt>
</event>
<event>
 7    1  0.1247599E-009  0.8981797E+02  0.7818608E-02  0.1303293E+00
         -3   -1    0    0    0  501 -0.00000000000E+00  0.00000000000E+00  0.14263056067E+03  0.14263059643E+03  0.10100000000E+00 0.  1.
          3   -1    0    0  501    0  0.00000000000E+00 -0.00000000000E+00 -0.14139928661E+02  0.14140289372E+02  0.10100000000E+00 0. -1.
         23    2    1    2    0    0  0.00000000000E+00  0.00000000000E+00  0.12849063201E+03  0.15677088580E+03  0.89817972149E+02 0.  0.
    9000005    2    3    3    0    0 -0.18980432609E+02 -0.18655708163E+02  0.12708122730E+03  0.13011983159E+03  0.85580354662E+01 0.  0.
         22    1    3    3    0    0  0.18980432609E+02  0.18655708163E+02  0.14094047077E+01  0.26651054214E+02  0.00000000000E+00 0. -1.
         22    1    4    4    0    0 -0.84002973119E+01 -0.87527765793E+01  0.38655336924E+02  0.40514332840E+02  0.00000000000E+00 0. -1.
         22    1    4    4    0    0 -0.10580135297E+02 -0.99029315835E+01  0.88425890378E+02  0.89605498748E+02  0.00000000000E+00 0. -1.
<mgrwt>
<rscale>  0 0.89817972E+02</rscale>
<asrwt>0</asrwt>
<pdfrwt beam="2">  1        3 0.21754040E-02 0.89817972E+02</pdfrwt>
<pdfrwt beam="1">  1       -3 0.21943195E-01 0.89817972E+02</pdfrwt>
<totfact> 0.32177551E+04</totfact>
</mgrwt>
</event>
<event>
 7    1  0.1247599E-009  0.8996142E+02  0.7818608E-02  0.1302945E+00
         -3   -1    0    0    0  501 -0.00000000000E+00  0.00000000000E+00  0.32944178730E+02  0.32944333552E+02  0.10100000000E+00 0.  1.
          3   -1    0    0  501    0  0.00000000000E+00 -0.00000000000E+00 -0.61414585735E+02  0.61414668785E+02  0.10100000000E+00 0. -1.
         23    2    1    2    0    0 -0.71054273576E-14 -0.17763568394E-14 -0.28470407005E+02  0.94359002337E+02  0.89961420882E+02 0.  0.
    9000005    2    3    3    0    0 -0.35861171147E+02 -0.13169784683E+02  0.88060747204E+01  0.40982950456E+02  0.11941040635E+02 0.  0.
         22    1    3    3    0    0  0.35861171147E+02  0.13169784683E+02 -0.37276481725E+02  0.53376051881E+02  0.00000000000E+00 0. -1.
         22    1    4    4    0    0 -0.27224137317E+02 -0.14937235790E+02  0.83466959034E+01  0.32154968484E+02  0.00000000000E+00 0.  1.
         22    1    4    4    0    0 -0.86370338305E+01  0.17674511072E+01  0.45937881702E+00  0.88279819723E+01  0.00000000000E+00 0.  1.
<mgrwt>
<rscale>  0 0.89961421E+02</rscale>
<asrwt>0</asrwt>
<pdfrwt beam="2">  1        3 0.94484161E-02 0.89961421E+02</pdfrwt>
<pdfrwt beam="1">  1       -3 0.50683535E-02 0.89961421E+02</pdfrwt>
<totfact> 0.36398438E+04</totfact>
</mgrwt>
</event>
<event>
 7    1  0.1247599E-009  0.8510266E+02  0.7818608E-02  0.1315164E+00
         -3   -1    0    0    0  501 -0.00000000000E+00  0.00000000000E+00  0.29867104910E+02  0.29867275683E+02  0.10100000000E+00 0.  1.
          3   -1    0    0  501    0  0.00000000000E+00 -0.00000000000E+00 -0.60622021384E+02  0.60622105520E+02  0.10100000000E+00 0. -1.
         23    2    1    2    0    0  0.35527136788E-14  0.00000000000E+00 -0.30754916474E+02  0.90489381203E+02  0.85102662844E+02 0.  0.
    9000005    2    3    3    0    0  0.24297886002E+02 -0.18783625739E+02  0.15350038961E+02  0.35091919387E+02  0.72530855556E+01 0.  0.
         22    1    3    3    0    0 -0.24297886002E+02  0.18783625739E+02 -0.46104955434E+02  0.55397461816E+02  0.00000000000E+00 0. -1.
         22    1    4    4    0    0  0.85612481185E+01 -0.90689153384E+01  0.95564067367E+01  0.15711941461E+02  0.00000000000E+00 0. -1.
         22    1    4    4    0    0  0.15736637884E+02 -0.97147104005E+01  0.57936322238E+01  0.19379977925E+02  0.00000000000E+00 0. -1.
<mgrwt>
<rscale>  0 0.85102663E+02</rscale>
<asrwt>0</asrwt>
<pdfrwt beam="2">  1        3 0.93264844E-02 0.85102663E+02</pdfrwt>
<pdfrwt beam="1">  1       -3 0.45949588E-02 0.85102663E+02</pdfrwt>
<totfact> 0.42661397E+04</totfact>
</mgrwt>
</event>
<event>
 7    1  0.1247599E-009  0.7803206E+02  0.7818608E-02  0.1334731E+00
         -3   -1    0    0    0  501 -0.00000000000E+00  0.00000000000E+00  0.44591957581E+02  0.44592071962E+02  0.10100000000E+00 0.  1.
          3   -1    0    0  501    0  0.00000000000E+00 -0.00000000000E+00 -0.34137100267E+02  0.34137249679E+02  0.10100000000E+00 0. -1.
         23    2    1    2    0    0  0.00000000000E+00  0.00000000000E+00  0.10454857313E+02  0.78729321641E+02  0.78032057801E+02 0.  0.
    9000005    2    3    3    0    0 -0.11114756304E+01  0.21146353868E+02 -0.27783893290E+02  0.35018845693E+02  0.24435972174E+01 0.  0.
         22    1    3    3    0    0  0.11114756304E+01 -0.21146353868E+02  0.38238750603E+02  0.43710475948E+02  0.00000000000E+00 0.  1.
         22    1    4    4    0    0  0.13942078654E+00  0.14754315520E+02 -0.18170210714E+02  0.23406533746E+02  0.00000000000E+00 0.  1.
         22    1    4    4    0    0 -0.12508964170E+01  0.63920383480E+01 -0.96136825756E+01  0.11612311947E+02  0.00000000000E+00 0.  1.
<mgrwt>
<rscale>  0 0.78032058E+02</rscale>
<asrwt>0</asrwt>
<pdfrwt beam="2">  1        3 0.52518819E-02 0.78032058E+02</pdfrwt>
<pdfrwt beam="1">  1       -3 0.68603215E-02 0.78032058E+02</pdfrwt>
<totfact> 0.55311945E+04</totfact>
</mgrwt>
</event>
<event>
 7    1  0.1247599E-009  0.9233681E+02  0.7818608E-02  0.1297289E+00
          3   -1    0    0  501    0  0.00000000000E+00  0.00000000000E+00  0.12544381711E+02  0.12544788301E+02  0.10100000000E+00 0. -1.
         -3   -1    0    0    0  501 -0.00000000000E+00 -0.00000000000E+00 -0.16991525883E+03  0.16991528885E+03  0.10100000000E+00 0.  1.
         23    2    1    2    0    0  0.00000000000E+00  0.00000000000E+00 -0.15737087712E+03  0.18246007715E+03  0.92336811664E+02 0.  0.
    9000005    2    3    3    0    0  0.27006355523E+02  0.30451885759E+02 -0.11900044465E+03  0.12652305298E+03  0.13795525509E+02 0.  0.
         22    1    3    3    0    0 -0.27006355523E+02 -0.30451885759E+02 -0.38370432474E+02  0.55937024172E+02  0.00000000000E+00 0.  1.
         22    1    4    4    0    0  0.22155561785E+02  0.15092363032E+02 -0.77571454355E+02  0.82073009392E+02  0.00000000000E+00 0. -1.
         22    1    4    4    0    0  0.48507937378E+01  0.15359522727E+02 -0.41428990294E+02  0.44450043589E+02  0.00000000000E+00 0. -1.
<mgrwt>
<rscale>  0 0.92336812E+02</rscale>
<asrwt>0</asrwt>
<pdfrwt beam="1">  1        3 0.19299386E-02 0.92336812E+02</pdfrwt>
<pdfrwt beam="2">  1       -3 0.26140841E-01 0.92336812E+02</pdfrwt>
<totfact> 0.28440620E+04</totfact>
</mgrwt>
</event>
<event>
 7    1  0.1247599E-009  0.8798650E+02  0.7818608E-02  0.1307802E+00
         -3   -1    0    0    0  501 -0.00000000000E+00  0.00000000000E+00  0.42522758602E+02  0.42522878549E+02  0.10100000000E+00 0.  1.
          3   -1    0    0  501    0  0.00000000000E+00 -0.00000000000E+00 -0.45514355165E+02  0.45514467229E+02  0.10100000000E+00 0. -1.
         23    2    1    2    0    0 -0.71054273576E-14  0.00000000000E+00 -0.29915965634E+01  0.88037345778E+02  0.87986502383E+02 0.  0.
    9000005    2    3    3    0    0  0.41257888307E+02 -0.23014437631E+01 -0.12648325536E+02  0.45601954824E+02  0.14561873297E+02 0.  0.
         22    1    3    3    0    0 -0.41257888307E+02  0.23014437631E+01  0.96567289727E+01  0.42435390954E+02  0.00000000000E+00 0. -1.
         22    1    4    4    0    0  0.34346764133E+02 -0.28164584145E+01 -0.15892385581E+02  0.37949974491E+02  0.00000000000E+00 0.  1.
         22    1    4    4    0    0  0.69111241741E+01  0.51501465135E+00  0.32440600447E+01  0.76519803329E+01  0.00000000000E+00 0.  1.
<mgrwt>
<rscale>  0 0.87986502E+02</rscale>
<asrwt>0</asrwt>
<pdfrwt beam="2">  1        3 0.70022263E-02 0.87986502E+02</pdfrwt>
<pdfrwt beam="1">  1       -3 0.65419807E-02 0.87986502E+02</pdfrwt>
<totfact> 0.39196045E+04</totfact>
</mgrwt>
</event>
<event>
 7    1  0.1247599E-009  0.9865869E+02  0.7818608E-02  0.1283142E+00
         -3   -1    0    0    0  501 -0.00000000000E+00  0.00000000000E+00  0.39447443810E+02  0.39447573109E+02  0.10100000000E+00 0.  1.
          3   -1    0    0  501    0  0.00000000000E+00 -0.00000000000E+00 -0.61686470680E+02  0.61686553364E+02  0.10100000000E+00 0. -1.
         23    2    1    2    0    0  0.00000000000E+00 -0.17763568394E-14 -0.22239026869E+02  0.10113412647E+03  0.98658690551E+02 0.  0.
    9000005    2    3    3    0    0  0.26463030797E+02 -0.12789939768E+02  0.28762674956E+02  0.42269466894E+02  0.97745487167E+01 0.  0.
         22    1    3    3    0    0 -0.26463030797E+02  0.12789939768E+02 -0.51001701826E+02  0.58864659579E+02  0.00000000000E+00 0. -1.
         22    1    4    4    0    0  0.15471848704E+02 -0.72050925887E+01  0.98869231668E+01  0.19724165666E+02  0.00000000000E+00 0.  1.
         22    1    4    4    0    0  0.10991182093E+02 -0.55848471795E+01  0.18875751789E+02  0.22545301227E+02  0.00000000000E+00 0.  1.
<mgrwt>
<rscale>  0 0.98658691E+02</rscale>
<asrwt>0</asrwt>
<pdfrwt beam="2">  1        3 0.94902426E-02 0.98658691E+02</pdfrwt>
<pdfrwt beam="1">  1       -3 0.60688538E-02 0.98658691E+02</pdfrwt>
<totfact> 0.27871687E+04</totfact>
</mgrwt>
</event>
<event>
 7    1  0.1247599E-009  0.9253063E+02  0.7818608E-02  0.1296837E+00
          3   -1    0    0  501    0  0.00000000000E+00  0.00000000000E+00  0.21131340412E+03  0.21131342826E+03  0.10100000000E+00 0. -1.
         -3   -1    0    0    0  501 -0.00000000000E+00 -0.00000000000E+00 -0.10129129244E+02  0.10129632779E+02  0.10100000000E+00 0.  1.
         23    2    1    2    0    0  0.00000000000E+00  0.00000000000E+00  0.20118427488E+03  0.22144306104E+03  0.92530626408E+02 0.  0.
    9000005    2    3    3    0    0  0.64053225997E+01  0.25254678357E+02  0.19122991889E+03  0.19355191299E+03  0.14650399465E+02 0.  0.
         22    1    3    3    0    0 -0.64053225997E+01 -0.25254678357E+02  0.99543559861E+01  0.27891148052E+02  0.00000000000E+00 0.  1.
         22    1    4    4    0    0  0.75070530518E+01  0.11011526770E+02  0.55744734848E+02  0.57315661303E+02  0.00000000000E+00 0. -1.
         22    1    4    4    0    0 -0.11017304520E+01  0.14243151587E+02  0.13548518405E+03  0.13623625168E+03  0.00000000000E+00 0. -1.
<mgrwt>
<rscale>  0 0.92530626E+02</rscale>
<asrwt>0</asrwt>
<pdfrwt beam="1">  1        3 0.32509794E-01 0.92530626E+02</pdfrwt>
<pdfrwt beam="2">  1       -3 0.15583682E-02 0.92530626E+02</pdfrwt>
<totfact> 0.26356444E+04</totfact>
</mgrwt>
</event>
<event>
 7    1  0.1247599E-009  0.9336345E+02  0.7818608E-02  0.1294905E+00
         -3   -1    0    0    0  501 -0.00000000000E+00  0.00000000000E+00  0.54132790320E+03  0.54132791262E+03  0.10100000000E+00 0.  1.
          3   -1    0    0  501    0  0.00000000000E+00 -0.00000000000E+00 -0.40249822995E+01  0.40262493107E+01  0.10100000000E+00 0. -1.
         23    2    1    2    0    0  0.00000000000E+00  0.00000000000E+00  0.53730292090E+03  0.54535416193E+03  0.93363446430E+02 0.  0.
    9000005    2    3    3    0    0 -0.20742739765E+02 -0.33124051286E+02  0.41249176070E+03  0.41456696937E+03  0.13742467937E+02 0.  0.
         22    1    3    3    0    0  0.20742739765E+02  0.33124051286E+02  0.12481116020E+03  0.13078719256E+03  0.00000000000E+00 0. -1.
         22    1    4    4    0    0 -0.55500917465E+00 -0.74789492579E+01  0.44183917371E+02  0.44815859597E+02  0.00000000000E+00 0.  1.
         22    1    4    4    0    0 -0.20187730591E+02 -0.25645102028E+02  0.36830784333E+03  0.36975110977E+03  0.00000000000E+00 0.  1.
<mgrwt>
<rscale>  0 0.93363446E+02</rscale>
<asrwt>0</asrwt>
<pdfrwt beam="2">  1        3 0.61932650E-03 0.93363446E+02</pdfrwt>
<pdfrwt beam="1">  1       -3 0.83281278E-01 0.93363446E+02</pdfrwt>
<totfact> 0.15808306E+04</totfact>
</mgrwt>
</event>
<event>
 7    1  0.1247599E-009  0.9128817E+02  0.7818608E-02  0.1299762E+00
         -3   -1    0    0    0  501 -0.00000000000E+00  0.00000000000E+00  0.80211268044E+01  0.80217626625E+01  0.10100000000E+00 0.  1.
          3   -1    0    0  501    0  0.00000000000E+00 -0.00000000000E+00 -0.25972595144E+03  0.25972597108E+03  0.10100000000E+00 0. -1.
         23    2    1    2    0    0  0.00000000000E+00  0.00000000000E+00 -0.25170482464E+03  0.26774773374E+03  0.91288171076E+02 0.  0.
    9000005    2    3    3    0    0  0.10927686676E+02  0.10418052769E+02 -0.25206855086E+03  0.25264533472E+03  0.79473681855E+01 0.  0.
         22    1    3    3    0    0 -0.10927686676E+02 -0.10418052769E+02  0.36372622336E+00  0.15102399026E+02  0.00000000000E+00 0.  1.
         22    1    4    4    0    0 -0.43255381478E+00  0.26740275080E+01 -0.72785401916E+02  0.72835789678E+02  0.00000000000E+00 0.  1.
         22    1    4    4    0    0  0.11360240491E+02  0.77440252607E+01 -0.17928314894E+03  0.17980954504E+03  0.00000000000E+00 0.  1.
<mgrwt>
<rscale>  0 0.91288171E+02</rscale>
<asrwt>0</asrwt>
<pdfrwt beam="2">  1        3 0.39957883E-01 0.91288171E+02</pdfrwt>
<pdfrwt beam="1">  1       -3 0.12340701E-02 0.91288171E+02</pdfrwt>
<totfact> 0.25252102E+04</totfact>
</mgrwt>
</event>
<event>
 7    1  0.1247599E-009  0.9079736E+02  0.7818608E-02  0.1300932E+00
          3   -1    0    0  501    0  0.00000000000E+00  0.00000000000E+00  0.27227159018E+02  0.27227346349E+02  0.10100000000E+00 0. -1.
         -3   -1    0    0    0  501 -0.00000000000E+00 -0.00000000000E+00 -0.75697461912E+02  0.75697529292E+02  0.10100000000E+00 0.  1.
         23    2    1    2    0    0 -0.71054273576E-14 -0.17763568394E-14 -0.48470302894E+02  0.10292487564E+03  0.90797355485E+02 0.  0.
    9000005    2    3    3    0    0  0.41373259541E+02  0.11279163984E+02 -0.40985801962E+02  0.59393462852E+02  0.29633295207E+01 0.  0.
         22    1    3    3    0    0 -0.41373259541E+02 -0.11279163984E+02 -0.74845009315E+01  0.43531412789E+02  0.00000000000E+00 0. -1.
         22    1    4    4    0    0  0.19888625672E+02  0.50083373619E+01 -0.17633085905E+02  0.27047487735E+02  0.00000000000E+00 0. -1.
         22    1    4    4    0    0  0.21484633868E+02  0.62708266224E+01 -0.23352716058E+02  0.32345975117E+02  0.00000000000E+00 0. -1.
<mgrwt>
<rscale>  0 0.90797355E+02</rscale>
<asrwt>0</asrwt>
<pdfrwt beam="1">  1        3 0.41888133E-02 0.90797355E+02</pdfrwt>
<pdfrwt beam="2">  1       -3 0.11645783E-01 0.90797355E+02</pdfrwt>
<totfact> 0.34850183E+04</totfact>
</mgrwt>
</event>
<event>
 7    1  0.1247599E-009  0.8447974E+02  0.7818608E-02  0.1316799E+00
          3   -1    0    0  501    0  0.00000000000E+00  0.00000000000E+00  0.18784632622E+02  0.18784904145E+02  0.10100000000E+00 0. -1.
         -3   -1    0    0    0  501 -0.00000000000E+00 -0.00000000000E+00 -0.94981270240E+02  0.94981323940E+02  0.10100000000E+00 0.  1.
         23    2    1    2    0    0  0.00000000000E+00  0.00000000000E+00 -0.76196637618E+02  0.11376622809E+03  0.84479743540E+02 0.  0.
    9000005    2    3    3    0    0 -0.22437988425E+02 -0.35750222606E+02 -0.39160598822E+02  0.57612778408E+02  0.20342061955E+01 0.  0.
         22    1    3    3    0    0  0.22437988425E+02  0.35750222606E+02 -0.37036038796E+02  0.56153449678E+02  0.00000000000E+00 0.  1.
         22    1    4    4    0    0 -0.18791574158E+02 -0.28459183911E+02 -0.31396027823E+02  0.46354708189E+02  0.00000000000E+00 0.  1.
         22    1    4    4    0    0 -0.36464142673E+01 -0.72910386958E+01 -0.77645709982E+01  0.11258070219E+02  0.00000000000E+00 0.  1.
<mgrwt>
<rscale>  0 0.84479744E+02</rscale>
<asrwt>0</asrwt>
<pdfrwt beam="1">  1        3 0.28899686E-02 0.84479744E+02</pdfrwt>
<pdfrwt beam="2">  1       -3 0.14612528E-01 0.84479744E+02</pdfrwt>
<totfact> 0.41388868E+04</totfact>
</mgrwt>
</event>
<event>
 7    1  0.1247599E-009  0.9629064E+02  0.7818608E-02  0.1288295E+00
         -3   -1    0    0    0  501 -0.00000000000E+00  0.00000000000E+00  0.10389268108E+03  0.10389273018E+03  0.10100000000E+00 0.  1.
          3   -1    0    0  501    0  0.00000000000E+00 -0.00000000000E+00 -0.22311043140E+02  0.22311271748E+02  0.10100000000E+00 0. -1.
         23    2    1    2    0    0  0.00000000000E+00  0.00000000000E+00  0.81581637944E+02  0.12620400193E+03  0.96290635331E+02 0.  0.
    9000005    2    3    3    0    0  0.36942856793E+02  0.13585952607E+02  0.76272789633E+02  0.86485786373E+02  0.10625442578E+02 0.  0.
         22    1    3    3    0    0 -0.36942856793E+02 -0.13585952607E+02  0.53088483119E+01  0.39718215553E+02  0.00000000000E+00 0. -1.
         22    1    4    4    0    0  0.73008738685E+01  0.75817764892E+01  0.19393303500E+02  0.22065500552E+02  0.00000000000E+00 0.  1.
         22    1    4    4    0    0  0.29641982925E+02  0.60041761177E+01  0.56879486133E+02  0.64420285821E+02  0.00000000000E+00 0.  1.
<mgrwt>
<rscale>  0 0.96290635E+02</rscale>
<asrwt>0</asrwt>
<pdfrwt beam="2">  1        3 0.34324896E-02 0.96290635E+02</pdfrwt>
<pdfrwt beam="1">  1       -3 0.15983511E-01 0.96290635E+02</pdfrwt>
<totfact> 0.28289938E+04</totfact>
</mgrwt>
</event>
<event>
 7    1  0.1247599E-009  0.9134679E+02  0.7818608E-02  0.1299623E+00
         -3   -1    0    0    0  501 -0.00000000000E+00  0.00000000000E+00  0.29408533353E+02  0.29408706788E+02  0.10100000000E+00 0.  1.
          3   -1    0    0  501    0  0.00000000000E+00 -0.00000000000E+00 -0.70933376774E+02  0.70933448679E+02  0.10100000000E+00 0. -1.
         23    2    1    2    0    0  0.00000000000E+00 -0.35527136788E-14 -0.41524843421E+02  0.10034215547E+03  0.91346787260E+02 0.  0.
    9000005    2    3    3    0    0 -0.67474467250E+01 -0.20146451338E+02  0.22600762067E+02  0.32788467056E+02  0.10624574678E+02 0.  0.
         22    1    3    3    0    0  0.67474467250E+01  0.20146451338E+02 -0.64125605487E+02  0.67553688411E+02  0.00000000000E+00 0. -1.
         22    1    4    4    0    0  0.76861285110E+00 -0.10351298712E+02  0.15160635963E+02  0.18373487245E+02  0.00000000000E+00 0.  1.
         22    1    4    4    0    0 -0.75160595761E+01 -0.97951526264E+01  0.74401261035E+01  0.14414979811E+02  0.00000000000E+00 0.  1.
<mgrwt>
<rscale>  0 0.91346787E+02</rscale>
<asrwt>0</asrwt>
<pdfrwt beam="2">  1        3 0.10912846E-01 0.91346787E+02</pdfrwt>
<pdfrwt beam="1">  1       -3 0.45244087E-02 0.91346787E+02</pdfrwt>
<totfact> 0.34470201E+04</totfact>
</mgrwt>
</event>
<event>
 7    1  0.1247599E-009  0.9278944E+02  0.7818608E-02  0.1296234E+00
          3   -1    0    0  501    0  0.00000000000E+00  0.00000000000E+00  0.12191642115E+03  0.12191646298E+03  0.10100000000E+00 0. -1.
         -3   -1    0    0    0  501 -0.00000000000E+00 -0.00000000000E+00 -0.17655102499E+02  0.17655391393E+02  0.10100000000E+00 0.  1.
         23    2    1    2    0    0  0.00000000000E+00 -0.35527136788E-14  0.10426131865E+03  0.13957185437E+03  0.92789438880E+02 0.  0.
    9000005    2    3    3    0    0 -0.34113423294E+02 -0.16731926820E+02  0.91281408109E+02  0.99420128365E+02  0.10410736475E+02 0.  0.
         22    1    3    3    0    0  0.34113423294E+02  0.16731926820E+02  0.12979910538E+02  0.40151726009E+02  0.00000000000E+00 0.  1.
         22    1    4    4    0    0 -0.22585736553E+01  0.14749475798E+01  0.67689585084E+01  0.72866607309E+01  0.00000000000E+00 0.  1.
         22    1    4    4    0    0 -0.31854849639E+02 -0.18206874399E+02  0.84512449600E+02  0.92133467635E+02  0.00000000000E+00 0.  1.
<mgrwt>
<rscale>  0 0.92789439E+02</rscale>
<asrwt>0</asrwt>
<pdfrwt beam="1">  1        3 0.18756398E-01 0.92789439E+02</pdfrwt>
<pdfrwt beam="2">  1       -3 0.27161951E-02 0.92789439E+02</pdfrwt>
<totfact> 0.30470671E+04</totfact>
</mgrwt>
</event>
<event>
 7    1  0.1247599E-009  0.9384085E+02  0.7818608E-02  0.1293808E+00
         -3   -1    0    0    0  501 -0.00000000000E+00  0.00000000000E+00  0.32511416226E+02  0.32511573109E+02  0.10100000000E+00 0.  1.
          3   -1    0    0  501    0  0.00000000000E+00 -0.00000000000E+00 -0.67715121781E+02  0.67715197104E+02  0.10100000000E+00 0. -1.
         23    2    1    2    0    0 -0.71054273576E-14 -0.17763568394E-14 -0.35203705556E+02  0.10022677021E+03  0.93840847089E+02 0.  0.
    9000005    2    3    3    0    0 -0.35973556452E+02 -0.62734767915E+01 -0.48156326513E+02  0.61481142530E+02  0.11289190793E+02 0.  0.
         22    1    3    3    0    0  0.35973556452E+02  0.62734767915E+01  0.12952620957E+02  0.38745627683E+02  0.00000000000E+00 0.  1.
         22    1    4    4    0    0 -0.35571650865E+01  0.24800365738E+01 -0.32981782671E+01  0.54481175411E+01  0.00000000000E+00 0.  1.
         22    1    4    4    0    0 -0.32416391365E+02 -0.87535133653E+01 -0.44858148246E+02  0.56033024989E+02  0.00000000000E+00 0.  1.
<mgrwt>
<rscale>  0 0.93840847E+02</rscale>
<asrwt>0</asrwt>
<pdfrwt beam="2">  1        3 0.10417729E-01 0.93840847E+02</pdfrwt>
<pdfrwt beam="1">  1       -3 0.50017742E-02 0.93840847E+02</pdfrwt>
<totfact> 0.32033390E+04</totfact>
</mgrwt>
</event>
<event>
 7    1  0.1247599E-009  0.8018341E+02  0.7818608E-02  0.1328532E+00
         -3   -1    0    0    0  501 -0.00000000000E+00  0.00000000000E+00  0.11707689284E+02  0.11708124930E+02  0.10100000000E+00 0.  1.
          3   -1    0    0  501    0  0.00000000000E+00 -0.00000000000E+00 -0.13728664872E+03  0.13728668587E+03  0.10100000000E+00 0. -1.
         23    2    1    2    0    0  0.00000000000E+00  0.00000000000E+00 -0.12557895943E+03  0.14899481080E+03  0.80183405970E+02 0.  0.
    9000005    2    3    3    0    0  0.23807544396E+02 -0.26411944828E+02 -0.95512152632E+02  0.10242869790E+03  0.10231170633E+02 0.  0.
         22    1    3    3    0    0 -0.23807544396E+02  0.26411944828E+02 -0.30066806801E+02  0.46566112904E+02  0.00000000000E+00 0.  1.
         22    1    4    4    0    0  0.35593483130E+01 -0.90435703731E+01 -0.34426968284E+02  0.35772493214E+02  0.00000000000E+00 0.  1.
         22    1    4    4    0    0  0.20248196083E+02 -0.17368374455E+02 -0.61085184348E+02  0.66656204683E+02  0.00000000000E+00 0.  1.
<mgrwt>
<rscale>  0 0.80183406E+02</rscale>
<asrwt>0</asrwt>
<pdfrwt beam="2">  1        3 0.21121058E-01 0.80183406E+02</pdfrwt>
<pdfrwt beam="1">  1       -3 0.18012194E-02 0.80183406E+02</pdfrwt>
<totfact> 0.44290212E+04</totfact>
</mgrwt>
</event>
<event>
 7    1  0.1247599E-009  0.8989492E+02  0.7818608E-02  0.1303106E+00
          3   -1    0    0  501    0  0.00000000000E+00  0.00000000000E+00  0.19286402470E+02  0.19286666929E+02  0.10100000000E+00 0. -1.
         -3   -1    0    0    0  501 -0.00000000000E+00 -0.00000000000E+00 -0.10475020775E+03  0.10475025645E+03  0.10100000000E+00 0.  1.
         23    2    1    2    0    0  0.00000000000E+00  0.00000000000E+00 -0.85463805284E+02  0.12403692337E+03  0.89894918359E+02 0.  0.
    9000005    2    3    3    0    0  0.14066191174E+02 -0.51660565117E+01 -0.10068900251E+03  0.10267451469E+03  0.13387862634E+02 0.  0.
         22    1    3    3    0    0 -0.14066191174E+02  0.51660565117E+01  0.15225197231E+02  0.21362408683E+02  0.00000000000E+00 0. -1.
         22    1    4    4    0    0  0.13826708799E+02 -0.29288990051E+01 -0.50650356464E+02  0.52585311024E+02  0.00000000000E+00 0. -1.
         22    1    4    4    0    0  0.23948237456E+00 -0.22371575065E+01 -0.50038646050E+02  0.50089203668E+02  0.00000000000E+00 0. -1.
<mgrwt>
<rscale>  0 0.89894918E+02</rscale>
<asrwt>0</asrwt>
<pdfrwt beam="1">  1        3 0.29671630E-02 0.89894918E+02</pdfrwt>
<pdfrwt beam="2">  1       -3 0.16115440E-01 0.89894918E+02</pdfrwt>
<totfact> 0.34263573E+04</totfact>
</mgrwt>
</event>
<event>
 7    1  0.1247599E-009  0.9045922E+02  0.7818608E-02  0.1301743E+00
         -3   -1    0    0    0  501 -0.00000000000E+00  0.00000000000E+00  0.12348406988E+03  0.12348411118E+03  0.10100000000E+00 0.  1.
          3   -1    0    0  501    0  0.00000000000E+00 -0.00000000000E+00 -0.16566454412E+02  0.16566762291E+02  0.10100000000E+00 0. -1.
         23    2    1    2    0    0  0.00000000000E+00  0.71054273576E-14  0.10691761546E+03  0.14005087347E+03  0.90459221000E+02 0.  0.
    9000005    2    3    3    0    0  0.20247215033E+02 -0.38816535007E+02  0.48762541107E+02  0.67258801240E+02  0.15142252884E+02 0.  0.
         22    1    3    3    0    0 -0.20247215033E+02  0.38816535007E+02  0.58155074357E+02  0.72792072233E+02  0.00000000000E+00 0.  1.
         22    1    4    4    0    0 -0.39030278784E+00 -0.11502640458E+00  0.59619330510E+01  0.59758022929E+01  0.00000000000E+00 0. -1.
         22    1    4    4    0    0  0.20637517821E+02 -0.38701508602E+02  0.42800608056E+02  0.61282998947E+02  0.00000000000E+00 0. -1.
<mgrwt>
<rscale>  0 0.90459221E+02</rscale>
<asrwt>0</asrwt>
<pdfrwt beam="2">  1        3 0.25487122E-02 0.90459221E+02</pdfrwt>
<pdfrwt beam="1">  1       -3 0.18997576E-01 0.90459221E+02</pdfrwt>
<totfact> 0.32618465E+04</totfact>
</mgrwt>
</event>
<event>
 7    1  0.1247599E-009  0.9356607E+02  0.7818608E-02  0.1294439E+00
          3   -1    0    0  501    0  0.00000000000E+00  0.00000000000E+00  0.51631126621E+03  0.51631127609E+03  0.10100000000E+00 0. -1.
         -3   -1    0    0    0  501 -0.00000000000E+00 -0.00000000000E+00 -0.42384059617E+01  0.42396091914E+01  0.10100000000E+00 0.  1.
         23    2    1    2    0    0  0.27755575616E-16  0.00000000000E+00  0.51207286025E+03  0.52055088528E+03  0.93566072713E+02 0.  0.
    9000005    2    3    3    0    0  0.18307703649E+00 -0.32012794574E+02  0.44497375044E+03  0.44620612709E+03  0.85683566885E+01 0.  0.
         22    1    3    3    0    0 -0.18307703649E+00  0.32012794574E+02  0.67099109808E+02  0.74344758192E+02  0.00000000000E+00 0.  1.
         22    1    4    4    0    0  0.86626035549E+00 -0.91467401392E+00  0.47646368034E+02  0.47663019442E+02  0.00000000000E+00 0. -1.
         22    1    4    4    0    0 -0.68318331900E+00 -0.31098120560E+02  0.39732738240E+03  0.39854310764E+03  0.00000000000E+00 0. -1.
<mgrwt>
<rscale>  0 0.93566073E+02</rscale>
<asrwt>0</asrwt>
<pdfrwt beam="1">  1        3 0.79432543E-01 0.93566073E+02</pdfrwt>
<pdfrwt beam="2">  1       -3 0.65215620E-03 0.93566073E+02</pdfrwt>
<totfact> 0.16261192E+04</totfact>
</mgrwt>
</event>
<event>
 7    1  0.1247599E-009  0.9441901E+02  0.7818608E-02  0.1292490E+00
          3   -1    0    0  501    0  0.00000000000E+00  0.00000000000E+00  0.18557799384E+03  0.18557802133E+03  0.10100000000E+00 0. -1.
         -3   -1    0    0    0  501 -0.00000000000E+00 -0.00000000000E+00 -0.12009465450E+02  0.12009890149E+02  0.10100000000E+00 0.  1.
         23    2    1    2    0    0  0.00000000000E+00 -0.35527136788E-14  0.17356852839E+03  0.19758791147E+03  0.94419006101E+02 0.  0.
    9000005    2    3    3    0    0  0.35107271213E+00  0.21035490157E+02  0.17495500927E+03  0.17650385524E+03  0.10086651919E+02 0.  0.
         22    1    3    3    0    0 -0.35107271213E+00 -0.21035490157E+02 -0.13864808787E+01  0.21084056237E+02  0.00000000000E+00 0.  1.
         22    1    4    4    0    0 -0.46353644242E+01  0.92979401850E+01  0.89848324430E+02  0.90446999386E+02  0.00000000000E+00 0.  1.
         22    1    4    4    0    0  0.49864371363E+01  0.11737549972E+02  0.85106684839E+02  0.86056855851E+02  0.00000000000E+00 0.  1.
<mgrwt>
<rscale>  0 0.94419006E+02</rscale>
<asrwt>0</asrwt>
<pdfrwt beam="1">  1        3 0.28550494E-01 0.94419006E+02</pdfrwt>
<pdfrwt beam="2">  1       -3 0.18476449E-02 0.94419006E+02</pdfrwt>
<totfact> 0.26040010E+04</totfact>
</mgrwt>
</event>
<event>
 7    1  0.1247599E-009  0.9947265E+02  0.7818608E-02  0.1281409E+00
         -3   -1    0    0    0  501 -0.00000000000E+00  0.00000000000E+00  0.29297273593E+01  0.29314677893E+01  0.10100000000E+00 0.  1.
          3   -1    0    0  501    0  0.00000000000E+00 -0.00000000000E+00 -0.84409295643E+03  0.84409296248E+03  0.10100000000E+00 0. -1.
         23    2    1    2    0    0  0.00000000000E+00  0.00000000000E+00 -0.84116322907E+03  0.84702443027E+03  0.99472647094E+02 0.  0.
    9000005    2    3    3    0    0 -0.33732508345E+02 -0.24713243593E+02 -0.64439914330E+03  0.64586595548E+03  0.11997917823E+02 0.  0.
         22    1    3    3    0    0  0.33732508345E+02  0.24713243593E+02 -0.19676408577E+03  0.20115847479E+03  0.00000000000E+00 0.  1.
         22    1    4    4    0    0 -0.27271989043E+02 -0.13555310857E+02 -0.42684952197E+03  0.42793460043E+03  0.00000000000E+00 0.  1.
         22    1    4    4    0    0 -0.64605193019E+01 -0.11157932736E+02 -0.21754962133E+03  0.21793135505E+03  0.00000000000E+00 0.  1.
<mgrwt>
<rscale>  0 0.99472647E+02</rscale>
<asrwt>0</asrwt>
<pdfrwt beam="2">  1        3 0.12986040E+00 0.99472647E+02</pdfrwt>
<pdfrwt beam="1">  1       -3 0.45086230E-03 0.99472647E+02</pdfrwt>
<totfact> 0.93354621E+03</totfact>
</mgrwt>
</event>
<event>
 7    1  0.1247599E-009  0.9098652E+02  0.7818608E-02  0.1300480E+00
          3   -1    0    0  501    0  0.00000000000E+00  0.00000000000E+00  0.17395469906E+01  0.17424766089E+01  0.10100000000E+00 0. -1.
         -3   -1    0    0    0  501 -0.00000000000E+00 -0.00000000000E+00 -0.11887521561E+04  0.11887521604E+04  0.10100000000E+00 0.  1.
         23    2    1    2    0    0  0.44408920985E-15 -0.17763568394E-14 -0.11870126091E+04  0.11904946370E+04  0.90986518452E+02 0.  0.
    9000005    2    3    3    0    0 -0.23714157958E+01  0.12059510975E+02 -0.11664498053E+04  0.11665387542E+04  0.75140851330E+01 0.  0.
         22    1    3    3    0    0  0.23714157958E+01 -0.12059510975E+02 -0.20562803847E+02  0.23955882783E+02  0.00000000000E+00 0. -1.
         22    1    4    4    0    0 -0.35935965226E+00  0.11043561370E+01 -0.19319637437E+02  0.19354511942E+02  0.00000000000E+00 0. -1.
         22    1    4    4    0    0 -0.20120561435E+01  0.10955154838E+02 -0.11471301679E+04  0.11471842423E+04  0.00000000000E+00 0. -1.
<mgrwt>
<rscale>  0 0.90986518E+02</rscale>
<asrwt>0</asrwt>
<pdfrwt beam="1">  1        3 0.26784925E-03 0.90986518E+02</pdfrwt>
<pdfrwt beam="2">  1       -3 0.18288452E+00 0.90986518E+02</pdfrwt>
<totfact> 0.82726390E+03</totfact>
</mgrwt>
</event>
<event>
 7    1  0.1247599E-009  0.9265837E+02  0.7818608E-02  0.1296539E+00
         -3   -1    0    0    0  501 -0.00000000000E+00  0.00000000000E+00  0.22066268789E+02  0.22066499933E+02  0.10100000000E+00 0.  1.
          3   -1    0    0  501    0  0.00000000000E+00 -0.00000000000E+00 -0.97269574850E+02  0.97269627287E+02  0.10100000000E+00 0. -1.
         23    2    1    2    0    0  0.00000000000E+00  0.00000000000E+00 -0.75203306061E+02  0.11933612722E+03  0.92658372624E+02 0.  0.
    9000005    2    3    3    0    0 -0.22230542144E+02 -0.11847382018E+02  0.12422078801E+02  0.28161758361E+02  0.20540514940E+01 0.  0.
         22    1    3    3    0    0  0.22230542144E+02  0.11847382018E+02 -0.87625384862E+02  0.91174368859E+02  0.00000000000E+00 0. -1.
         22    1    4    4    0    0 -0.28397247704E+01 -0.22741429906E+01  0.20803907425E+01  0.41909174121E+01  0.00000000000E+00 0.  1.
         22    1    4    4    0    0 -0.19390817373E+02 -0.95732390274E+01  0.10341688058E+02  0.23970840948E+02  0.00000000000E+00 0.  1.
<mgrwt>
<rscale>  0 0.92658373E+02</rscale>
<asrwt>0</asrwt>
<pdfrwt beam="2">  1        3 0.14964572E-01 0.92658373E+02</pdfrwt>
<pdfrwt beam="1">  1       -3 0.33948325E-02 0.92658373E+02</pdfrwt>
<totfact> 0.31862212E+04</totfact>
</mgrwt>
</event>
<event>
 7    1  0.1247599E-009  0.9302224E+02  0.7818608E-02  0.1295694E+00
          3   -1    0    0  501    0  0.00000000000E+00  0.00000000000E+00  0.12303453574E+03  0.12303457719E+03  0.10100000000E+00 0. -1.
         -3   -1    0    0    0  501 -0.00000000000E+00 -0.00000000000E+00 -0.17582551618E+02  0.17582841704E+02  0.10100000000E+00 0.  1.
         23    2    1    2    0    0  0.00000000000E+00  0.00000000000E+00  0.10545198412E+03  0.14061741890E+03  0.93022242193E+02 0.  0.
    9000005    2    3    3    0    0 -0.77834509676E+01  0.45269036877E+02  0.54216481290E+02  0.71806485472E+02  0.10338118961E+02 0.  0.
         22    1    3    3    0    0  0.77834509676E+01 -0.45269036877E+02  0.51235502830E+02  0.68810933426E+02  0.00000000000E+00 0. -1.
         22    1    4    4    0    0 -0.50708983060E+01  0.67210218831E+01  0.89196184591E+01  0.12265632403E+02  0.00000000000E+00 0.  1.
         22    1    4    4    0    0 -0.27125526617E+01  0.38548014994E+02  0.45296862831E+02  0.59540853069E+02  0.00000000000E+00 0.  1.
<mgrwt>
<rscale>  0 0.93022242E+02</rscale>
<asrwt>0</asrwt>
<pdfrwt beam="1">  1        3 0.18928416E-01 0.93022242E+02</pdfrwt>
<pdfrwt beam="2">  1       -3 0.27050334E-02 0.93022242E+02</pdfrwt>
<totfact> 0.30200986E+04</totfact>
</mgrwt>
</event>
<event>
 7    1  0.1247599E-009  0.7391780E+02  0.7818608E-02  0.1347255E+00
         -3   -1    0    0    0  501 -0.00000000000E+00  0.00000000000E+00  0.12437715489E+02  0.12438125565E+02  0.10100000000E+00 0.  1.
          3   -1    0    0  501    0  0.00000000000E+00 -0.00000000000E+00 -0.10982179613E+03  0.10982184258E+03  0.10100000000E+00 0. -1.
         23    2    1    2    0    0  0.17763568394E-14  0.00000000000E+00 -0.97384080646E+02  0.12225996814E+03  0.73917796553E+02 0.  0.
    9000005    2    3    3    0    0  0.80282161762E+01 -0.18426859087E+02 -0.27153668033E+01  0.25481009834E+02  0.15424242429E+02 0.  0.
         22    1    3    3    0    0 -0.80282161762E+01  0.18426859087E+02 -0.94668713842E+02  0.96778958309E+02  0.00000000000E+00 0. -1.
         22    1    4    4    0    0  0.16951623776E+01 -0.80207007043E+01  0.62892366653E+01  0.10332459199E+02  0.00000000000E+00 0.  1.
         22    1    4    4    0    0  0.63330537986E+01 -0.10406158383E+02 -0.90046034686E+01  0.15148550635E+02  0.00000000000E+00 0.  1.
<mgrwt>
<rscale>  0 0.73917797E+02</rscale>
<asrwt>0</asrwt>
<pdfrwt beam="2">  1        3 0.16895695E-01 0.73917797E+02</pdfrwt>
<pdfrwt beam="1">  1       -3 0.19135299E-02 0.73917797E+02</pdfrwt>
<totfact> 0.58054078E+04</totfact>
</mgrwt>
</event>
<event>
 7    1  0.1247599E-009  0.9167225E+02  0.7818608E-02  0.1298852E+00
         -3   -1    0    0    0  501 -0.00000000000E+00  0.00000000000E+00  0.32613874808E+01  0.32629510110E+01  0.10100000000E+00 0. -1.
          3   -1    0    0  501    0  0.00000000000E+00 -0.00000000000E+00 -0.64403321288E+03  0.64403322079E+03  0.10100000000E+00 0.  1.
         23    2    1    2    0    0  0.00000000000E+00  0.00000000000E+00 -0.64077182539E+03  0.64729617181E+03  0.91672252155E+02 0.  0.
    9000005    2    3    3    0    0 -0.33273357854E+02  0.11533552267E+02 -0.52251218203E+03  0.52390459017E+03  0.14727527189E+02 0.  0.
         22    1    3    3    0    0  0.33273357854E+02 -0.11533552267E+02 -0.11825964336E+03  0.12339158164E+03  0.00000000000E+00 0. -1.
         22    1    4    4    0    0 -0.22241721425E+02  0.91287088610E+01 -0.43546931077E+03  0.43613248918E+03  0.00000000000E+00 0.  1.
         22    1    4    4    0    0 -0.11031636428E+02  0.24048434061E+01 -0.87042871261E+02  0.87772100985E+02  0.00000000000E+00 0.  1.
<mgrwt>
<rscale>  0 0.91672252E+02</rscale>
<asrwt>0</asrwt>
<pdfrwt beam="2">  1        3 0.99082053E-01 0.91672252E+02</pdfrwt>
<pdfrwt beam="1">  1       -3 0.50187331E-03 0.91672252E+02</pdfrwt>
<totfact> 0.14621086E+04</totfact>
</mgrwt>
</event>
<event>
 7    1  0.1247599E-009  0.9078005E+02  0.7818608E-02  0.1300974E+00
         -3   -1    0    0    0  501 -0.00000000000E+00  0.00000000000E+00  0.14687836241E+03  0.14687839713E+03  0.10100000000E+00 0.  1.
          3   -1    0    0  501    0  0.00000000000E+00 -0.00000000000E+00 -0.14026723245E+02  0.14027086868E+02  0.10100000000E+00 0. -1.
         23    2    1    2    0    0  0.00000000000E+00  0.00000000000E+00  0.13285163916E+03  0.16090548400E+03  0.90780046011E+02 0.  0.
    9000005    2    3    3    0    0  0.18916902724E+02  0.31613220761E+02  0.11154834159E+03  0.11834875218E+03  0.14357914079E+02 0.  0.
         22    1    3    3    0    0 -0.18916902724E+02 -0.31613220761E+02  0.21303297575E+02  0.42556731820E+02  0.00000000000E+00 0. -1.
         22    1    4    4    0    0  0.11425271438E+02  0.20603802257E+02  0.48626862290E+02  0.54033556528E+02  0.00000000000E+00 0.  1.
         22    1    4    4    0    0  0.74916312856E+01  0.11009418504E+02  0.62921479298E+02  0.64315195655E+02  0.00000000000E+00 0.  1.
<mgrwt>
<rscale>  0 0.90780046E+02</rscale>
<asrwt>0</asrwt>
<pdfrwt beam="2">  1        3 0.21579880E-02 0.90780046E+02</pdfrwt>
<pdfrwt beam="1">  1       -3 0.22596702E-01 0.90780046E+02</pdfrwt>
<totfact> 0.31017231E+04</totfact>
</mgrwt>
</event>
<event>
 7    1  0.1247599E-009  0.9152919E+02  0.7818608E-02  0.1299190E+00
          3   -1    0    0  501    0  0.00000000000E+00  0.00000000000E+00  0.24485360986E+02  0.24485569293E+02  0.10100000000E+00 0. -1.
         -3   -1    0    0    0  501 -0.00000000000E+00 -0.00000000000E+00 -0.85536139028E+02  0.85536198657E+02  0.10100000000E+00 0.  1.
         23    2    1    2    0    0  0.00000000000E+00  0.00000000000E+00 -0.61050778042E+02  0.11002176795E+03  0.91529186184E+02 0.  0.
    9000005    2    3    3    0    0  0.15582330668E+02 -0.41960492701E+02 -0.41237879184E+02  0.61072376351E+02  0.50774498393E+01 0.  0.
         22    1    3    3    0    0 -0.15582330668E+02  0.41960492701E+02 -0.19812898858E+02  0.48949391599E+02  0.00000000000E+00 0.  1.
         22    1    4    4    0    0  0.10962934126E+02 -0.29274742809E+02 -0.31856950390E+02  0.44632519303E+02  0.00000000000E+00 0.  1.
         22    1    4    4    0    0  0.46193965422E+01 -0.12685749892E+02 -0.93809287938E+01  0.16439857049E+02  0.00000000000E+00 0.  1.
<mgrwt>
<rscale>  0 0.91529186E+02</rscale>
<asrwt>0</asrwt>
<pdfrwt beam="1">  1        3 0.37669993E-02 0.91529186E+02</pdfrwt>
<pdfrwt beam="2">  1       -3 0.13159426E-01 0.91529186E+02</pdfrwt>
<totfact> 0.33590150E+04</totfact>
</mgrwt>
</event>
<event>
 7    1  0.1247599E-009  0.8998759E+02  0.7818608E-02  0.1302882E+00
         -3   -1    0    0    0  501 -0.00000000000E+00  0.00000000000E+00  0.19272877570E+02  0.19273142215E+02  0.10100000000E+00 0.  1.
          3   -1    0    0  501    0  0.00000000000E+00 -0.00000000000E+00 -0.10503995694E+03  0.10504000550E+03  0.10100000000E+00 0. -1.
         23    2    1    2    0    0 -0.88817841970E-15  0.00000000000E+00 -0.85767079372E+02  0.12431314771E+03  0.89987592427E+02 0.  0.
    9000005    2    3    3    0    0  0.68428410066E+01  0.42831744428E+02 -0.37430078236E+02  0.59368182686E+02  0.15562376260E+02 0.  0.
         22    1    3    3    0    0 -0.68428410066E+01 -0.42831744428E+02 -0.48337001135E+02  0.64944965029E+02  0.00000000000E+00 0. -1.
         22    1    4    4    0    0  0.48144995708E+01  0.24586767150E+01 -0.25550606197E+01  0.59793671970E+01  0.00000000000E+00 0.  1.
         22    1    4    4    0    0  0.20283414358E+01  0.40373067713E+02 -0.34875017617E+02  0.53388815489E+02  0.00000000000E+00 0.  1.
<mgrwt>
<rscale>  0 0.89987592E+02</rscale>
<asrwt>0</asrwt>
<pdfrwt beam="2">  1        3 0.16160017E-01 0.89987592E+02</pdfrwt>
<pdfrwt beam="1">  1       -3 0.29650822E-02 0.89987592E+02</pdfrwt>
<totfact> 0.34147074E+04</totfact>
</mgrwt>
</event>
<event>
 7    1  0.1247599E-009  0.8929928E+02  0.7818608E-02  0.1304558E+00
         -3   -1    0    0    0  501 -0.00000000000E+00  0.00000000000E+00  0.44309701308E+02  0.44309816418E+02  0.10100000000E+00 0.  1.
          3   -1    0    0  501    0  0.00000000000E+00 -0.00000000000E+00 -0.44991958667E+02  0.44992072032E+02  0.10100000000E+00 0. -1.
         23    2    1    2    0    0  0.00000000000E+00 -0.44408920985E-15 -0.68225735892E+00  0.89301888450E+02  0.89299282223E+02 0.  0.
    9000005    2    3    3    0    0  0.10262855093E+02  0.20272239985E+01  0.42715061256E+02  0.44661513286E+02  0.77870712763E+01 0.  0.
         22    1    3    3    0    0 -0.10262855093E+02 -0.20272239985E+01 -0.43397318615E+02  0.44640375164E+02  0.00000000000E+00 0. -1.
         22    1    4    4    0    0  0.66919751774E+01 -0.82098282775E+00  0.13482965798E+02  0.15074710985E+02  0.00000000000E+00 0.  1.
         22    1    4    4    0    0  0.35708799154E+01  0.28482068263E+01  0.29232095458E+02  0.29586802301E+02  0.00000000000E+00 0.  1.
<mgrwt>
<rscale>  0 0.89299282E+02</rscale>
<asrwt>0</asrwt>
<pdfrwt beam="2">  1        3 0.69218574E-02 0.89299282E+02</pdfrwt>
<pdfrwt beam="1">  1       -3 0.68168947E-02 0.89299282E+02</pdfrwt>
<totfact> 0.37548145E+04</totfact>
</mgrwt>
</event>
<event>
 7    1  0.1247599E-009  0.9137149E+02  0.7818608E-02  0.1299564E+00
         -3   -1    0    0    0  501 -0.00000000000E+00  0.00000000000E+00  0.19736120129E+02  0.19736378562E+02  0.10100000000E+00 0.  1.
          3   -1    0    0  501    0  0.00000000000E+00 -0.00000000000E+00 -0.10575371958E+03  0.10575376781E+03  0.10100000000E+00 0. -1.
         23    2    1    2    0    0  0.00000000000E+00  0.00000000000E+00 -0.86017599454E+02  0.12549014638E+03  0.91371491296E+02 0.  0.
    9000005    2    3    3    0    0 -0.44366388916E+02 -0.74957084777E+01 -0.35196337941E+02  0.57612589460E+02  0.74743661134E+01 0.  0.
         22    1    3    3    0    0  0.44366388916E+02  0.74957084777E+01 -0.50821261513E+02  0.67877556916E+02  0.00000000000E+00 0. -1.
         22    1    4    4    0    0 -0.36511262156E+02 -0.31870924441E+01 -0.28045857044E+02  0.46149755361E+02  0.00000000000E+00 0. -1.
         22    1    4    4    0    0 -0.78551267600E+01 -0.43086160337E+01 -0.71504808965E+01  0.11462834099E+02  0.00000000000E+00 0. -1.
<mgrwt>
<rscale>  0 0.91371491E+02</rscale>
<asrwt>0</asrwt>
<pdfrwt beam="2">  1        3 0.16269826E-01 0.91371491E+02</pdfrwt>
<pdfrwt beam="1">  1       -3 0.30363498E-02 0.91371491E+02</pdfrwt>
<totfact> 0.32684860E+04</totfact>
</mgrwt>
</event>
<event>
 7    1  0.1247599E-009  0.9008234E+02  0.7818608E-02  0.1302652E+00
          3   -1    0    0  501    0  0.00000000000E+00  0.00000000000E+00  0.80723759645E+02  0.80723822829E+02  0.10100000000E+00 0. -1.
         -3   -1    0    0    0  501 -0.00000000000E+00 -0.00000000000E+00 -0.25131300001E+02  0.25131502954E+02  0.10100000000E+00 0.  1.
         23    2    1    2    0    0 -0.17763568394E-14  0.00000000000E+00  0.55592459644E+02  0.10585532578E+03  0.90082342485E+02 0.  0.
    9000005    2    3    3    0    0 -0.11175321141E+02  0.32824351245E+02 -0.58140403804E+01  0.35335228772E+02  0.35283834295E+01 0.  0.
         22    1    3    3    0    0  0.11175321141E+02 -0.32824351245E+02  0.61406500024E+02  0.70520097011E+02  0.00000000000E+00 0. -1.
         22    1    4    4    0    0 -0.34149506275E+01  0.66487284285E+01 -0.22248058247E+01  0.77985407905E+01  0.00000000000E+00 0.  1.
         22    1    4    4    0    0 -0.77603705132E+01  0.26175622816E+02 -0.35892345557E+01  0.27536687982E+02  0.00000000000E+00 0.  1.
<mgrwt>
<rscale>  0 0.90082342E+02</rscale>
<asrwt>0</asrwt>
<pdfrwt beam="1">  1        3 0.12419061E-01 0.90082342E+02</pdfrwt>
<pdfrwt beam="2">  1       -3 0.38663743E-02 0.90082342E+02</pdfrwt>
<totfact> 0.35383303E+04</totfact>
</mgrwt>
</event>
<event>
 7    1  0.1247599E-009  0.8748454E+02  0.7818608E-02  0.1309060E+00
         -3   -1    0    0    0  501 -0.00000000000E+00  0.00000000000E+00  0.51273410740E+02  0.51273510216E+02  0.10100000000E+00 0.  1.
          3   -1    0    0  501    0  0.00000000000E+00 -0.00000000000E+00 -0.37317113613E+02  0.37317250293E+02  0.10100000000E+00 0. -1.
         23    2    1    2    0    0  0.35527136788E-14  0.00000000000E+00  0.13956297127E+02  0.88590760509E+02  0.87484539308E+02 0.  0.
    9000005    2    3    3    0    0  0.17121480017E+02  0.11387258659E+02  0.45820173400E+02  0.50668190067E+02  0.67054050213E+01 0.  0.
         22    1    3    3    0    0 -0.17121480017E+02 -0.11387258659E+02 -0.31863876273E+02  0.37922570442E+02  0.00000000000E+00 0. -1.
         22    1    4    4    0    0  0.44332811836E+01  0.26401967628E+00  0.13448285233E+02  0.14162629140E+02  0.00000000000E+00 0. -1.
         22    1    4    4    0    0  0.12688198833E+02  0.11123238983E+02  0.32371888167E+02  0.36505560927E+02  0.00000000000E+00 0. -1.
<mgrwt>
<rscale>  0 0.87484539E+02</rscale>
<asrwt>0</asrwt>
<pdfrwt beam="2">  1        3 0.57411126E-02 0.87484539E+02</pdfrwt>
<pdfrwt beam="1">  1       -3 0.78882351E-02 0.87484539E+02</pdfrwt>
<totfact> 0.39760098E+04</totfact>
</mgrwt>
</event>
<event>
 7    1  0.1247599E-009  0.9078894E+02  0.7818608E-02  0.1300952E+00
         -3   -1    0    0    0  501 -0.00000000000E+00  0.00000000000E+00  0.16545366448E+02  0.16545674719E+02  0.10100000000E+00 0.  1.
          3   -1    0    0  501    0  0.00000000000E+00 -0.00000000000E+00 -0.12454444186E+03  0.12454448281E+03  0.10100000000E+00 0. -1.
         23    2    1    2    0    0 -0.35527136788E-14  0.00000000000E+00 -0.10799907541E+03  0.14109015753E+03  0.90788943505E+02 0.  0.
    9000005    2    3    3    0    0 -0.21396113117E+02 -0.31311733402E+02 -0.18624561408E+02  0.44002454611E+02  0.12293226548E+02 0.  0.
         22    1    3    3    0    0  0.21396113117E+02  0.31311733402E+02 -0.89374514005E+02  0.97087702922E+02  0.00000000000E+00 0. -1.
         22    1    4    4    0    0  0.15370857270E+01 -0.25906202465E+01 -0.22823991396E+01  0.37793242288E+01  0.00000000000E+00 0.  1.
         22    1    4    4    0    0 -0.22933198844E+02 -0.28721113155E+02 -0.16342162268E+02  0.40223130382E+02  0.00000000000E+00 0.  1.
<mgrwt>
<rscale>  0 0.90788944E+02</rscale>
<asrwt>0</asrwt>
<pdfrwt beam="2">  1        3 0.19160710E-01 0.90788944E+02</pdfrwt>
<pdfrwt beam="1">  1       -3 0.25454679E-02 0.90788944E+02</pdfrwt>
<totfact> 0.32231094E+04</totfact>
</mgrwt>
</event>
<event>
 7    1  0.1247599E-009  0.9027722E+02  0.7818608E-02  0.1302182E+00
          3   -1    0    0  501    0  0.00000000000E+00  0.00000000000E+00  0.79861859236E+02  0.79861923102E+02  0.10100000000E+00 0. -1.
         -3   -1    0    0    0  501 -0.00000000000E+00 -0.00000000000E+00 -0.25512557967E+02  0.25512757887E+02  0.10100000000E+00 0.  1.
         23    2    1    2    0    0  0.88817841970E-15  0.00000000000E+00  0.54349301269E+02  0.10537468099E+03  0.90277222184E+02 0.  0.
    9000005    2    3    3    0    0 -0.66094456221E+01  0.25662807007E+02  0.68996177800E+02  0.75096051116E+02  0.13292099431E+02 0.  0.
         22    1    3    3    0    0  0.66094456221E+01 -0.25662807007E+02 -0.14646876531E+02  0.30278629874E+02  0.00000000000E+00 0.  1.
         22    1    4    4    0    0  0.22717259412E+01  0.13069271687E+02  0.41592962158E+02  0.43657085361E+02  0.00000000000E+00 0. -1.
         22    1    4    4    0    0 -0.88811715633E+01  0.12593535320E+02  0.27403215642E+02  0.31438965754E+02  0.00000000000E+00 0. -1.
<mgrwt>
<rscale>  0 0.90277222E+02</rscale>
<asrwt>0</asrwt>
<pdfrwt beam="1">  1        3 0.12286460E-01 0.90277222E+02</pdfrwt>
<pdfrwt beam="2">  1       -3 0.39250293E-02 0.90277222E+02</pdfrwt>
<totfact> 0.35212388E+04</totfact>
</mgrwt>
</event>
<event>
 7    1  0.1247599E-009  0.8952656E+02  0.7818608E-02  0.1304002E+00
         -3   -1    0    0    0  501 -0.00000000000E+00  0.00000000000E+00  0.12866666130E+03  0.12866670094E+03  0.10100000000E+00 0.  1.
          3   -1    0    0  501    0  0.00000000000E+00 -0.00000000000E+00 -0.15572992669E+02  0.15573320188E+02  0.10100000000E+00 0. -1.
         23    2    1    2    0    0  0.35527136788E-14  0.00000000000E+00  0.11309366863E+03  0.14424002113E+03  0.89526564833E+02 0.  0.
    9000005    2    3    3    0    0  0.29313514400E+02  0.65443343448E+01  0.10875384579E+03  0.11389295371E+03  0.15559418092E+02 0.  0.
         22    1    3    3    0    0 -0.29313514400E+02 -0.65443343448E+01  0.43398228325E+01  0.30347067415E+02  0.00000000000E+00 0. -1.
         22    1    4    4    0    0  0.27738634277E+02  0.12264767529E+01  0.82094479579E+02  0.86662792790E+02  0.00000000000E+00 0.  1.
         22    1    4    4    0    0  0.15748801229E+01  0.53178575919E+01  0.26659366215E+02  0.27230160921E+02  0.00000000000E+00 0.  1.
<mgrwt>
<rscale>  0 0.89526565E+02</rscale>
<asrwt>0</asrwt>
<pdfrwt beam="2">  1        3 0.23958734E-02 0.89526565E+02</pdfrwt>
<pdfrwt beam="1">  1       -3 0.19794898E-01 0.89526565E+02</pdfrwt>
<totfact> 0.33266801E+04</totfact>
</mgrwt>
</event>
<event>
 7    1  0.1247599E-009  0.8967738E+02  0.7818608E-02  0.1303635E+00
         -3   -1    0    0    0  501 -0.00000000000E+00  0.00000000000E+00  0.34516572931E+02  0.34516720700E+02  0.10100000000E+00 0.  1.
          3   -1    0    0  501    0  0.00000000000E+00 -0.00000000000E+00 -0.58247296853E+02  0.58247384419E+02  0.10100000000E+00 0. -1.
         23    2    1    2    0    0 -0.71054273576E-14  0.35527136788E-14 -0.23730723922E+02  0.92764105119E+02  0.89677376972E+02 0.  0.
    9000005    2    3    3    0    0 -0.37374921350E+02  0.22019726558E+02 -0.19722763935E+02  0.49200165365E+02  0.12244008780E+02 0.  0.
         22    1    3    3    0    0  0.37374921350E+02 -0.22019726558E+02 -0.40079599866E+01  0.43563939754E+02  0.00000000000E+00 0. -1.
         22    1    4    4    0    0 -0.27295573832E+02  0.21633447992E+02 -0.16977649197E+02  0.38746548170E+02  0.00000000000E+00 0. -1.
         22    1    4    4    0    0 -0.10079347518E+02  0.38627856669E+00 -0.27451147386E+01  0.10453617195E+02  0.00000000000E+00 0. -1.
<mgrwt>
<rscale>  0 0.89677377E+02</rscale>
<asrwt>0</asrwt>
<pdfrwt beam="2">  1        3 0.89611406E-02 0.89677377E+02</pdfrwt>
<pdfrwt beam="1">  1       -3 0.53102601E-02 0.89677377E+02</pdfrwt>
<totfact> 0.36840209E+04</totfact>
</mgrwt>
</event>
<event>
 7    1  0.1247599E-009  0.9152875E+02  0.7818608E-02  0.1299191E+00
          3   -1    0    0  501    0  0.00000000000E+00  0.00000000000E+00  0.48848492646E+02  0.48848597060E+02  0.10100000000E+00 0. -1.
         -3   -1    0    0    0  501 -0.00000000000E+00 -0.00000000000E+00 -0.42874769493E+02  0.42874888455E+02  0.10100000000E+00 0.  1.
         23    2    1    2    0    0 -0.71054273576E-14  0.88817841970E-15  0.59737231528E+01  0.91723485516E+02  0.91528751914E+02 0.  0.
    9000005    2    3    3    0    0  0.41061892998E+02 -0.61307364308E+01  0.20573412675E+02  0.47714214675E+02  0.11389292655E+02 0.  0.
         22    1    3    3    0    0 -0.41061892998E+02  0.61307364308E+01 -0.14599689522E+02  0.44009270841E+02  0.00000000000E+00 0.  1.
         22    1    4    4    0    0  0.38665872571E+02 -0.83305781695E+01  0.17544447601E+02  0.43269572172E+02  0.00000000000E+00 0.  1.
         22    1    4    4    0    0  0.23960204272E+01  0.21998417386E+01  0.30289650732E+01  0.44446425027E+01  0.00000000000E+00 0.  1.
<mgrwt>
<rscale>  0 0.91528752E+02</rscale>
<asrwt>0</asrwt>
<pdfrwt beam="1">  1        3 0.75151699E-02 0.91528752E+02</pdfrwt>
<pdfrwt beam="2">  1       -3 0.65961356E-02 0.91528752E+02</pdfrwt>
<totfact> 0.34927339E+04</totfact>
</mgrwt>
</event>
<event>
 7    1  0.1247599E-009  0.9252613E+02  0.7818608E-02  0.1296847E+00
          3   -1    0    0  501    0  0.00000000000E+00  0.00000000000E+00  0.60831346438E+01  0.60839730518E+01  0.10100000000E+00 0. -1.
         -3   -1    0    0    0  501 -0.00000000000E+00 -0.00000000000E+00 -0.35181178590E+03  0.35181180040E+03  0.10100000000E+00 0.  1.
         23    2    1    2    0    0  0.00000000000E+00  0.00000000000E+00 -0.34572865126E+03  0.35789577345E+03  0.92526127952E+02 0.  0.
    9000005    2    3    3    0    0 -0.36744662502E+02 -0.80692440997E+01 -0.27516321736E+03  0.27792850900E+03  0.10685364017E+02 0.  0.
         22    1    3    3    0    0  0.36744662502E+02  0.80692440997E+01 -0.70565433902E+02  0.79967264456E+02  0.00000000000E+00 0. -1.
         22    1    4    4    0    0 -0.33379943430E+02 -0.43594575268E+01 -0.25135420446E+03  0.25359842585E+03  0.00000000000E+00 0.  1.
         22    1    4    4    0    0 -0.33647190724E+01 -0.37097865729E+01 -0.23809012893E+02  0.24330083144E+02  0.00000000000E+00 0.  1.
<mgrwt>
<rscale>  0 0.92526128E+02</rscale>
<asrwt>0</asrwt>
<pdfrwt beam="1">  1        3 0.93593275E-03 0.92526128E+02</pdfrwt>
<pdfrwt beam="2">  1       -3 0.54124940E-01 0.92526128E+02</pdfrwt>
<totfact> 0.21091343E+04</totfact>
</mgrwt>
</event>
<event>
 7    1  0.1247599E-009  0.9184806E+02  0.7818608E-02  0.1298437E+00
          3   -1    0    0  501    0  0.00000000000E+00  0.00000000000E+00  0.30826287194E+02  0.30826452653E+02  0.10100000000E+00 0. -1.
         -3   -1    0    0    0  501 -0.00000000000E+00 -0.00000000000E+00 -0.68415785596E+02  0.68415860147E+02  0.10100000000E+00 0.  1.
         23    2    1    2    0    0  0.00000000000E+00 -0.35527136788E-14 -0.37589498402E+02  0.99242312800E+02  0.91848060729E+02 0.  0.
    9000005    2    3    3    0    0  0.33601576405E+02 -0.27655821739E+02 -0.85205245047E+01  0.46907662171E+02  0.15291141867E+02 0.  0.
         22    1    3    3    0    0 -0.33601576405E+02  0.27655821739E+02 -0.29068973897E+02  0.52334650628E+02  0.00000000000E+00 0.  1.
         22    1    4    4    0    0  0.29320990757E+02 -0.15348503124E+02 -0.59395805312E+01  0.33624034023E+02  0.00000000000E+00 0. -1.
         22    1    4    4    0    0  0.42805856477E+01 -0.12307318615E+02 -0.25809439735E+01  0.13283628148E+02  0.00000000000E+00 0. -1.
<mgrwt>
<rscale>  0 0.91848061E+02</rscale>
<asrwt>0</asrwt>
<pdfrwt beam="1">  1        3 0.47425242E-02 0.91848061E+02</pdfrwt>
<pdfrwt beam="2">  1       -3 0.10525524E-01 0.91848061E+02</pdfrwt>
<totfact> 0.34040561E+04</totfact>
</mgrwt>
</event>
<event>
 7    1  0.1247599E-009  0.9032872E+02  0.7818608E-02  0.1302058E+00
          3   -1    0    0  501    0  0.00000000000E+00  0.00000000000E+00  0.12924995566E+03  0.12924999512E+03  0.10100000000E+00 0. -1.
         -3   -1    0    0    0  501 -0.00000000000E+00 -0.00000000000E+00 -0.15781770066E+02  0.15782093252E+02  0.10100000000E+00 0.  1.
         23    2    1    2    0    0  0.00000000000E+00  0.00000000000E+00  0.11346818559E+03  0.14503208837E+03  0.90328719223E+02 0.  0.
    9000005    2    3    3    0    0  0.16870968453E+02 -0.39890003543E+02  0.77203610664E+02  0.88543493472E+02  0.19263378315E+01 0.  0.
         22    1    3    3    0    0 -0.16870968453E+02  0.39890003543E+02  0.36264574930E+02  0.56488594903E+02  0.00000000000E+00 0.  1.
         22    1    4    4    0    0  0.47911287688E+01 -0.98704074195E+01  0.20826825319E+02  0.23540104299E+02  0.00000000000E+00 0.  1.
         22    1    4    4    0    0  0.12079839684E+02 -0.30019596124E+02  0.56376785344E+02  0.65003389173E+02  0.00000000000E+00 0.  1.
<mgrwt>
<rscale>  0 0.90328719E+02</rscale>
<asrwt>0</asrwt>
<pdfrwt beam="1">  1        3 0.19884637E-01 0.90328719E+02</pdfrwt>
<pdfrwt beam="2">  1       -3 0.24279925E-02 0.90328719E+02</pdfrwt>
<totfact> 0.32422916E+04</totfact>
</mgrwt>
</event>
<event>
 7    1  0.1247599E-009  0.9122083E+02  0.7818608E-02  0.1299922E+00
          3   -1    0    0  501    0  0.00000000000E+00  0.00000000000E+00  0.17302383603E+03  0.17302386551E+03  0.10100000000E+00 0. -1.
         -3   -1    0    0    0  501 -0.00000000000E+00 -0.00000000000E+00 -0.12023014459E+02  0.12023438679E+02  0.10100000000E+00 0.  1.
         23    2    1    2    0    0  0.71054273576E-14  0.17763568394E-14  0.16100082157E+03  0.18504730419E+03  0.91220832273E+02 0.  0.
    9000005    2    3    3    0    0  0.40239345687E+02  0.92061650796E+01  0.46950486882E+02  0.63756590366E+02  0.12513839532E+02 0.  0.
         22    1    3    3    0    0 -0.40239345687E+02 -0.92061650796E+01  0.11405033469E+03  0.12129071382E+03  0.00000000000E+00 0. -1.
         22    1    4    4    0    0  0.40116190819E+02  0.93893548040E+01  0.42116162883E+02  0.58917229445E+02  0.00000000000E+00 0.  1.
         22    1    4    4    0    0  0.12315486799E+00 -0.18318972440E+00  0.48343239989E+01  0.48393609210E+01  0.00000000000E+00 0.  1.
<mgrwt>
<rscale>  0 0.91220832E+02</rscale>
<asrwt>0</asrwt>
<pdfrwt beam="1">  1        3 0.26619086E-01 0.91220832E+02</pdfrwt>
<pdfrwt beam="2">  1       -3 0.18497294E-02 0.91220832E+02</pdfrwt>
<totfact> 0.29252111E+04</totfact>
</mgrwt>
</event>
<event>
 7    1  0.1247599E-009  0.9320797E+02  0.7818608E-02  0.1295264E+00
          3   -1    0    0  501    0  0.00000000000E+00  0.00000000000E+00  0.10113311201E+03  0.10113316244E+03  0.10100000000E+00 0. -1.
         -3   -1    0    0    0  501 -0.00000000000E+00 -0.00000000000E+00 -0.21475790619E+02  0.21476028118E+02  0.10100000000E+00 0.  1.
         23    2    1    2    0    0  0.00000000000E+00  0.00000000000E+00  0.79657321389E+02  0.12260919056E+03  0.93207965105E+02 0.  0.
    9000005    2    3    3    0    0  0.47700875024E+01  0.45213552726E+02  0.28679427129E+02  0.54302786848E+02  0.76983137165E+01 0.  0.
         22    1    3    3    0    0 -0.47700875024E+01 -0.45213552726E+02  0.50977894260E+02  0.68306403712E+02  0.00000000000E+00 0. -1.
         22    1    4    4    0    0  0.38240653793E+01  0.99677055277E+01  0.47135545162E+01  0.11670313864E+02  0.00000000000E+00 0.  1.
         22    1    4    4    0    0  0.94602212315E+00  0.35245847199E+02  0.23965872613E+02  0.42632472984E+02  0.00000000000E+00 0.  1.
<mgrwt>
<rscale>  0 0.93207965E+02</rscale>
<asrwt>0</asrwt>
<pdfrwt beam="1">  1        3 0.15558963E-01 0.93207965E+02</pdfrwt>
<pdfrwt beam="2">  1       -3 0.33039898E-02 0.93207965E+02</pdfrwt>
<totfact> 0.31143238E+04</totfact>
</mgrwt>
</event>
<event>
 7    1  0.1247599E-009  0.8857460E+02  0.7818608E-02  0.1306341E+00
          3   -1    0    0  501    0  0.00000000000E+00  0.00000000000E+00  0.47261702399E+02  0.47261810320E+02  0.10100000000E+00 0. -1.
         -3   -1    0    0    0  501 -0.00000000000E+00 -0.00000000000E+00 -0.41499875490E+02  0.41499998394E+02  0.10100000000E+00 0.  1.
         23    2    1    2    0    0  0.17763568394E-14  0.00000000000E+00  0.57618269091E+01  0.88761808714E+02  0.88574601533E+02 0.  0.
    9000005    2    3    3    0    0 -0.12161936933E+02 -0.75548665008E+01 -0.38766455584E+02  0.41988347653E+02  0.74293029443E+01 0.  0.
         22    1    3    3    0    0  0.12161936933E+02  0.75548665008E+01  0.44528282493E+02  0.46773461061E+02  0.00000000000E+00 0. -1.
         22    1    4    4    0    0 -0.10048408567E+02 -0.56564811625E+01 -0.36717570018E+02  0.38485662810E+02  0.00000000000E+00 0.  1.
         22    1    4    4    0    0 -0.21135283656E+01 -0.18983853383E+01 -0.20488855658E+01  0.35026848426E+01  0.00000000000E+00 0.  1.
<mgrwt>
<rscale>  0 0.88574602E+02</rscale>
<asrwt>0</asrwt>
<pdfrwt beam="1">  1        3 0.72710488E-02 0.88574602E+02</pdfrwt>
<pdfrwt beam="2">  1       -3 0.63846140E-02 0.88574602E+02</pdfrwt>
<totfact> 0.38433136E+04</totfact>
</mgrwt>
</event>
<event>
 7    1  0.1247599E-009  0.7359933E+02  0.7818608E-02  0.1348264E+00
          3   -1    0    0  501    0  0.00000000000E+00  0.00000000000E+00  0.18257469714E+02  0.18257749077E+02  0.10100000000E+00 0. -1.
         -3   -1    0    0    0  501 -0.00000000000E+00 -0.00000000000E+00 -0.74172345397E+02  0.74172414163E+02  0.10100000000E+00 0.  1.
         23    2    1    2    0    0  0.00000000000E+00  0.00000000000E+00 -0.55914875684E+02  0.92430163239E+02  0.73599332563E+02 0.  0.
    9000005    2    3    3    0    0  0.76512016153E+01 -0.29257468632E+02 -0.22978227215E+01  0.30872639530E+02  0.57705740953E+01 0.  0.
         22    1    3    3    0    0 -0.76512016153E+01  0.29257468632E+02 -0.53617052962E+02  0.61557523709E+02  0.00000000000E+00 0.  1.
         22    1    4    4    0    0  0.11035423810E+01 -0.33504449256E+01  0.15906715383E+01  0.38695636613E+01  0.00000000000E+00 0. -1.
         22    1    4    4    0    0  0.65476592344E+01 -0.25907023706E+02 -0.38884942597E+01  0.27003075869E+02  0.00000000000E+00 0. -1.
<mgrwt>
<rscale>  0 0.73599333E+02</rscale>
<asrwt>0</asrwt>
<pdfrwt beam="1">  1        3 0.28088683E-02 0.73599333E+02</pdfrwt>
<pdfrwt beam="2">  1       -3 0.11411157E-01 0.73599333E+02</pdfrwt>
<totfact> 0.62654353E+04</totfact>
</mgrwt>
</event>
<event>
 7    1  0.1247599E-009  0.9201501E+02  0.7818608E-02  0.1298044E+00
         -3   -1    0    0    0  501 -0.00000000000E+00  0.00000000000E+00  0.89922029314E+01  0.89927701272E+01  0.10100000000E+00 0.  1.
          3   -1    0    0  501    0  0.00000000000E+00 -0.00000000000E+00 -0.23538375847E+03  0.23538378014E+03  0.10100000000E+00 0. -1.
         23    2    1    2    0    0  0.00000000000E+00 -0.35527136788E-14 -0.22639155554E+03  0.24437655026E+03  0.92015009105E+02 0.  0.
    9000005    2    3    3    0    0 -0.27434526970E+02  0.22128195371E+02 -0.18991344293E+03  0.19365216757E+03  0.13846873218E+02 0.  0.
         22    1    3    3    0    0  0.27434526970E+02 -0.22128195371E+02 -0.36478112604E+02  0.50724382693E+02  0.00000000000E+00 0.  1.
         22    1    4    4    0    0 -0.19428938321E+02  0.13795206538E+02 -0.15634718547E+03  0.15815256486E+03  0.00000000000E+00 0. -1.
         22    1    4    4    0    0 -0.80055886490E+01  0.83329888334E+01 -0.33566257463E+02  0.35499602711E+02  0.00000000000E+00 0. -1.
<mgrwt>
<rscale>  0 0.92015009E+02</rscale>
<asrwt>0</asrwt>
<pdfrwt beam="2">  1        3 0.36212927E-01 0.92015009E+02</pdfrwt>
<pdfrwt beam="1">  1       -3 0.13834613E-02 0.92015009E+02</pdfrwt>
<totfact> 0.25713388E+04</totfact>
</mgrwt>
</event>
<event>
 7    1  0.1247599E-009  0.9130750E+02  0.7818608E-02  0.1299716E+00
          3   -1    0    0  501    0  0.00000000000E+00  0.00000000000E+00  0.20782315412E+02  0.20782560835E+02  0.10100000000E+00 0. -1.
         -3   -1    0    0    0  501 -0.00000000000E+00 -0.00000000000E+00 -0.10028945631E+03  0.10028950717E+03  0.10100000000E+00 0.  1.
         23    2    1    2    0    0  0.00000000000E+00  0.00000000000E+00 -0.79507140900E+02  0.12107206800E+03  0.91307503508E+02 0.  0.
    9000005    2    3    3    0    0 -0.20806726423E+02 -0.67899597193E+01  0.12701291086E+02  0.26301722713E+02  0.71717783676E+01 0.  0.
         22    1    3    3    0    0  0.20806726423E+02  0.67899597193E+01 -0.92208431986E+02  0.94770345292E+02  0.00000000000E+00 0.  1.
         22    1    4    4    0    0 -0.11933720319E+02 -0.63949149688E+01  0.10547004329E+02  0.17162398387E+02  0.00000000000E+00 0. -1.
         22    1    4    4    0    0 -0.88730061046E+01 -0.39504475054E+00  0.21542867576E+01  0.91393243252E+01  0.00000000000E+00 0. -1.
<mgrwt>
<rscale>  0 0.91307504E+02</rscale>
<asrwt>0</asrwt>
<pdfrwt beam="1">  1        3 0.31973021E-02 0.91307504E+02</pdfrwt>
<pdfrwt beam="2">  1       -3 0.15429170E-01 0.91307504E+02</pdfrwt>
<totfact> 0.33045845E+04</totfact>
</mgrwt>
</event>
<event>
 7    1  0.1247599E-009  0.8995027E+02  0.7818608E-02  0.1302972E+00
          3   -1    0    0  501    0  0.00000000000E+00  0.00000000000E+00  0.16769670847E+03  0.16769673889E+03  0.10100000000E+00 0. -1.
         -3   -1    0    0    0  501 -0.00000000000E+00 -0.00000000000E+00 -0.12061786127E+02  0.12062208984E+02  0.10100000000E+00 0.  1.
         23    2    1    2    0    0 -0.35527136788E-14  0.35527136788E-14  0.15563492234E+03  0.17975894787E+03  0.89950265628E+02 0.  0.
    9000005    2    3    3    0    0 -0.29615911347E+02 -0.30779176479E+02  0.10536436080E+03  0.11379237097E+03  0.47534466674E+01 0.  0.
         22    1    3    3    0    0  0.29615911347E+02  0.30779176479E+02  0.50270561544E+02  0.65966576898E+02  0.00000000000E+00 0. -1.
         22    1    4    4    0    0 -0.76108189542E+01 -0.11030757472E+02  0.31820058727E+02  0.34527066382E+02  0.00000000000E+00 0.  1.
         22    1    4    4    0    0 -0.22005092393E+02 -0.19748419007E+02  0.73544302074E+02  0.79265304592E+02  0.00000000000E+00 0.  1.
<mgrwt>
<rscale>  0 0.89950266E+02</rscale>
<asrwt>0</asrwt>
<pdfrwt beam="1">  1        3 0.25799528E-01 0.89950266E+02</pdfrwt>
<pdfrwt beam="2">  1       -3 0.18556943E-02 0.89950266E+02</pdfrwt>
<totfact> 0.30679406E+04</totfact>
</mgrwt>
</event>
<event>
 7    1  0.1908908E-009  0.8918096E+02  0.7818608E-02  0.1304847E+00
         -3   -1    0    0    0  501 -0.00000000000E+00  0.00000000000E+00  0.21420191789E+02  0.21420429904E+02  0.10100000000E+00 0.  1.
          3   -1    0    0  501    0  0.00000000000E+00 -0.00000000000E+00 -0.92823357909E+02  0.92823412857E+02  0.10100000000E+00 0. -1.
         23    2    1    2    0    0  0.17763568394E-14  0.00000000000E+00 -0.71403166120E+02  0.11424384276E+03  0.89180959160E+02 0.  0.
    9000005    2    3    3    0    0 -0.64946742233E+01 -0.12464656131E+02 -0.89254401794E+02  0.91523476108E+02  0.14582523561E+02 0.  0.
         22    1    3    3    0    0  0.64946742233E+01  0.12464656131E+02  0.17851235674E+02  0.22720366653E+02  0.00000000000E+00 0.  1.
         22    1    4    4    0    0 -0.10591854596E+02 -0.76469779220E+01 -0.46364564264E+02  0.48169871024E+02  0.00000000000E+00 0.  1.
         22    1    4    4    0    0  0.40971803724E+01 -0.48176782094E+01 -0.42889837531E+02  0.43353605084E+02  0.00000000000E+00 0.  1.
<mgrwt>
<rscale>  0 0.89180959E+02</rscale>
<asrwt>0</asrwt>
<pdfrwt beam="2">  1        3 0.14280539E-01 0.89180959E+02</pdfrwt>
<pdfrwt beam="1">  1       -3 0.32954367E-02 0.89180959E+02</pdfrwt>
<totfact> 0.35724326E+04</totfact>
</mgrwt>
</event>
<event>
 7    1  0.1247599E-009  0.9057313E+02  0.7818608E-02  0.1301470E+00
         -3   -1    0    0    0  501 -0.00000000000E+00  0.00000000000E+00  0.49705466093E+03  0.49705467119E+03  0.10100000000E+00 0.  1.
          3   -1    0    0  501    0  0.00000000000E+00 -0.00000000000E+00 -0.41254229301E+01  0.41266591030E+01  0.10100000000E+00 0. -1.
         23    2    1    2    0    0  0.00000000000E+00  0.00000000000E+00  0.49292923800E+03  0.50118133030E+03  0.90573131560E+02 0.  0.
    9000005    2    3    3    0    0  0.16116084362E+02  0.25975104865E+02  0.43116991921E+03  0.43227089781E+03  0.40243774606E+01 0.  0.
         22    1    3    3    0    0 -0.16116084362E+02 -0.25975104865E+02  0.61759318795E+02  0.68910432489E+02  0.00000000000E+00 0. -1.
         22    1    4    4    0    0  0.12232760408E+02  0.21443632982E+02  0.36410336979E+03  0.36493935622E+03  0.00000000000E+00 0.  1.
         22    1    4    4    0    0  0.38833239539E+01  0.45314718823E+01  0.67066549418E+02  0.67331541592E+02  0.00000000000E+00 0.  1.
<mgrwt>
<rscale>  0 0.90573132E+02</rscale>
<asrwt>0</asrwt>
<pdfrwt beam="2">  1        3 0.63477674E-03 0.90573132E+02</pdfrwt>
<pdfrwt beam="1">  1       -3 0.76469995E-01 0.90573132E+02</pdfrwt>
<totfact> 0.18181658E+04</totfact>
</mgrwt>
</event>
<event>
 7    1  0.1247599E-009  0.9017701E+02  0.7818608E-02  0.1302424E+00
         -3   -1    0    0    0  501 -0.00000000000E+00  0.00000000000E+00  0.36776457824E+03  0.36776459211E+03  0.10100000000E+00 0.  1.
          3   -1    0    0  501    0  0.00000000000E+00 -0.00000000000E+00 -0.55274448778E+01  0.55283675599E+01  0.10100000000E+00 0. -1.
         23    2    1    2    0    0  0.00000000000E+00  0.00000000000E+00  0.36223713336E+03  0.37329295966E+03  0.90177008998E+02 0.  0.
    9000005    2    3    3    0    0  0.13941063182E+02 -0.15684256061E+02  0.34595288788E+03  0.34673122438E+03  0.99394261346E+01 0.  0.
         22    1    3    3    0    0 -0.13941063182E+02  0.15684256061E+02  0.16284245474E+02  0.26561735288E+02  0.00000000000E+00 0. -1.
         22    1    4    4    0    0 -0.76333625288E+00 -0.35988455214E+01  0.88113510878E+02  0.88190278209E+02  0.00000000000E+00 0.  1.
         22    1    4    4    0    0  0.14704399435E+02 -0.12085410539E+02  0.25783937701E+03  0.25854094617E+03  0.00000000000E+00 0.  1.
<mgrwt>
<rscale>  0 0.90177009E+02</rscale>
<asrwt>0</asrwt>
<pdfrwt beam="2">  1        3 0.85044812E-03 0.90177009E+02</pdfrwt>
<pdfrwt beam="1">  1       -3 0.56579242E-01 0.90177009E+02</pdfrwt>
<totfact> 0.22074998E+04</totfact>
</mgrwt>
</event>
<event>
 7    1  0.1247599E-009  0.9110419E+02  0.7818608E-02  0.1300200E+00
         -3   -1    0    0    0  501 -0.00000000000E+00  0.00000000000E+00  0.70906731736E+02  0.70906803668E+02  0.10100000000E+00 0.  1.
          3   -1    0    0  501    0  0.00000000000E+00 -0.00000000000E+00 -0.29263525251E+02  0.29263699546E+02  0.10100000000E+00 0. -1.
         23    2    1    2    0    0  0.00000000000E+00 -0.71054273576E-14  0.41643206485E+02  0.10017050321E+03  0.91104187982E+02 0.  0.
    9000005    2    3    3    0    0  0.21032652587E+02 -0.39710381182E+02  0.24325070448E+02  0.52012381529E+02  0.97104032693E+01 0.  0.
         22    1    3    3    0    0 -0.21032652587E+02  0.39710381182E+02  0.17318136037E+02  0.48158121685E+02  0.00000000000E+00 0.  1.
         22    1    4    4    0    0  0.19297656923E+02 -0.30658906751E+02  0.16037102730E+02  0.39617632310E+02  0.00000000000E+00 0. -1.
         22    1    4    4    0    0  0.17349956641E+01 -0.90514744306E+01  0.82879677180E+01  0.12394749220E+02  0.00000000000E+00 0. -1.
<mgrwt>
<rscale>  0 0.91104188E+02</rscale>
<asrwt>0</asrwt>
<pdfrwt beam="2">  1        3 0.45020998E-02 0.91104188E+02</pdfrwt>
<pdfrwt beam="1">  1       -3 0.10908747E-01 0.91104188E+02</pdfrwt>
<totfact> 0.34735155E+04</totfact>
</mgrwt>
</event>
<event>
 7    1  0.1247599E-009  0.9488275E+02  0.7818608E-02  0.1291440E+00
          3   -1    0    0  501    0  0.00000000000E+00  0.00000000000E+00  0.11252687636E+02  0.11253140896E+02  0.10100000000E+00 0. -1.
         -3   -1    0    0    0  501 -0.00000000000E+00 -0.00000000000E+00 -0.20000853641E+03  0.20000856191E+03  0.10100000000E+00 0.  1.
         23    2    1    2    0    0  0.00000000000E+00  0.00000000000E+00 -0.18875584878E+03  0.21126170281E+03  0.94882751997E+02 0.  0.
    9000005    2    3    3    0    0 -0.40320278392E+02 -0.20702371091E+02 -0.78207510224E+02  0.91782632779E+02  0.15916155505E+02 0.  0.
         22    1    3    3    0    0  0.40320278392E+02  0.20702371091E+02 -0.11054833855E+03  0.11947907003E+03  0.00000000000E+00 0. -1.
         22    1    4    4    0    0 -0.16901205634E+02 -0.53366754475E+01 -0.44848870612E+02  0.48223977976E+02  0.00000000000E+00 0. -1.
         22    1    4    4    0    0 -0.23419072759E+02 -0.15365695644E+02 -0.33358639612E+02  0.43558654803E+02  0.00000000000E+00 0. -1.
<mgrwt>
<rscale>  0 0.94882752E+02</rscale>
<asrwt>0</asrwt>
<pdfrwt beam="1">  1        3 0.17312197E-02 0.94882752E+02</pdfrwt>
<pdfrwt beam="2">  1       -3 0.30770578E-01 0.94882752E+02</pdfrwt>
<totfact> 0.25070865E+04</totfact>
</mgrwt>
</event>
<event>
 7    1  0.1247599E-009  0.9062224E+02  0.7818608E-02  0.1301352E+00
         -3   -1    0    0    0  501 -0.00000000000E+00  0.00000000000E+00  0.44562235167E+01  0.44573679487E+01  0.10100000000E+00 0.  1.
          3   -1    0    0  501    0  0.00000000000E+00 -0.00000000000E+00 -0.46066564383E+03  0.46066565491E+03  0.10100000000E+00 0. -1.
         23    2    1    2    0    0  0.17763568394E-14  0.35527136788E-14 -0.45620942032E+03  0.46512302286E+03  0.90622244528E+02 0.  0.
    9000005    2    3    3    0    0 -0.10513455154E+02 -0.25134697185E+02 -0.41273855153E+03  0.41381998030E+03  0.12311719552E+02 0.  0.
         22    1    3    3    0    0  0.10513455154E+02  0.25134697185E+02 -0.43470868791E+02  0.51303042554E+02  0.00000000000E+00 0.  1.
         22    1    4    4    0    0  0.42637268046E+00  0.25457417279E+00 -0.59223862439E+02  0.59225944348E+02  0.00000000000E+00 0. -1.
         22    1    4    4    0    0 -0.10939827834E+02 -0.25389271358E+02 -0.35351468909E+03  0.35459403595E+03  0.00000000000E+00 0. -1.
<mgrwt>
<rscale>  0 0.90622245E+02</rscale>
<asrwt>0</asrwt>
<pdfrwt beam="2">  1        3 0.70871689E-01 0.90622245E+02</pdfrwt>
<pdfrwt beam="1">  1       -3 0.68566210E-03 0.90622245E+02</pdfrwt>
<totfact> 0.19096268E+04</totfact>
</mgrwt>
</event>
<event>
 7    1  0.1247599E-009  0.9166261E+02  0.7818608E-02  0.1298875E+00
          3   -1    0    0  501    0  0.00000000000E+00  0.00000000000E+00  0.41107782502E+03  0.41107783743E+03  0.10100000000E+00 0. -1.
         -3   -1    0    0    0  501 -0.00000000000E+00 -0.00000000000E+00 -0.51092469434E+01  0.51102451339E+01  0.10100000000E+00 0.  1.
         23    2    1    2    0    0  0.00000000000E+00  0.00000000000E+00  0.40596857808E+03  0.41618808256E+03  0.91662607866E+02 0.  0.
    9000005    2    3    3    0    0 -0.12087778336E+02 -0.42514029467E+02  0.23695106275E+03  0.24148697331E+03  0.14717168658E+02 0.  0.
         22    1    3    3    0    0  0.12087778336E+02  0.42514029467E+02  0.16901751533E+03  0.17470110926E+03  0.00000000000E+00 0.  1.
         22    1    4    4    0    0 -0.60196495589E+00 -0.12423485819E+02  0.39076270167E+02  0.41008051062E+02  0.00000000000E+00 0.  1.
         22    1    4    4    0    0 -0.11485813380E+02 -0.30090543648E+02  0.19787479258E+03  0.20047892224E+03  0.00000000000E+00 0.  1.
<mgrwt>
<rscale>  0 0.91662608E+02</rscale>
<asrwt>0</asrwt>
<pdfrwt beam="1">  1        3 0.63242839E-01 0.91662608E+02</pdfrwt>
<pdfrwt beam="2">  1       -3 0.78611549E-03 0.91662608E+02</pdfrwt>
<totfact> 0.19850735E+04</totfact>
</mgrwt>
</event>
<event>
 7    1  0.1247599E-009  0.9116575E+02  0.7818608E-02  0.1300053E+00
         -3   -1    0    0    0  501 -0.00000000000E+00  0.00000000000E+00  0.35361225717E+02  0.35361369956E+02  0.10100000000E+00 0.  1.
          3   -1    0    0  501    0  0.00000000000E+00 -0.00000000000E+00 -0.58758929823E+02  0.58759016626E+02  0.10100000000E+00 0. -1.
         23    2    1    2    0    0  0.17763568394E-14  0.00000000000E+00 -0.23397704106E+02  0.94120386583E+02  0.91165753510E+02 0.  0.
    9000005    2    3    3    0    0 -0.15579383650E+02 -0.40123457831E+02 -0.10444019789E+01  0.45620085767E+02  0.15082850749E+02 0.  0.
         22    1    3    3    0    0  0.15579383650E+02  0.40123457831E+02 -0.22353302127E+02  0.48500300816E+02  0.00000000000E+00 0. -1.
         22    1    4    4    0    0  0.21434331838E+01 -0.57438355322E+00  0.41254263915E+00  0.22570807935E+01  0.00000000000E+00 0. -1.
         22    1    4    4    0    0 -0.17722816834E+02 -0.39549074278E+02 -0.14569446180E+01  0.43363004974E+02  0.00000000000E+00 0. -1.
<mgrwt>
<rscale>  0 0.91165754E+02</rscale>
<asrwt>0</asrwt>
<pdfrwt beam="2">  1        3 0.90398531E-02 0.91165754E+02</pdfrwt>
<pdfrwt beam="1">  1       -3 0.54402063E-02 0.91165754E+02</pdfrwt>
<totfact> 0.35125161E+04</totfact>
</mgrwt>
</event>
<event>
 7    1  0.1247599E-009  0.9151597E+02  0.7818608E-02  0.1299222E+00
         -3   -1    0    0    0  501 -0.00000000000E+00  0.00000000000E+00  0.95982074691E+02  0.95982127831E+02  0.10100000000E+00 0.  1.
          3   -1    0    0  501    0  0.00000000000E+00 -0.00000000000E+00 -0.21814242609E+02  0.21814476423E+02  0.10100000000E+00 0. -1.
         23    2    1    2    0    0 -0.35527136788E-14 -0.71054273576E-14  0.74167832082E+02  0.11779660425E+03  0.91515969415E+02 0.  0.
    9000005    2    3    3    0    0  0.22731718796E+02  0.39589025430E+02  0.40722177231E+02  0.61204786803E+02  0.19256778591E+01 0.  0.
         22    1    3    3    0    0 -0.22731718796E+02 -0.39589025430E+02  0.33445654851E+02  0.56591817451E+02  0.00000000000E+00 0. -1.
         22    1    4    4    0    0  0.20772256678E+02  0.36985237357E+02  0.37420407150E+02  0.56565725498E+02  0.00000000000E+00 0.  1.
         22    1    4    4    0    0  0.19594621177E+01  0.26037880732E+01  0.33017700809E+01  0.46390613046E+01  0.00000000000E+00 0.  1.
<mgrwt>
<rscale>  0 0.91515969E+02</rscale>
<asrwt>0</asrwt>
<pdfrwt beam="2">  1        3 0.33560594E-02 0.91515969E+02</pdfrwt>
<pdfrwt beam="1">  1       -3 0.14766495E-01 0.91515969E+02</pdfrwt>
<totfact> 0.33063615E+04</totfact>
</mgrwt>
</event>
<event>
 7    1  0.1247599E-009  0.9153154E+02  0.7818608E-02  0.1299185E+00
          3   -1    0    0  501    0  0.00000000000E+00  0.00000000000E+00  0.19125183003E+02  0.19125449691E+02  0.10100000000E+00 0. -1.
         -3   -1    0    0    0  501 -0.00000000000E+00 -0.00000000000E+00 -0.10951453540E+03  0.10951458198E+03  0.10100000000E+00 0.  1.
         23    2    1    2    0    0  0.35527136788E-14  0.00000000000E+00 -0.90389352401E+02  0.12864003167E+03  0.91531539484E+02 0.  0.
    9000005    2    3    3    0    0 -0.29883379177E+02  0.15402696437E+02 -0.38461476690E+01  0.35796153605E+02  0.11675288111E+02 0.  0.
         22    1    3    3    0    0  0.29883379177E+02 -0.15402696437E+02 -0.86543204731E+02  0.92843878063E+02  0.00000000000E+00 0.  1.
         22    1    4    4    0    0 -0.24288773903E+02  0.16527786780E+02 -0.54243298846E+01  0.29875334780E+02  0.00000000000E+00 0.  1.
         22    1    4    4    0    0 -0.55946052744E+01 -0.11250903427E+01  0.15781822156E+01  0.59208188252E+01  0.00000000000E+00 0.  1.
<mgrwt>
<rscale>  0 0.91531539E+02</rscale>
<asrwt>0</asrwt>
<pdfrwt beam="1">  1        3 0.29423600E-02 0.91531539E+02</pdfrwt>
<pdfrwt beam="2">  1       -3 0.16848414E-01 0.91531539E+02</pdfrwt>
<totfact> 0.32324190E+04</totfact>
</mgrwt>
</event>
<event>
 7    1  0.1247599E-009  0.8300945E+02  0.7818608E-02  0.1320722E+00
         -3   -1    0    0    0  501 -0.00000000000E+00  0.00000000000E+00  0.14943767181E+03  0.14943770594E+03  0.10100000000E+00 0.  1.
          3   -1    0    0  501    0  0.00000000000E+00 -0.00000000000E+00 -0.11527238355E+02  0.11527680820E+02  0.10100000000E+00 0. -1.
         23    2    1    2    0    0  0.00000000000E+00  0.00000000000E+00  0.13791043345E+03  0.16096538676E+03  0.83009445722E+02 0.  0.
    9000005    2    3    3    0    0 -0.14128624911E+02 -0.30630325083E+02  0.11483487490E+03  0.12009588396E+03  0.99064622432E+01 0.  0.
         22    1    3    3    0    0  0.14128624911E+02  0.30630325083E+02  0.23075558553E+02  0.40869502800E+02  0.00000000000E+00 0. -1.
         22    1    4    4    0    0 -0.16565594260E+01 -0.14950286165E+02  0.45291455588E+02  0.47723905905E+02  0.00000000000E+00 0. -1.
         22    1    4    4    0    0 -0.12472065485E+02 -0.15680038917E+02  0.69543419310E+02  0.72371978052E+02  0.00000000000E+00 0. -1.
<mgrwt>
<rscale>  0 0.83009446E+02</rscale>
<asrwt>0</asrwt>
<pdfrwt beam="2">  1        3 0.17734580E-02 0.83009446E+02</pdfrwt>
<pdfrwt beam="1">  1       -3 0.22990447E-01 0.83009446E+02</pdfrwt>
<totfact> 0.39442138E+04</totfact>
</mgrwt>
</event>
<event>
 7    1  0.1247599E-009  0.9975232E+02  0.7818608E-02  0.1280818E+00
         -3   -1    0    0    0  501 -0.00000000000E+00  0.00000000000E+00  0.54555578546E+03  0.54555579481E+03  0.10100000000E+00 0.  1.
          3   -1    0    0  501    0  0.00000000000E+00 -0.00000000000E+00 -0.45592421458E+01  0.45603607252E+01  0.10100000000E+00 0. -1.
         23    2    1    2    0    0  0.00000000000E+00 -0.71054273576E-14  0.54099654331E+03  0.55011615553E+03  0.99752316775E+02 0.  0.
    9000005    2    3    3    0    0 -0.16443461105E+02 -0.46317820628E+02  0.28258323910E+03  0.28707022092E+03  0.11844694995E+02 0.  0.
         22    1    3    3    0    0  0.16443461105E+02  0.46317820628E+02  0.25841330421E+03  0.26304593461E+03  0.00000000000E+00 0.  1.
         22    1    4    4    0    0 -0.14684324226E+02 -0.23958173599E+02  0.15237278657E+03  0.15494221358E+03  0.00000000000E+00 0. -1.
         22    1    4    4    0    0 -0.17591368791E+01 -0.22359647029E+02  0.13021045253E+03  0.13212800734E+03  0.00000000000E+00 0. -1.
<mgrwt>
<rscale>  0 0.99752317E+02</rscale>
<asrwt>0</asrwt>
<pdfrwt beam="2">  1        3 0.70150907E-03 0.99752317E+02</pdfrwt>
<pdfrwt beam="1">  1       -3 0.83931693E-01 0.99752317E+02</pdfrwt>
<totfact> 0.13152923E+04</totfact>
</mgrwt>
</event>
<event>
 7    1  0.1247599E-009  0.8089202E+02  0.7818608E-02  0.1326539E+00
          3   -1    0    0  501    0  0.00000000000E+00  0.00000000000E+00  0.11109762295E+03  0.11109766886E+03  0.10100000000E+00 0. -1.
         -3   -1    0    0    0  501 -0.00000000000E+00 -0.00000000000E+00 -0.14724481082E+02  0.14724827474E+02  0.10100000000E+00 0.  1.
         23    2    1    2    0    0  0.00000000000E+00  0.00000000000E+00  0.96373141865E+02  0.12582249633E+03  0.80892015120E+02 0.  0.
    9000005    2    3    3    0    0  0.19592311593E+02  0.27149031832E+02  0.17754068865E+02  0.40371415342E+02  0.13918175616E+02 0.  0.
         22    1    3    3    0    0 -0.19592311593E+02 -0.27149031832E+02  0.78619073000E+02  0.85451080990E+02  0.00000000000E+00 0. -1.
         22    1    4    4    0    0  0.48379978888E+01  0.15049506101E+02  0.13577700692E+02  0.20838613522E+02  0.00000000000E+00 0. -1.
         22    1    4    4    0    0  0.14754313704E+02  0.12099525731E+02  0.41763681727E+01  0.19532801820E+02  0.00000000000E+00 0. -1.
<mgrwt>
<rscale>  0 0.80892015E+02</rscale>
<asrwt>0</asrwt>
<pdfrwt beam="1">  1        3 0.17091972E-01 0.80892015E+02</pdfrwt>
<pdfrwt beam="2">  1       -3 0.22653350E-02 0.80892015E+02</pdfrwt>
<totfact> 0.45340328E+04</totfact>
</mgrwt>
</event>
<event>
 7    1  0.1247599E-009  0.9051536E+02  0.7818608E-02  0.1301608E+00
          3   -1    0    0  501    0  0.00000000000E+00  0.00000000000E+00  0.12115879647E+02  0.12116300616E+02  0.10100000000E+00 0. -1.
         -3   -1    0    0    0  501 -0.00000000000E+00 -0.00000000000E+00 -0.16905226617E+03  0.16905229634E+03  0.10100000000E+00 0.  1.
         23    2    1    2    0    0  0.00000000000E+00  0.17763568394E-14 -0.15693638652E+03  0.18116859696E+03  0.90515363938E+02 0.  0.
    9000005    2    3    3    0    0 -0.40862244028E+02 -0.11931451198E+02 -0.10650576233E+03  0.11517367010E+03  0.10460131916E+02 0.  0.
         22    1    3    3    0    0  0.40862244028E+02  0.11931451198E+02 -0.50430624193E+02  0.65994926859E+02  0.00000000000E+00 0. -1.
         22    1    4    4    0    0 -0.16497328152E+02 -0.53304145292E+01 -0.57377003522E+02  0.59939099830E+02  0.00000000000E+00 0. -1.
         22    1    4    4    0    0 -0.24364915876E+02 -0.66010366689E+01 -0.49128758807E+02  0.55234570268E+02  0.00000000000E+00 0. -1.
<mgrwt>
<rscale>  0 0.90515364E+02</rscale>
<asrwt>0</asrwt>
<pdfrwt beam="1">  1        3 0.18640163E-02 0.90515364E+02</pdfrwt>
<pdfrwt beam="2">  1       -3 0.26008074E-01 0.90515364E+02</pdfrwt>
<totfact> 0.30086788E+04</totfact>
</mgrwt>
</event>
<event>
 7    1  0.1247599E-009  0.9079534E+02  0.7818608E-02  0.1300937E+00
         -3   -1    0    0    0  501 -0.00000000000E+00  0.00000000000E+00  0.13844259615E+02  0.13844628030E+02  0.10100000000E+00 0.  1.
          3   -1    0    0  501    0  0.00000000000E+00 -0.00000000000E+00 -0.14886426002E+03  0.14886429429E+03  0.10100000000E+00 0. -1.
         23    2    1    2    0    0  0.00000000000E+00  0.00000000000E+00 -0.13502000041E+03  0.16270892232E+03  0.90795335183E+02 0.  0.
    9000005    2    3    3    0    0  0.21451266362E+02  0.38085287962E+02 -0.82006048077E+02  0.93998478209E+02  0.14144822257E+02 0.  0.
         22    1    3    3    0    0 -0.21451266362E+02 -0.38085287962E+02 -0.53013952332E+02  0.68710444108E+02  0.00000000000E+00 0.  1.
         22    1    4    4    0    0  0.34199781788E+01  0.71354836667E-01 -0.10382781692E+02  0.10931765544E+02  0.00000000000E+00 0.  1.
         22    1    4    4    0    0  0.18031288183E+02  0.38013933125E+02 -0.71623266385E+02  0.83066712664E+02  0.00000000000E+00 0.  1.
<mgrwt>
<rscale>  0 0.90795335E+02</rscale>
<asrwt>0</asrwt>
<pdfrwt beam="2">  1        3 0.22902224E-01 0.90795335E+02</pdfrwt>
<pdfrwt beam="1">  1       -3 0.21299172E-02 0.90795335E+02</pdfrwt>
<totfact> 0.30895448E+04</totfact>
</mgrwt>
</event>
<event>
 7    1  0.1247599E-009  0.8809621E+02  0.7818608E-02  0.1307529E+00
          3   -1    0    0  501    0  0.00000000000E+00  0.00000000000E+00  0.58191351215E+02  0.58191438866E+02  0.10100000000E+00 0. -1.
         -3   -1    0    0    0  501 -0.00000000000E+00 -0.00000000000E+00 -0.33342143213E+02  0.33342296188E+02  0.10100000000E+00 0.  1.
         23    2    1    2    0    0  0.00000000000E+00  0.00000000000E+00  0.24849208002E+02  0.91533735053E+02  0.88096206017E+02 0.  0.
    9000005    2    3    3    0    0 -0.38021350911E+02  0.21347884845E+02  0.15306714459E+02  0.46897264590E+02  0.79813912324E+01 0.  0.
         22    1    3    3    0    0  0.38021350911E+02 -0.21347884845E+02  0.95424935429E+01  0.44636470464E+02  0.00000000000E+00 0.  1.
         22    1    4    4    0    0 -0.15154007979E+02  0.10346879669E+02  0.26490938105E+01  0.18539675691E+02  0.00000000000E+00 0. -1.
         22    1    4    4    0    0 -0.22867342932E+02  0.11001005175E+02  0.12657620649E+02  0.28357588899E+02  0.00000000000E+00 0. -1.
<mgrwt>
<rscale>  0 0.88096206E+02</rscale>
<asrwt>0</asrwt>
<pdfrwt beam="1">  1        3 0.89525340E-02 0.88096206E+02</pdfrwt>
<pdfrwt beam="2">  1       -3 0.51295790E-02 0.88096206E+02</pdfrwt>
<totfact> 0.38764811E+04</totfact>
</mgrwt>
</event>
<event>
 7    1  0.1247599E-009  0.8581783E+02  0.7818608E-02  0.1313308E+00
         -3   -1    0    0    0  501 -0.00000000000E+00  0.00000000000E+00  0.50268719334E+02  0.50268820798E+02  0.10100000000E+00 0.  1.
          3   -1    0    0  501    0  0.00000000000E+00 -0.00000000000E+00 -0.36626441892E+02  0.36626581149E+02  0.10100000000E+00 0. -1.
         23    2    1    2    0    0  0.71054273576E-14  0.00000000000E+00  0.13642277442E+02  0.86895401947E+02  0.85817825338E+02 0.  0.
    9000005    2    3    3    0    0 -0.39822563200E+02 -0.23358878037E+01  0.21442578435E+02  0.46248906314E+02  0.93746601909E+01 0.  0.
         22    1    3    3    0    0  0.39822563200E+02  0.23358878037E+01 -0.78003009928E+01  0.40646495633E+02  0.00000000000E+00 0. -1.
         22    1    4    4    0    0 -0.39209772169E+02 -0.14624465039E+01  0.22062996664E+02  0.45014673220E+02  0.00000000000E+00 0. -1.
         22    1    4    4    0    0 -0.61279103101E+00 -0.87344129984E+00 -0.62041822913E+00  0.12342330943E+01  0.00000000000E+00 0. -1.
<mgrwt>
<rscale>  0 0.85817825E+02</rscale>
<asrwt>0</asrwt>
<pdfrwt beam="2">  1        3 0.56348557E-02 0.85817825E+02</pdfrwt>
<pdfrwt beam="1">  1       -3 0.77336677E-02 0.85817825E+02</pdfrwt>
<totfact> 0.42041491E+04</totfact>
</mgrwt>
</event>
<event>
 7    1  0.1247599E-009  0.8449730E+02  0.7818608E-02  0.1316752E+00
          3   -1    0    0  501    0  0.00000000000E+00  0.00000000000E+00  0.24332855582E+03  0.24332857678E+03  0.10100000000E+00 0. -1.
         -3   -1    0    0    0  501 -0.00000000000E+00 -0.00000000000E+00 -0.73351792595E+01  0.73358745742E+01  0.10100000000E+00 0.  1.
         23    2    1    2    0    0  0.00000000000E+00  0.00000000000E+00  0.23599337656E+03  0.25066445135E+03  0.84497298139E+02 0.  0.
    9000005    2    3    3    0    0  0.16949721595E+02 -0.37280203447E+02  0.99899616518E+02  0.10854260872E+03  0.11156069938E+02 0.  0.
         22    1    3    3    0    0 -0.16949721595E+02  0.37280203447E+02  0.13609376004E+03  0.14212184263E+03  0.00000000000E+00 0. -1.
         22    1    4    4    0    0  0.47869344055E+00 -0.23974534030E+01  0.16172160376E+02  0.16355907235E+02  0.00000000000E+00 0. -1.
         22    1    4    4    0    0  0.16471028154E+02 -0.34882750044E+02  0.83727456141E+02  0.92186701487E+02  0.00000000000E+00 0. -1.
<mgrwt>
<rscale>  0 0.84497298E+02</rscale>
<asrwt>0</asrwt>
<pdfrwt beam="1">  1        3 0.37435219E-01 0.84497298E+02</pdfrwt>
<pdfrwt beam="2">  1       -3 0.11285442E-02 0.84497298E+02</pdfrwt>
<totfact> 0.31959256E+04</totfact>
</mgrwt>
</event>
<event>
 7    1  0.1247599E-009  0.8225963E+02  0.7818608E-02  0.1322759E+00
          3   -1    0    0  501    0  0.00000000000E+00  0.00000000000E+00  0.25791454566E+01  0.25811222920E+01  0.10100000000E+00 0. -1.
         -3   -1    0    0    0  501 -0.00000000000E+00 -0.00000000000E+00 -0.65564683495E+03  0.65564684272E+03  0.10100000000E+00 0.  1.
         23    2    1    2    0    0  0.00000000000E+00  0.00000000000E+00 -0.65306768949E+03  0.65822796502E+03  0.82259630900E+02 0.  0.
    9000005    2    3    3    0    0  0.18346711636E+02  0.21027342924E+02 -0.56823319383E+03  0.56892151155E+03  0.19931753792E+01 0.  0.
         22    1    3    3    0    0 -0.18346711636E+02 -0.21027342924E+02 -0.84834495654E+02  0.89306453469E+02  0.00000000000E+00 0. -1.
         22    1    4    4    0    0  0.17475079254E+00  0.42826665727E+00 -0.14552424963E+02  0.14559774121E+02  0.00000000000E+00 0. -1.
         22    1    4    4    0    0  0.18171960844E+02  0.20599076266E+02 -0.55368076887E+03  0.55436173743E+03  0.00000000000E+00 0. -1.
<mgrwt>
<rscale>  0 0.82259631E+02</rscale>
<asrwt>0</asrwt>
<pdfrwt beam="1">  1        3 0.39694479E-03 0.82259631E+02</pdfrwt>
<pdfrwt beam="2">  1       -3 0.10086876E+00 0.82259631E+02</pdfrwt>
<totfact> 0.19176740E+04</totfact>
</mgrwt>
</event>
<event>
 7    1  0.1247599E-009  0.8813515E+02  0.7818608E-02  0.1307432E+00
          3   -1    0    0  501    0  0.00000000000E+00  0.00000000000E+00  0.26875603874E+02  0.26875793655E+02  0.10100000000E+00 0. -1.
         -3   -1    0    0    0  501 -0.00000000000E+00 -0.00000000000E+00 -0.72256542391E+02  0.72256612980E+02  0.10100000000E+00 0.  1.
         23    2    1    2    0    0  0.35527136788E-14  0.00000000000E+00 -0.45380938517E+02  0.99132406635E+02  0.88135148860E+02 0.  0.
    9000005    2    3    3    0    0  0.17056904084E+02  0.94328596194E+01  0.20879889186E+02  0.30064222169E+02  0.93792784723E+01 0.  0.
         22    1    3    3    0    0 -0.17056904084E+02 -0.94328596194E+01 -0.66260827703E+02  0.69068184466E+02  0.00000000000E+00 0.  1.
         22    1    4    4    0    0  0.90303366570E+01  0.57960416713E+01  0.48578955033E+01  0.11778804180E+02  0.00000000000E+00 0. -1.
         22    1    4    4    0    0  0.80265674270E+01  0.36368179481E+01  0.16021993683E+02  0.18285417989E+02  0.00000000000E+00 0. -1.
<mgrwt>
<rscale>  0 0.88135149E+02</rscale>
<asrwt>0</asrwt>
<pdfrwt beam="1">  1        3 0.41347283E-02 0.88135149E+02</pdfrwt>
<pdfrwt beam="2">  1       -3 0.11116411E-01 0.88135149E+02</pdfrwt>
<totfact> 0.38085751E+04</totfact>
</mgrwt>
</event>
<event>
 7    1  0.1247599E-009  0.9138356E+02  0.7818608E-02  0.1299535E+00
          3   -1    0    0  501    0  0.00000000000E+00  0.00000000000E+00  0.35529742854E+03  0.35529744290E+03  0.10100000000E+00 0. -1.
         -3   -1    0    0    0  501 -0.00000000000E+00 -0.00000000000E+00 -0.58755828476E+01  0.58764508676E+01  0.10100000000E+00 0.  1.
         23    2    1    2    0    0  0.35527136788E-14 -0.35527136788E-14  0.34942184570E+03  0.36117389377E+03  0.91383561372E+02 0.  0.
    9000005    2    3    3    0    0  0.18943755824E+02 -0.25828154267E+02  0.30224670448E+03  0.30415237689E+03  0.11385893240E+02 0.  0.
         22    1    3    3    0    0 -0.18943755824E+02  0.25828154267E+02  0.47175141220E+02  0.57021516875E+02  0.00000000000E+00 0.  1.
         22    1    4    4    0    0  0.26446472959E+01 -0.92750767625E+01  0.12818073512E+03  0.12854307475E+03  0.00000000000E+00 0.  1.
         22    1    4    4    0    0  0.16299108528E+02 -0.16553077505E+02  0.17406596935E+03  0.17560930215E+03  0.00000000000E+00 0.  1.
<mgrwt>
<rscale>  0 0.91383561E+02</rscale>
<asrwt>0</asrwt>
<pdfrwt beam="1">  1        3 0.54661207E-01 0.91383561E+02</pdfrwt>
<pdfrwt beam="2">  1       -3 0.90400377E-03 0.91383561E+02</pdfrwt>
<totfact> 0.21709956E+04</totfact>
</mgrwt>
</event>
<event>
 7    1  0.1247599E-009  0.9537285E+02  0.7818608E-02  0.1290339E+00
          3   -1    0    0  501    0  0.00000000000E+00  0.00000000000E+00  0.59280077422E+02  0.59280163462E+02  0.10100000000E+00 0. -1.
         -3   -1    0    0    0  501 -0.00000000000E+00 -0.00000000000E+00 -0.38360012399E+02  0.38360145362E+02  0.10100000000E+00 0.  1.
         23    2    1    2    0    0  0.00000000000E+00  0.00000000000E+00  0.20920065023E+02  0.97640308825E+02  0.95372851414E+02 0.  0.
    9000005    2    3    3    0    0 -0.29148185944E+02 -0.18328564606E+02 -0.21964359954E+02  0.42643700475E+02  0.12267805741E+02 0.  0.
         22    1    3    3    0    0  0.29148185944E+02  0.18328564606E+02  0.42884424977E+02  0.54996608349E+02  0.00000000000E+00 0. -1.
         22    1    4    4    0    0 -0.18545030249E+02 -0.13031437587E+02 -0.73513560463E+01  0.23828112562E+02  0.00000000000E+00 0. -1.
         22    1    4    4    0    0 -0.10603155695E+02 -0.52971270193E+01 -0.14613003907E+02  0.18815587914E+02  0.00000000000E+00 0. -1.
<mgrwt>
<rscale>  0 0.95372851E+02</rscale>
<asrwt>0</asrwt>
<pdfrwt beam="1">  1        3 0.91200287E-02 0.95372851E+02</pdfrwt>
<pdfrwt beam="2">  1       -3 0.59015572E-02 0.95372851E+02</pdfrwt>
<totfact> 0.30814979E+04</totfact>
</mgrwt>
</event>
<event>
 7    1  0.1247599E-009  0.8947231E+02  0.7818608E-02  0.1304135E+00
          3   -1    0    0  501    0  0.00000000000E+00  0.00000000000E+00  0.54894295358E+01  0.54903586065E+01  0.10100000000E+00 0. -1.
         -3   -1    0    0    0  501 -0.00000000000E+00 -0.00000000000E+00 -0.36454593822E+03  0.36454595221E+03  0.10100000000E+00 0.  1.
         23    2    1    2    0    0  0.00000000000E+00 -0.35527136788E-14 -0.35905650868E+03  0.37003631082E+03  0.89472313568E+02 0.  0.
    9000005    2    3    3    0    0  0.32254881111E+02  0.28360992701E+02 -0.21632330789E+03  0.22098098595E+03  0.13859991077E+02 0.  0.
         22    1    3    3    0    0 -0.32254881111E+02 -0.28360992701E+02 -0.14273320080E+03  0.14905532487E+03  0.00000000000E+00 0.  1.
         22    1    4    4    0    0  0.95277055656E-01  0.58557610082E+01 -0.30515212592E+02  0.31072129219E+02  0.00000000000E+00 0.  1.
         22    1    4    4    0    0  0.32159604055E+02  0.22505231693E+02 -0.18580809530E+03  0.18990885673E+03  0.00000000000E+00 0.  1.
<mgrwt>
<rscale>  0 0.89472314E+02</rscale>
<asrwt>0</asrwt>
<pdfrwt beam="1">  1        3 0.84460045E-03 0.89472314E+02</pdfrwt>
<pdfrwt beam="2">  1       -3 0.56084044E-01 0.89472314E+02</pdfrwt>
<totfact> 0.22652931E+04</totfact>
</mgrwt>
</event>
<event>
 7    1  0.1247599E-009  0.9217901E+02  0.7818608E-02  0.1297659E+00
         -3   -1    0    0    0  501 -0.00000000000E+00  0.00000000000E+00  0.50944763958E+01  0.50954774798E+01  0.10100000000E+00 0.  1.
          3   -1    0    0  501    0  0.00000000000E+00 -0.00000000000E+00 -0.41692779808E+03  0.41692781031E+03  0.10100000000E+00 0. -1.
         23    2    1    2    0    0 -0.17763568394E-14  0.71054273576E-14 -0.41183332168E+03  0.42202328779E+03  0.92179013828E+02 0.  0.
    9000005    2    3    3    0    0 -0.13017365805E+02  0.44083497134E+02 -0.22101622774E+03  0.22574804770E+03  0.10961679847E+01 0.  0.
         22    1    3    3    0    0  0.13017365805E+02 -0.44083497134E+02 -0.19081709394E+03  0.19627524009E+03  0.00000000000E+00 0.  1.
         22    1    4    4    0    0 -0.10173128736E+02  0.35677730698E+02 -0.17707504479E+03  0.18091977366E+03  0.00000000000E+00 0. -1.
         22    1    4    4    0    0 -0.28442370681E+01  0.84057664362E+01 -0.43941182951E+02  0.44828274036E+02  0.00000000000E+00 0. -1.
<mgrwt>
<rscale>  0 0.92179014E+02</rscale>
<asrwt>0</asrwt>
<pdfrwt beam="2">  1        3 0.64142789E-01 0.92179014E+02</pdfrwt>
<pdfrwt beam="1">  1       -3 0.78384388E-03 0.92179014E+02</pdfrwt>
<totfact> 0.19390617E+04</totfact>
</mgrwt>
</event>
<event>
 7    1  0.1247599E-009  0.9007259E+02  0.7818608E-02  0.1302676E+00
          3   -1    0    0  501    0  0.00000000000E+00  0.00000000000E+00  0.74944035832E+01  0.74950841268E+01  0.10100000000E+00 0. -1.
         -3   -1    0    0    0  501 -0.00000000000E+00 -0.00000000000E+00 -0.27062471375E+03  0.27062473260E+03  0.10100000000E+00 0.  1.
         23    2    1    2    0    0 -0.35527136788E-14  0.71054273576E-14 -0.26313031017E+03  0.27811981672E+03  0.90072594756E+02 0.  0.
    9000005    2    3    3    0    0 -0.23708394170E+02  0.32068286067E+02 -0.19133095261E+03  0.19598815005E+03  0.14606800026E+02 0.  0.
         22    1    3    3    0    0  0.23708394170E+02 -0.32068286067E+02 -0.71799357557E+02  0.82131666676E+02  0.00000000000E+00 0. -1.
         22    1    4    4    0    0 -0.23165051105E+02  0.20672595393E+02 -0.13759149308E+03  0.14105103601E+03  0.00000000000E+00 0.  1.
         22    1    4    4    0    0 -0.54334306535E+00  0.11395690674E+02 -0.53739459534E+02  0.54937114036E+02  0.00000000000E+00 0.  1.
<mgrwt>
<rscale>  0 0.90072595E+02</rscale>
<asrwt>0</asrwt>
<pdfrwt beam="1">  1        3 0.11530392E-02 0.90072595E+02</pdfrwt>
<pdfrwt beam="2">  1       -3 0.41634618E-01 0.90072595E+02</pdfrwt>
<totfact> 0.25723910E+04</totfact>
</mgrwt>
</event>
<event>
 7    1  0.1247599E-009  0.9157234E+02  0.7818608E-02  0.1299088E+00
         -3   -1    0    0    0  501 -0.00000000000E+00  0.00000000000E+00  0.11243289784E+02  0.11243743423E+02  0.10100000000E+00 0.  1.
          3   -1    0    0  501    0  0.00000000000E+00 -0.00000000000E+00 -0.18645127503E+03  0.18645130238E+03  0.10100000000E+00 0. -1.
         23    2    1    2    0    0  0.00000000000E+00  0.00000000000E+00 -0.17520798524E+03  0.19769504581E+03  0.91572337763E+02 0.  0.
    9000005    2    3    3    0    0 -0.42220283940E+02 -0.80565312431E+01 -0.11781725163E+03  0.12599318825E+03  0.12079678526E+02 0.  0.
         22    1    3    3    0    0  0.42220283940E+02  0.80565312431E+01 -0.57390733614E+02  0.71701857552E+02  0.00000000000E+00 0.  1.
         22    1    4    4    0    0 -0.32970036700E+02 -0.89816628785E+01 -0.10280683497E+03  0.10833715385E+03  0.00000000000E+00 0.  1.
         22    1    4    4    0    0 -0.92502472407E+01  0.92513163544E+00 -0.15010416661E+02  0.17656034405E+02  0.00000000000E+00 0.  1.
<mgrwt>
<rscale>  0 0.91572338E+02</rscale>
<asrwt>0</asrwt>
<pdfrwt beam="2">  1        3 0.28684846E-01 0.91572338E+02</pdfrwt>
<pdfrwt beam="1">  1       -3 0.17297740E-02 0.91572338E+02</pdfrwt>
<totfact> 0.28285280E+04</totfact>
</mgrwt>
</event>
<event>
 7    1  0.1247599E-009  0.9000389E+02  0.7818608E-02  0.1302842E+00
         -3   -1    0    0    0  501 -0.00000000000E+00  0.00000000000E+00  0.58079967490E+01  0.58088748684E+01  0.10100000000E+00 0.  1.
          3   -1    0    0  501    0  0.00000000000E+00 -0.00000000000E+00 -0.34866010151E+03  0.34866011614E+03  0.10100000000E+00 0. -1.
         23    2    1    2    0    0  0.00000000000E+00 -0.17763568394E-14 -0.34285210476E+03  0.35446899101E+03  0.90003887953E+02 0.  0.
    9000005    2    3    3    0    0  0.13259493236E+02 -0.96885915586E+01 -0.33610633556E+03  0.33671544574E+03  0.11838058720E+02 0.  0.
         22    1    3    3    0    0 -0.13259493236E+02  0.96885915586E+01 -0.67457692057E+01  0.17753545264E+02  0.00000000000E+00 0.  1.
         22    1    4    4    0    0  0.45970034739E+01 -0.10169914077E+02 -0.15490521792E+03  0.15530674851E+03  0.00000000000E+00 0. -1.
         22    1    4    4    0    0  0.86624897623E+01  0.48132251830E+00 -0.18120111763E+03  0.18140869723E+03  0.00000000000E+00 0. -1.
<mgrwt>
<rscale>  0 0.90003888E+02</rscale>
<asrwt>0</asrwt>
<pdfrwt beam="2">  1        3 0.53640068E-01 0.90003888E+02</pdfrwt>
<pdfrwt beam="1">  1       -3 0.89360691E-03 0.90003888E+02</pdfrwt>
<totfact> 0.22843239E+04</totfact>
</mgrwt>
</event>
<event>
 7    1  0.1247599E-009  0.9257416E+02  0.7818608E-02  0.1296735E+00
          3   -1    0    0  501    0  0.00000000000E+00  0.00000000000E+00  0.57816227466E+03  0.57816228348E+03  0.10100000000E+00 0.  1.
         -3   -1    0    0    0  501 -0.00000000000E+00 -0.00000000000E+00 -0.37049990680E+01  0.37063754658E+01  0.10100000000E+00 0. -1.
         23    2    1    2    0    0  0.00000000000E+00  0.00000000000E+00  0.57445727559E+03  0.58186865895E+03  0.92574158300E+02 0.  0.
    9000005    2    3    3    0    0  0.42892749076E+02 -0.86469644506E+01  0.37872859635E+03  0.38130875818E+03  0.68162640268E+01 0.  0.
         22    1    3    3    0    0 -0.42892749076E+02  0.86469644506E+01  0.19572867924E+03  0.20055990076E+03  0.00000000000E+00 0. -1.
         22    1    4    4    0    0  0.35697120701E+02 -0.51403939504E+01  0.32324462509E+03  0.32525035853E+03  0.00000000000E+00 0. -1.
         22    1    4    4    0    0  0.71956283745E+01 -0.35065705002E+01  0.55483971265E+02  0.56058399653E+02  0.00000000000E+00 0. -1.
<mgrwt>
<rscale>  0 0.92574158E+02</rscale>
<asrwt>0</asrwt>
<pdfrwt beam="1">  1        3 0.88948090E-01 0.92574158E+02</pdfrwt>
<pdfrwt beam="2">  1       -3 0.57010679E-03 0.92574158E+02</pdfrwt>
<totfact> 0.15451208E+04</totfact>
</mgrwt>
</event>
<event>
 7    1  0.1247599E-009  0.9218467E+02  0.7818608E-02  0.1297646E+00
          3   -1    0    0  501    0  0.00000000000E+00  0.00000000000E+00  0.47252773254E+01  0.47263566097E+01  0.10100000000E+00 0. -1.
         -3   -1    0    0    0  501 -0.00000000000E+00 -0.00000000000E+00 -0.44955152345E+03  0.44955153479E+03  0.10100000000E+00 0.  1.
         23    2    1    2    0    0  0.71054273576E-14  0.00000000000E+00 -0.44482624612E+03  0.45427789140E+03  0.92184669975E+02 0.  0.
    9000005    2    3    3    0    0  0.42042036029E+02  0.16850570934E+02 -0.24958863941E+03  0.25385534374E+03  0.98271100600E+01 0.  0.
         22    1    3    3    0    0 -0.42042036029E+02 -0.16850570934E+02 -0.19523760671E+03  0.20042254766E+03  0.00000000000E+00 0.  1.
         22    1    4    4    0    0  0.19703797610E+01  0.26130654487E+01 -0.99999065073E+01  0.10521817219E+02  0.00000000000E+00 0. -1.
         22    1    4    4    0    0  0.40071656268E+02  0.14237505485E+02 -0.23958873290E+03  0.24333352653E+03  0.00000000000E+00 0. -1.
<mgrwt>
<rscale>  0 0.92184670E+02</rscale>
<asrwt>0</asrwt>
<pdfrwt beam="1">  1        3 0.72704999E-03 0.92184670E+02</pdfrwt>
<pdfrwt beam="2">  1       -3 0.69161823E-01 0.92184670E+02</pdfrwt>
<totfact> 0.18503537E+04</totfact>
</mgrwt>
</event>
<event>
 7    1  0.1247599E-009  0.9216987E+02  0.7818608E-02  0.1297681E+00
         -3   -1    0    0    0  501 -0.00000000000E+00  0.00000000000E+00  0.76365909831E+02  0.76365976621E+02  0.10100000000E+00 0.  1.
          3   -1    0    0  501    0  0.00000000000E+00 -0.00000000000E+00 -0.27810943274E+02  0.27811126673E+02  0.10100000000E+00 0. -1.
         23    2    1    2    0    0  0.00000000000E+00  0.00000000000E+00  0.48554966556E+02  0.10417710329E+03  0.92169865321E+02 0.  0.
    9000005    2    3    3    0    0 -0.37494240187E+02  0.19213738715E+02  0.44908023823E+02  0.61888972643E+02  0.62071352909E+01 0.  0.
         22    1    3    3    0    0  0.37494240187E+02 -0.19213738715E+02  0.36469427333E+01  0.42288130650E+02  0.00000000000E+00 0. -1.
         22    1    4    4    0    0 -0.11484904992E+02  0.30846194189E+01  0.10812137055E+02  0.16072343554E+02  0.00000000000E+00 0. -1.
         22    1    4    4    0    0 -0.26009335195E+02  0.16129119296E+02  0.34095886768E+02  0.45816629089E+02  0.00000000000E+00 0. -1.
<mgrwt>
<rscale>  0 0.92169865E+02</rscale>
<asrwt>0</asrwt>
<pdfrwt beam="2">  1        3 0.42786260E-02 0.92169865E+02</pdfrwt>
<pdfrwt beam="1">  1       -3 0.11748620E-01 0.92169865E+02</pdfrwt>
<totfact> 0.33365539E+04</totfact>
</mgrwt>
</event>
<event>
 7    1  0.1247599E-009  0.9022532E+02  0.7818608E-02  0.1302307E+00
          3   -1    0    0  501    0  0.00000000000E+00  0.00000000000E+00  0.57365636767E+01  0.57374527289E+01  0.10100000000E+00 0. -1.
         -3   -1    0    0    0  501 -0.00000000000E+00 -0.00000000000E+00 -0.35474008274E+03  0.35474009712E+03  0.10100000000E+00 0.  1.
         23    2    1    2    0    0  0.00000000000E+00  0.00000000000E+00 -0.34900351906E+03  0.36047754985E+03  0.90225315877E+02 0.  0.
    9000005    2    3    3    0    0 -0.40717325215E+02  0.91193367504E+01 -0.11814902702E+03  0.12588245320E+03  0.12088695624E+02 0.  0.
         22    1    3    3    0    0  0.40717325215E+02 -0.91193367504E+01 -0.23085449204E+03  0.23459509665E+03  0.00000000000E+00 0.  1.
         22    1    4    4    0    0 -0.36518835824E+02  0.11630883449E+02 -0.10023663015E+03  0.10731395456E+03  0.00000000000E+00 0. -1.
         22    1    4    4    0    0 -0.41984893906E+01 -0.25115466986E+01 -0.17912396871E+02  0.18568498638E+02  0.00000000000E+00 0. -1.
<mgrwt>
<rscale>  0 0.90225316E+02</rscale>
<asrwt>0</asrwt>
<pdfrwt beam="1">  1        3 0.88261803E-03 0.90225316E+02</pdfrwt>
<pdfrwt beam="2">  1       -3 0.54575450E-01 0.90225316E+02</pdfrwt>
<totfact> 0.22474980E+04</totfact>
</mgrwt>
</event>
<event>
 7    1  0.1247599E-009  0.9010231E+02  0.7818608E-02  0.1302604E+00
          3   -1    0    0  501    0  0.00000000000E+00  0.00000000000E+00  0.36009529648E+01  0.36023691170E+01  0.10100000000E+00 0. -1.
         -3   -1    0    0    0  501 -0.00000000000E+00 -0.00000000000E+00 -0.56351817272E+03  0.56351818178E+03  0.10100000000E+00 0.  1.
         23    2    1    2    0    0  0.00000000000E+00  0.00000000000E+00 -0.55991721976E+03  0.56712055089E+03  0.90102309967E+02 0.  0.
    9000005    2    3    3    0    0  0.22271092812E+02 -0.10767700259E+02 -0.51568423990E+03  0.51644016562E+03  0.12971678505E+02 0.  0.
         22    1    3    3    0    0 -0.22271092812E+02  0.10767700259E+02 -0.44232979863E+02  0.50680385273E+02  0.00000000000E+00 0. -1.
         22    1    4    4    0    0  0.18290064572E+02 -0.10116313555E+02 -0.30408761303E+03  0.30480508962E+03  0.00000000000E+00 0. -1.
         22    1    4    4    0    0  0.39810282392E+01 -0.65138670438E+00 -0.21159662687E+03  0.21163507600E+03  0.00000000000E+00 0. -1.
<mgrwt>
<rscale>  0 0.90102310E+02</rscale>
<asrwt>0</asrwt>
<pdfrwt beam="1">  1        3 0.55410284E-03 0.90102310E+02</pdfrwt>
<pdfrwt beam="2">  1       -3 0.86695143E-01 0.90102310E+02</pdfrwt>
<totfact> 0.16897140E+04</totfact>
</mgrwt>
</event>
<event>
 7    1  0.1247599E-009  0.9274372E+02  0.7818608E-02  0.1296340E+00
         -3   -1    0    0    0  501 -0.00000000000E+00  0.00000000000E+00  0.13820815253E+02  0.13821184293E+02  0.10100000000E+00 0.  1.
          3   -1    0    0  501    0  0.00000000000E+00 -0.00000000000E+00 -0.15558529306E+03  0.15558532584E+03  0.10100000000E+00 0. -1.
         23    2    1    2    0    0  0.00000000000E+00  0.00000000000E+00 -0.14176447780E+03  0.16940651013E+03  0.92743724900E+02 0.  0.
    9000005    2    3    3    0    0  0.21729129141E+02 -0.11541313087E+02 -0.36213748178E+01  0.29089462474E+02  0.15090576876E+02 0.  0.
         22    1    3    3    0    0 -0.21729129141E+02  0.11541313087E+02 -0.13814310298E+03  0.14031704766E+03  0.00000000000E+00 0. -1.
         22    1    4    4    0    0  0.17989567364E+02 -0.11007317945E+02  0.31615565400E+01  0.21325595467E+02  0.00000000000E+00 0.  1.
         22    1    4    4    0    0  0.37395617771E+01 -0.53399514271E+00 -0.67829313579E+01  0.77638670070E+01  0.00000000000E+00 0.  1.
<mgrwt>
<rscale>  0 0.92743725E+02</rscale>
<asrwt>0</asrwt>
<pdfrwt beam="2">  1        3 0.23936229E-01 0.92743725E+02</pdfrwt>
<pdfrwt beam="1">  1       -3 0.21263103E-02 0.92743725E+02</pdfrwt>
<totfact> 0.28798963E+04</totfact>
</mgrwt>
</event>
<event>
 7    1  0.1247599E-009  0.9276600E+02  0.7818608E-02  0.1296288E+00
          3   -1    0    0  501    0  0.00000000000E+00  0.00000000000E+00  0.15833845821E+03  0.15833849042E+03  0.10100000000E+00 0. -1.
         -3   -1    0    0    0  501 -0.00000000000E+00 -0.00000000000E+00 -0.13587019830E+02  0.13587395220E+02  0.10100000000E+00 0.  1.
         23    2    1    2    0    0  0.00000000000E+00  0.00000000000E+00  0.14475143838E+03  0.17192588564E+03  0.92766002615E+02 0.  0.
    9000005    2    3    3    0    0 -0.39298857470E+02  0.20579769313E+02  0.88977436990E+02  0.10066112342E+03  0.15740088047E+02 0.  0.
         22    1    3    3    0    0  0.39298857470E+02 -0.20579769313E+02  0.55774001391E+02  0.71264762222E+02  0.00000000000E+00 0.  1.
         22    1    4    4    0    0 -0.11581741994E+02  0.43596656542E+01  0.11931949503E+02  0.17190545401E+02  0.00000000000E+00 0.  1.
         22    1    4    4    0    0 -0.27717115476E+02  0.16220103659E+02  0.77045487487E+02  0.83470578021E+02  0.00000000000E+00 0.  1.
<mgrwt>
<rscale>  0 0.92766003E+02</rscale>
<asrwt>0</asrwt>
<pdfrwt beam="1">  1        3 0.24359793E-01 0.92766003E+02</pdfrwt>
<pdfrwt beam="2">  1       -3 0.20903422E-02 0.92766003E+02</pdfrwt>
<totfact> 0.28643815E+04</totfact>
</mgrwt>
</event>
<event>
 7    1  0.1247599E-009  0.8901147E+02  0.7818608E-02  0.1305263E+00
         -3   -1    0    0    0  501 -0.00000000000E+00  0.00000000000E+00  0.37758705049E+03  0.37758706399E+03  0.10100000000E+00 0.  1.
          3   -1    0    0  501    0  0.00000000000E+00 -0.00000000000E+00 -0.52453378431E+01  0.52463101404E+01  0.10100000000E+00 0. -1.
         23    2    1    2    0    0  0.00000000000E+00 -0.88817841970E-15  0.37234171264E+03  0.38283337414E+03  0.89011467674E+02 0.  0.
    9000005    2    3    3    0    0 -0.42415580493E+02 -0.68906981090E+01  0.20856618800E+03  0.21351419134E+03  0.15552875596E+02 0.  0.
         22    1    3    3    0    0  0.42415580493E+02  0.68906981090E+01  0.16377552465E+03  0.16931918279E+03  0.00000000000E+00 0. -1.
         22    1    4    4    0    0 -0.26949636369E+02 -0.91819449339E+01  0.15937711654E+03  0.16190014296E+03  0.00000000000E+00 0.  1.
         22    1    4    4    0    0 -0.15465944124E+02  0.22912468249E+01  0.49189071456E+02  0.51614048382E+02  0.00000000000E+00 0.  1.
<mgrwt>
<rscale>  0 0.89011468E+02</rscale>
<asrwt>0</asrwt>
<pdfrwt beam="2">  1        3 0.80705060E-03 0.89011468E+02</pdfrwt>
<pdfrwt beam="1">  1       -3 0.58090412E-01 0.89011468E+02</pdfrwt>
<totfact> 0.22530149E+04</totfact>
</mgrwt>
</event>
<event>
 7    1  0.1247599E-009  0.9314549E+02  0.7818608E-02  0.1295408E+00
         -3   -1    0    0    0  501 -0.00000000000E+00  0.00000000000E+00  0.26722825518E+03  0.26722827427E+03  0.10100000000E+00 0.  1.
          3   -1    0    0  501    0  0.00000000000E+00 -0.00000000000E+00 -0.81163999326E+01  0.81170283272E+01  0.10100000000E+00 0. -1.
         23    2    1    2    0    0  0.00000000000E+00  0.00000000000E+00  0.25911185525E+03  0.27534530260E+03  0.93145489053E+02 0.  0.
    9000005    2    3    3    0    0 -0.21991095441E+02 -0.33572689586E+02  0.19917955369E+03  0.20321615083E+03  0.36845059107E+01 0.  0.
         22    1    3    3    0    0  0.21991095441E+02  0.33572689586E+02  0.59932301557E+02  0.72129151767E+02  0.00000000000E+00 0. -1.
         22    1    4    4    0    0 -0.91579886700E+01 -0.12349539044E+02  0.68543521104E+02  0.70246666515E+02  0.00000000000E+00 0.  1.
         22    1    4    4    0    0 -0.12833106771E+02 -0.21223150541E+02  0.13063603259E+03  0.13296948432E+03  0.00000000000E+00 0.  1.
<mgrwt>
<rscale>  0 0.93145489E+02</rscale>
<asrwt>0</asrwt>
<pdfrwt beam="2">  1        3 0.12487269E-02 0.93145489E+02</pdfrwt>
<pdfrwt beam="1">  1       -3 0.41112085E-01 0.93145489E+02</pdfrwt>
<totfact> 0.23612922E+04</totfact>
</mgrwt>
</event>
<event>
 7    1  0.1247599E-009  0.9145533E+02  0.7818608E-02  0.1299365E+00
         -3   -1    0    0    0  501 -0.00000000000E+00  0.00000000000E+00  0.33331778920E+03  0.33331780450E+03  0.10100000000E+00 0.  1.
          3   -1    0    0  501    0  0.00000000000E+00 -0.00000000000E+00 -0.62729286361E+01  0.62737416805E+01  0.10100000000E+00 0. -1.
         23    2    1    2    0    0  0.00000000000E+00  0.00000000000E+00  0.32704486056E+03  0.33959154618E+03  0.91455330175E+02 0.  0.
    9000005    2    3    3    0    0 -0.43265121687E+02  0.50577296090E+01  0.13330519913E+03  0.14101534470E+03  0.14751269167E+02 0.  0.
         22    1    3    3    0    0  0.43265121687E+02 -0.50577296090E+01  0.19373966143E+03  0.19857620148E+03  0.00000000000E+00 0.  1.
         22    1    4    4    0    0 -0.32921250003E+02  0.46556021091E+01  0.78660814424E+02  0.85399104554E+02  0.00000000000E+00 0. -1.
         22    1    4    4    0    0 -0.10343871684E+02  0.40212749992E+00  0.54644384708E+02  0.55616240146E+02  0.00000000000E+00 0. -1.
<mgrwt>
<rscale>  0 0.91455330E+02</rscale>
<asrwt>0</asrwt>
<pdfrwt beam="2">  1        3 0.96512956E-03 0.91455330E+02</pdfrwt>
<pdfrwt beam="1">  1       -3 0.51279729E-01 0.91455330E+02</pdfrwt>
<totfact> 0.22381715E+04</totfact>
</mgrwt>
</event>
<event>
 7    1  0.1247599E-009  0.9121203E+02  0.7818608E-02  0.1299943E+00
          3   -1    0    0  501    0  0.00000000000E+00  0.00000000000E+00  0.93047280594E+01  0.93052762055E+01  0.10100000000E+00 0. -1.
         -3   -1    0    0    0  501 -0.00000000000E+00 -0.00000000000E+00 -0.22352531188E+03  0.22352533470E+03  0.10100000000E+00 0.  1.
         23    2    1    2    0    0  0.00000000000E+00  0.00000000000E+00 -0.21422058382E+03  0.23283061090E+03  0.91212032328E+02 0.  0.
    9000005    2    3    3    0    0  0.44258381369E+01 -0.42754468567E+02 -0.14461520386E+03  0.15102326682E+03  0.68510809106E+01 0.  0.
         22    1    3    3    0    0 -0.44258381369E+01  0.42754468567E+02 -0.69605379961E+02  0.81807344079E+02  0.00000000000E+00 0.  1.
         22    1    4    4    0    0 -0.39765183203E+00 -0.36760065639E+01 -0.19878829161E+02  0.20219767557E+02  0.00000000000E+00 0.  1.
         22    1    4    4    0    0  0.48234899689E+01 -0.39078462003E+02 -0.12473637470E+03  0.13080349927E+03  0.00000000000E+00 0.  1.
<mgrwt>
<rscale>  0 0.91212032E+02</rscale>
<asrwt>0</asrwt>
<pdfrwt beam="1">  1        3 0.14315407E-02 0.91212032E+02</pdfrwt>
<pdfrwt beam="2">  1       -3 0.34388549E-01 0.91212032E+02</pdfrwt>
<totfact> 0.26854539E+04</totfact>
</mgrwt>
</event>
<event>
 7    1  0.1247599E-009  0.8742022E+02  0.7818608E-02  0.1309222E+00
          3   -1    0    0  501    0  0.00000000000E+00  0.00000000000E+00  0.36927895418E+02  0.36928033538E+02  0.10100000000E+00 0. -1.
         -3   -1    0    0    0  501 -0.00000000000E+00 -0.00000000000E+00 -0.51737673245E+02  0.51737771829E+02  0.10100000000E+00 0.  1.
         23    2    1    2    0    0  0.00000000000E+00  0.00000000000E+00 -0.14809777827E+02  0.88665805367E+02  0.87420223759E+02 0.  0.
    9000005    2    3    3    0    0 -0.28308849042E+02 -0.62046928595E+01  0.24605851539E+02  0.39742590163E+02  0.11581726785E+02 0.  0.
         22    1    3    3    0    0  0.28308849042E+02  0.62046928595E+01 -0.39415629366E+02  0.48923215204E+02  0.00000000000E+00 0.  1.
         22    1    4    4    0    0 -0.45054658796E+01 -0.29375286208E+01  0.10716041141E+02  0.11990072348E+02  0.00000000000E+00 0. -1.
         22    1    4    4    0    0 -0.23803383162E+02 -0.32671642388E+01  0.13889810398E+02  0.27752517814E+02  0.00000000000E+00 0. -1.
<mgrwt>
<rscale>  0 0.87420224E+02</rscale>
<asrwt>0</asrwt>
<pdfrwt beam="1">  1        3 0.56812329E-02 0.87420224E+02</pdfrwt>
<pdfrwt beam="2">  1       -3 0.79596602E-02 0.87420224E+02</pdfrwt>
<totfact> 0.39832766E+04</totfact>
</mgrwt>
</event>
<event>
 7    1  0.1247599E-009  0.8192130E+02  0.7818608E-02  0.1323686E+00
          3   -1    0    0  501    0  0.00000000000E+00  0.00000000000E+00  0.99369205380E+02  0.99369256709E+02  0.10100000000E+00 0. -1.
         -3   -1    0    0    0  501 -0.00000000000E+00 -0.00000000000E+00 -0.16884045744E+02  0.16884347831E+02  0.10100000000E+00 0.  1.
         23    2    1    2    0    0  0.00000000000E+00  0.00000000000E+00  0.82485159637E+02  0.11625360454E+03  0.81921297648E+02 0.  0.
    9000005    2    3    3    0    0 -0.99890528742E+01 -0.12310115402E+02  0.94790072397E+02  0.96185445766E+02  0.38938456296E+01 0.  0.
         22    1    3    3    0    0  0.99890528742E+01  0.12310115402E+02 -0.12304912760E+02  0.20068158774E+02  0.00000000000E+00 0.  1.
         22    1    4    4    0    0 -0.10017639321E+02 -0.11049007347E+02  0.83123152225E+02  0.84450530470E+02  0.00000000000E+00 0. -1.
         22    1    4    4    0    0  0.28586446961E-01 -0.12611080552E+01  0.11666920172E+02  0.11734915296E+02  0.00000000000E+00 0. -1.
<mgrwt>
<rscale>  0 0.81921298E+02</rscale>
<asrwt>0</asrwt>
<pdfrwt beam="1">  1        3 0.15287597E-01 0.81921298E+02</pdfrwt>
<pdfrwt beam="2">  1       -3 0.25975727E-02 0.81921298E+02</pdfrwt>
<totfact> 0.44713879E+04</totfact>
</mgrwt>
</event>
<event>
 7    1  0.1247599E-009  0.8589671E+02  0.7818608E-02  0.1313104E+00
         -3   -1    0    0    0  501 -0.00000000000E+00  0.00000000000E+00  0.41609602439E+02  0.41609725018E+02  0.10100000000E+00 0.  1.
          3   -1    0    0  501    0  0.00000000000E+00 -0.00000000000E+00 -0.44329931266E+02  0.44330046324E+02  0.10100000000E+00 0. -1.
         23    2    1    2    0    0  0.00000000000E+00  0.00000000000E+00 -0.27203288275E+01  0.85939771342E+02  0.85896706045E+02 0.  0.
    9000005    2    3    3    0    0 -0.29543655611E+02 -0.20372454487E+02 -0.23486560954E+02  0.44477729842E+02  0.11780722294E+02 0.  0.
         22    1    3    3    0    0  0.29543655611E+02  0.20372454487E+02  0.20766232126E+02  0.41462041501E+02  0.00000000000E+00 0.  1.
         22    1    4    4    0    0 -0.27667727760E+02 -0.18749695134E+02 -0.24849104830E+02  0.41647715878E+02  0.00000000000E+00 0. -1.
         22    1    4    4    0    0 -0.18759278506E+01 -0.16227593530E+01  0.13625438762E+01  0.28300139634E+01  0.00000000000E+00 0. -1.
<mgrwt>
<rscale>  0 0.85896706E+02</rscale>
<asrwt>0</asrwt>
<pdfrwt beam="2">  1        3 0.68200077E-02 0.85896706E+02</pdfrwt>
<pdfrwt beam="1">  1       -3 0.64014956E-02 0.85896706E+02</pdfrwt>
<totfact> 0.42026419E+04</totfact>
</mgrwt>
</event>
<event>
 7    1  0.1247599E-009  0.8643908E+02  0.7818608E-02  0.1311712E+00
         -3   -1    0    0    0  501 -0.00000000000E+00  0.00000000000E+00  0.11957211011E+03  0.11957215276E+03  0.10100000000E+00 0.  1.
          3   -1    0    0  501    0  0.00000000000E+00 -0.00000000000E+00 -0.15621565155E+02  0.15621891656E+02  0.10100000000E+00 0. -1.
         23    2    1    2    0    0  0.00000000000E+00  0.00000000000E+00  0.10395054495E+03  0.13519404442E+03  0.86439075946E+02 0.  0.
    9000005    2    3    3    0    0 -0.40782676215E+02  0.87364080130E+00  0.36252811604E+02  0.56156249485E+02  0.13238885132E+02 0.  0.
         22    1    3    3    0    0  0.40782676215E+02 -0.87364080130E+00  0.67697733346E+02  0.79037794932E+02  0.00000000000E+00 0.  1.
         22    1    4    4    0    0 -0.14192544215E+02 -0.44706376604E+01  0.18496596211E+02  0.23738976047E+02  0.00000000000E+00 0. -1.
         22    1    4    4    0    0 -0.26590132000E+02  0.53442784617E+01  0.17756215393E+02  0.32417273438E+02  0.00000000000E+00 0. -1.
<mgrwt>
<rscale>  0 0.86439076E+02</rscale>
<asrwt>0</asrwt>
<pdfrwt beam="2">  1        3 0.24033461E-02 0.86439076E+02</pdfrwt>
<pdfrwt beam="1">  1       -3 0.18395738E-01 0.86439076E+02</pdfrwt>
<totfact> 0.37233750E+04</totfact>
</mgrwt>
</event>
<event>
 7    1  0.1247599E-009  0.9455371E+02  0.7818608E-02  0.1292184E+00
         -3   -1    0    0    0  501 -0.00000000000E+00  0.00000000000E+00  0.19536749857E+02  0.19537010928E+02  0.10100000000E+00 0.  1.
          3   -1    0    0  501    0  0.00000000000E+00 -0.00000000000E+00 -0.11440391535E+03  0.11440395993E+03  0.10100000000E+00 0. -1.
         23    2    1    2    0    0  0.00000000000E+00 -0.35527136788E-14 -0.94867165489E+02  0.13394097086E+03  0.94553712704E+02 0.  0.
    9000005    2    3    3    0    0  0.56763591592E+01  0.27841035883E+02  0.34088630611E+01  0.31639836357E+02  0.13494982958E+02 0.  0.
         22    1    3    3    0    0 -0.56763591592E+01 -0.27841035883E+02 -0.98276028550E+02  0.10230113450E+03  0.00000000000E+00 0. -1.
         22    1    4    4    0    0  0.88019809674E+01  0.14756065365E+02  0.54660295070E+01  0.18030358082E+02  0.00000000000E+00 0.  1.
         22    1    4    4    0    0 -0.31256218082E+01  0.13084970518E+02 -0.20571664458E+01  0.13609478275E+02  0.00000000000E+00 0.  1.
<mgrwt>
<rscale>  0 0.94553713E+02</rscale>
<asrwt>0</asrwt>
<pdfrwt beam="2">  1        3 0.17600625E-01 0.94553713E+02</pdfrwt>
<pdfrwt beam="1">  1       -3 0.30056774E-02 0.94553713E+02</pdfrwt>
<totfact> 0.29272761E+04</totfact>
</mgrwt>
</event>
<event>
 7    1  0.1247599E-009  0.8944640E+02  0.7818608E-02  0.1304198E+00
          3   -1    0    0  501    0  0.00000000000E+00  0.00000000000E+00  0.20815843462E+03  0.20815845912E+03  0.10100000000E+00 0. -1.
         -3   -1    0    0    0  501 -0.00000000000E+00 -0.00000000000E+00 -0.96085670151E+01  0.96090978288E+01  0.10100000000E+00 0.  1.
         23    2    1    2    0    0 -0.17763568394E-14  0.35527136788E-14  0.19854986761E+03  0.21776755695E+03  0.89446402582E+02 0.  0.
    9000005    2    3    3    0    0 -0.14498631018E+02  0.26357815791E+02  0.17979481133E+03  0.18231763607E+03  0.29328289913E+01 0.  0.
         22    1    3    3    0    0  0.14498631018E+02 -0.26357815791E+02  0.18755056274E+02  0.35449920882E+02  0.00000000000E+00 0.  1.
         22    1    4    4    0    0 -0.13548931119E+02  0.25416217895E+02  0.17421495538E+03  0.17657975066E+03  0.00000000000E+00 0.  1.
         22    1    4    4    0    0 -0.94969989908E+00  0.94159789626E+00  0.55798559540E+01  0.57378854088E+01  0.00000000000E+00 0.  1.
<mgrwt>
<rscale>  0 0.89446403E+02</rscale>
<asrwt>0</asrwt>
<pdfrwt beam="1">  1        3 0.32024419E-01 0.89446403E+02</pdfrwt>
<pdfrwt beam="2">  1       -3 0.14782837E-02 0.89446403E+02</pdfrwt>
<totfact> 0.29064743E+04</totfact>
</mgrwt>
</event>
<event>
 7    1  0.1247599E-009  0.9155563E+02  0.7818608E-02  0.1299128E+00
          3   -1    0    0  501    0  0.00000000000E+00  0.00000000000E+00  0.38695640189E+02  0.38695771999E+02  0.10100000000E+00 0. -1.
         -3   -1    0    0    0  501 -0.00000000000E+00 -0.00000000000E+00 -0.54155917610E+02  0.54156011792E+02  0.10100000000E+00 0.  1.
         23    2    1    2    0    0  0.00000000000E+00  0.00000000000E+00 -0.15460277421E+02  0.92851783791E+02  0.91555631040E+02 0.  0.
    9000005    2    3    3    0    0  0.22912683797E+02  0.11391036696E+02  0.30070149784E+02  0.40623758773E+02  0.95566245617E+01 0.  0.
         22    1    3    3    0    0 -0.22912683797E+02 -0.11391036696E+02 -0.45530427205E+02  0.52228025018E+02  0.00000000000E+00 0.  1.
         22    1    4    4    0    0  0.33138331940E+01  0.18592298617E+00  0.95694980666E+01  0.10128738867E+02  0.00000000000E+00 0.  1.
         22    1    4    4    0    0  0.19598850603E+02  0.11205113709E+02  0.20500651717E+02  0.30495019905E+02  0.00000000000E+00 0.  1.
<mgrwt>
<rscale>  0 0.91555631E+02</rscale>
<asrwt>0</asrwt>
<pdfrwt beam="1">  1        3 0.59531928E-02 0.91555631E+02</pdfrwt>
<pdfrwt beam="2">  1       -3 0.83316971E-02 0.91555631E+02</pdfrwt>
<totfact> 0.34814834E+04</totfact>
</mgrwt>
</event>
<event>
 7    1  0.1247599E-009  0.9190682E+02  0.7818608E-02  0.1298299E+00
         -3   -1    0    0    0  501 -0.00000000000E+00  0.00000000000E+00  0.96213635477E+01  0.96218936555E+01  0.10100000000E+00 0.  1.
          3   -1    0    0  501    0  0.00000000000E+00 -0.00000000000E+00 -0.21947540877E+03  0.21947543201E+03  0.10100000000E+00 0. -1.
         23    2    1    2    0    0  0.00000000000E+00  0.11102230246E-15 -0.20985404522E+03  0.22909732567E+03  0.91906824179E+02 0.  0.
    9000005    2    3    3    0    0  0.35651950367E+02 -0.59745751880E+00 -0.34117999933E+02  0.49780354537E+02  0.65289553536E+01 0.  0.
         22    1    3    3    0    0 -0.35651950367E+02  0.59745751880E+00 -0.17573604529E+03  0.17931697113E+03  0.00000000000E+00 0. -1.
         22    1    4    4    0    0  0.21186835982E+01  0.11425740988E+01 -0.96553643886E+00  0.25935605594E+01  0.00000000000E+00 0.  1.
         22    1    4    4    0    0  0.33533266768E+02 -0.17400316176E+01 -0.33152463494E+02  0.47186793978E+02  0.00000000000E+00 0.  1.
<mgrwt>
<rscale>  0 0.91906824E+02</rscale>
<asrwt>0</asrwt>
<pdfrwt beam="2">  1        3 0.33765486E-01 0.91906824E+02</pdfrwt>
<pdfrwt beam="1">  1       -3 0.14802525E-02 0.91906824E+02</pdfrwt>
<totfact> 0.26484925E+04</totfact>
</mgrwt>
</event>
<event>
 7    1  0.1247599E-009  0.9337380E+02  0.7818608E-02  0.1294881E+00
          3   -1    0    0  501    0  0.00000000000E+00  0.00000000000E+00  0.28998103958E+02  0.28998279848E+02  0.10100000000E+00 0. -1.
         -3   -1    0    0    0  501 -0.00000000000E+00 -0.00000000000E+00 -0.75165391026E+02  0.75165458883E+02  0.10100000000E+00 0.  1.
         23    2    1    2    0    0  0.00000000000E+00  0.00000000000E+00 -0.46167287069E+02  0.10416373873E+03  0.93373797562E+02 0.  0.
    9000005    2    3    3    0    0 -0.32393822467E+01 -0.27023113122E+02 -0.64884313951E+02  0.71132400044E+02  0.10445185441E+02 0.  0.
         22    1    3    3    0    0  0.32393822467E+01  0.27023113122E+02  0.18717026883E+02  0.33031338687E+02  0.00000000000E+00 0. -1.
         22    1    4    4    0    0 -0.51767344385E+00 -0.45362271901E+01 -0.36575096386E+01  0.58500187752E+01  0.00000000000E+00 0. -1.
         22    1    4    4    0    0 -0.27217088028E+01 -0.22486885932E+02 -0.61226804313E+02  0.65282381269E+02  0.00000000000E+00 0. -1.
<mgrwt>
<rscale>  0 0.93373798E+02</rscale>
<asrwt>0</asrwt>
<pdfrwt beam="1">  1        3 0.44612656E-02 0.93373798E+02</pdfrwt>
<pdfrwt beam="2">  1       -3 0.11563925E-01 0.93373798E+02</pdfrwt>
<totfact> 0.32204702E+04</totfact>
</mgrwt>
</event>
<event>
 7    1  0.1247599E-009  0.1262387E+03  0.7818608E-02  0.1233146E+00
          3   -1    0    0  501    0  0.00000000000E+00  0.00000000000E+00  0.32020995512E+01  0.32036920163E+01  0.10100000000E+00 0. -1.
         -3   -1    0    0    0  501 -0.00000000000E+00 -0.00000000000E+00 -0.12438888436E+04  0.12438888477E+04  0.10100000000E+00 0.  1.
         23    2    1    2    0    0  0.00000000000E+00 -0.71054273576E-14 -0.12406867440E+04  0.12470925397E+04  0.12623868567E+03 0.  0.
    9000005    2    3    3    0    0  0.18280447240E+02  0.38134559880E+02 -0.10831031735E+04  0.10839331050E+04  0.31737053941E+01 0.  0.
         22    1    3    3    0    0 -0.18280447240E+02 -0.38134559880E+02 -0.15758357057E+03  0.16315943467E+03  0.00000000000E+00 0. -1.
         22    1    4    4    0    0  0.39098692040E+01  0.10749219682E+02 -0.27112973246E+03  0.27137089863E+03  0.00000000000E+00 0.  1.
         22    1    4    4    0    0  0.14370578036E+02  0.27385340198E+02 -0.81197344101E+03  0.81256220641E+03  0.00000000000E+00 0.  1.
<mgrwt>
<rscale>  0 0.12623869E+03</rscale>
<asrwt>0</asrwt>
<pdfrwt beam="1">  1        3 0.49275451E-03 0.12623869E+03</pdfrwt>
<pdfrwt beam="2">  1       -3 0.19136725E+00 0.12623869E+03</pdfrwt>
<totfact> 0.32245186E+03</totfact>
</mgrwt>
</event>
<event>
 7    1  0.1247599E-009  0.8287137E+02  0.7818608E-02  0.1321095E+00
         -3   -1    0    0    0  501 -0.00000000000E+00  0.00000000000E+00  0.12193292229E+02  0.12193710526E+02  0.10100000000E+00 0.  1.
          3   -1    0    0  501    0  0.00000000000E+00 -0.00000000000E+00 -0.14080537761E+03  0.14080541384E+03  0.10100000000E+00 0. -1.
         23    2    1    2    0    0  0.00000000000E+00 -0.17763568394E-14 -0.12861208538E+03  0.15299912436E+03  0.82871367486E+02 0.  0.
    9000005    2    3    3    0    0 -0.34168202085E+02  0.15011693869E+02 -0.36986556640E+02  0.54064527259E+02  0.12733842669E+02 0.  0.
         22    1    3    3    0    0  0.34168202085E+02 -0.15011693869E+02 -0.91625528745E+02  0.98934597105E+02  0.00000000000E+00 0. -1.
         22    1    4    4    0    0 -0.34815994311E+02  0.14091178489E+02 -0.37260423444E+02  0.52906085910E+02  0.00000000000E+00 0. -1.
         22    1    4    4    0    0  0.64779222623E+00  0.92051537983E+00  0.27386680399E+00  0.11584413490E+01  0.00000000000E+00 0. -1.
<mgrwt>
<rscale>  0 0.82871367E+02</rscale>
<asrwt>0</asrwt>
<pdfrwt beam="2">  1        3 0.21662400E-01 0.82871367E+02</pdfrwt>
<pdfrwt beam="1">  1       -3 0.18759262E-02 0.82871367E+02</pdfrwt>
<totfact> 0.40237866E+04</totfact>
</mgrwt>
</event>
<event>
 7    1  0.1247599E-009  0.9378193E+02  0.7818608E-02  0.1293943E+00
         -3   -1    0    0    0  501 -0.00000000000E+00  0.00000000000E+00  0.51014424837E+01  0.51024422010E+01  0.10100000000E+00 0.  1.
          3   -1    0    0  501    0  0.00000000000E+00 -0.00000000000E+00 -0.43096477481E+03  0.43096478665E+03  0.10100000000E+00 0. -1.
         23    2    1    2    0    0  0.35527136788E-14  0.00000000000E+00 -0.42586333233E+03  0.43606722885E+03  0.93781929248E+02 0.  0.
    9000005    2    3    3    0    0 -0.29955360934E+02  0.74187707305E+01 -0.37691150957E+03  0.37819977030E+03  0.45186721944E+01 0.  0.
         22    1    3    3    0    0  0.29955360934E+02 -0.74187707305E+01 -0.48951822759E+02  0.57867458552E+02  0.00000000000E+00 0.  1.
         22    1    4    4    0    0 -0.22282989410E+02  0.41071769960E+01 -0.25663489564E+03  0.25763320861E+03  0.00000000000E+00 0. -1.
         22    1    4    4    0    0 -0.76723715238E+01  0.33115937345E+01 -0.12027661393E+03  0.12056656168E+03  0.00000000000E+00 0. -1.
<mgrwt>
<rscale>  0 0.93781929E+02</rscale>
<asrwt>0</asrwt>
<pdfrwt beam="2">  1        3 0.66302322E-01 0.93781929E+02</pdfrwt>
<pdfrwt beam="1">  1       -3 0.78491546E-03 0.93781929E+02</pdfrwt>
<totfact> 0.18147260E+04</totfact>
</mgrwt>
</event>
<event>
 7    1  0.1538529E-009  0.8530459E+02  0.7818608E-02  0.1314638E+00
         -3   -1    0    0    0  501 -0.00000000000E+00  0.00000000000E+00  0.29589374915E+02  0.29589547290E+02  0.10100000000E+00 0.  1.
          3   -1    0    0  501    0  0.00000000000E+00 -0.00000000000E+00 -0.61481760132E+02  0.61481843091E+02  0.10100000000E+00 0. -1.
         23    2    1    2    0    0  0.00000000000E+00  0.35527136788E-14 -0.31892385217E+02  0.91071390382E+02  0.85304594901E+02 0.  0.
    9000005    2    3    3    0    0 -0.67984579453E+01 -0.30409415974E+02  0.13107859543E+02  0.36335902453E+02  0.13324046495E+02 0.  0.
         22    1    3    3    0    0  0.67984579453E+01  0.30409415974E+02 -0.45000244760E+02  0.54735487928E+02  0.00000000000E+00 0. -1.
         22    1    4    4    0    0 -0.22252580065E+00 -0.22743618046E+02  0.13076900020E+02  0.26235986615E+02  0.00000000000E+00 0.  1.
         22    1    4    4    0    0 -0.65759321446E+01 -0.76657979280E+01  0.30959522835E-01  0.10099915838E+02  0.00000000000E+00 0.  1.
<mgrwt>
<rscale>  0 0.85304595E+02</rscale>
<asrwt>0</asrwt>
<pdfrwt beam="2">  1        3 0.94587519E-02 0.85304595E+02</pdfrwt>
<pdfrwt beam="1">  1       -3 0.45522312E-02 0.85304595E+02</pdfrwt>
<totfact> 0.42334877E+04</totfact>
</mgrwt>
</event>
<event>
 7    1  0.1247599E-009  0.7971212E+02  0.7818608E-02  0.1329870E+00
          3   -1    0    0  501    0  0.00000000000E+00  0.00000000000E+00  0.74624161411E+02  0.74624229760E+02  0.10100000000E+00 0. -1.
         -3   -1    0    0    0  501 -0.00000000000E+00 -0.00000000000E+00 -0.21286545976E+02  0.21286785586E+02  0.10100000000E+00 0.  1.
         23    2    1    2    0    0  0.00000000000E+00  0.00000000000E+00  0.53337615434E+02  0.95911015346E+02  0.79712117301E+02 0.  0.
    9000005    2    3    3    0    0  0.15768429948E+02  0.40646135179E+00  0.70287869162E+02  0.72756756660E+02  0.10215306868E+02 0.  0.
         22    1    3    3    0    0 -0.15768429948E+02 -0.40646135179E+00 -0.16950253728E+02  0.23154258686E+02  0.00000000000E+00 0.  1.
         22    1    4    4    0    0 -0.68230151165E+00  0.16426228674E+01  0.13643877841E+02  0.13759329481E+02  0.00000000000E+00 0.  1.
         22    1    4    4    0    0  0.16450731460E+02 -0.12361615156E+01  0.56643991321E+02  0.58997427178E+02  0.00000000000E+00 0.  1.
<mgrwt>
<rscale>  0 0.79712117E+02</rscale>
<asrwt>0</asrwt>
<pdfrwt beam="1">  1        3 0.11480664E-01 0.79712117E+02</pdfrwt>
<pdfrwt beam="2">  1       -3 0.32748769E-02 0.79712117E+02</pdfrwt>
<totfact> 0.50263292E+04</totfact>
</mgrwt>
</event>
<event>
 7    1  0.1247599E-009  0.9101221E+02  0.7818608E-02  0.1300419E+00
         -3   -1    0    0    0  501 -0.00000000000E+00  0.00000000000E+00  0.87845463501E+01  0.87851269528E+01  0.10100000000E+00 0.  1.
          3   -1    0    0  501    0  0.00000000000E+00 -0.00000000000E+00 -0.23572438297E+03  0.23572440460E+03  0.10100000000E+00 0. -1.
         23    2    1    2    0    0  0.00000000000E+00  0.71054273576E-14 -0.22693983662E+03  0.24450953156E+03  0.91012205658E+02 0.  0.
    9000005    2    3    3    0    0  0.99558311532E+01  0.43749893289E+02 -0.12968031300E+03  0.13739937017E+03  0.69592821847E+01 0.  0.
         22    1    3    3    0    0 -0.99558311532E+01 -0.43749893289E+02 -0.97259523620E+02  0.10711016138E+03  0.00000000000E+00 0. -1.
         22    1    4    4    0    0  0.13508219042E+01  0.33679049635E+01 -0.60287820163E+01  0.70365983444E+01  0.00000000000E+00 0.  1.
         22    1    4    4    0    0  0.86050092490E+01  0.40381988326E+02 -0.12365153098E+03  0.13036277183E+03  0.00000000000E+00 0.  1.
<mgrwt>
<rscale>  0 0.91012206E+02</rscale>
<asrwt>0</asrwt>
<pdfrwt beam="2">  1        3 0.36265331E-01 0.91012206E+02</pdfrwt>
<pdfrwt beam="1">  1       -3 0.13515152E-02 0.91012206E+02</pdfrwt>
<totfact> 0.26478210E+04</totfact>
</mgrwt>
</event>
<event>
 7    1  0.1247599E-009  0.9095339E+02  0.7818608E-02  0.1300559E+00
         -3   -1    0    0    0  501 -0.00000000000E+00  0.00000000000E+00  0.13892118386E+02  0.13892485531E+02  0.10100000000E+00 0.  1.
          3   -1    0    0  501    0  0.00000000000E+00 -0.00000000000E+00 -0.14886838114E+03  0.14886841541E+03  0.10100000000E+00 0. -1.
         23    2    1    2    0    0  0.71054273576E-14 -0.17763568394E-14 -0.13497626276E+03  0.16276090094E+03  0.90953391172E+02 0.  0.
    9000005    2    3    3    0    0  0.41697035239E+02 -0.10639718784E+02 -0.45623936086E+02  0.63585880669E+02  0.10477323748E+02 0.  0.
         22    1    3    3    0    0 -0.41697035239E+02  0.10639718784E+02 -0.89352326672E+02  0.99175020268E+02  0.00000000000E+00 0. -1.
         22    1    4    4    0    0  0.41683666444E+02 -0.11229780509E+02 -0.43130600489E+02  0.61023640640E+02  0.00000000000E+00 0.  1.
         22    1    4    4    0    0  0.13368795077E-01  0.59006172422E+00 -0.24933355975E+01  0.25622400287E+01  0.00000000000E+00 0.  1.
<mgrwt>
<rscale>  0 0.90953391E+02</rscale>
<asrwt>0</asrwt>
<pdfrwt beam="2">  1        3 0.22902858E-01 0.90953391E+02</pdfrwt>
<pdfrwt beam="1">  1       -3 0.21372800E-02 0.90953391E+02</pdfrwt>
<totfact> 0.30747660E+04</totfact>
</mgrwt>
</event>
<event>
 7    1  0.1265547E-009  0.9357612E+02  0.7818608E-02  0.1294416E+00
          3   -1    0    0  501    0  0.00000000000E+00  0.00000000000E+00  0.84103211493E+02  0.84103272139E+02  0.10100000000E+00 0. -1.
         -3   -1    0    0    0  501 -0.00000000000E+00 -0.00000000000E+00 -0.26028832786E+02  0.26029028741E+02  0.10100000000E+00 0.  1.
         23    2    1    2    0    0  0.00000000000E+00  0.00000000000E+00  0.58074378708E+02  0.11013230088E+03  0.93576120003E+02 0.  0.
    9000005    2    3    3    0    0 -0.81579627042E+01  0.67713100358E+01  0.82348455158E+02  0.83643930175E+02  0.10130942358E+02 0.  0.
         22    1    3    3    0    0  0.81579627042E+01 -0.67713100358E+01 -0.24274076450E+02  0.26488370705E+02  0.00000000000E+00 0.  1.
         22    1    4    4    0    0 -0.31855214831E+01 -0.20547270950E+01  0.36128745649E+02  0.36327065843E+02  0.00000000000E+00 0.  1.
         22    1    4    4    0    0 -0.49724412211E+01  0.88260371307E+01  0.46219709509E+02  0.47316864332E+02  0.00000000000E+00 0.  1.
<mgrwt>
<rscale>  0 0.93576120E+02</rscale>
<asrwt>0</asrwt>
<pdfrwt beam="1">  1        3 0.12938976E-01 0.93576120E+02</pdfrwt>
<pdfrwt beam="2">  1       -3 0.40044555E-02 0.93576120E+02</pdfrwt>
<totfact> 0.31615183E+04</totfact>
</mgrwt>
</event>
<event>
 7    1  0.1247599E-009  0.9049657E+02  0.7818608E-02  0.1301654E+00
         -3   -1    0    0    0  501 -0.00000000000E+00  0.00000000000E+00  0.77613049959E+01  0.77619621385E+01  0.10100000000E+00 0.  1.
          3   -1    0    0  501    0  0.00000000000E+00 -0.00000000000E+00 -0.26378492094E+03  0.26378494028E+03  0.10100000000E+00 0. -1.
         23    2    1    2    0    0  0.00000000000E+00  0.35527136788E-14 -0.25602361594E+03  0.27154690241E+03  0.90496565071E+02 0.  0.
    9000005    2    3    3    0    0  0.25379372978E+02 -0.27370937929E+02 -0.60198002550E+02  0.72195575162E+02  0.13968562779E+02 0.  0.
         22    1    3    3    0    0 -0.25379372978E+02  0.27370937929E+02 -0.19582561339E+03  0.19935132725E+03  0.00000000000E+00 0. -1.
         22    1    4    4    0    0  0.67576638003E+01 -0.17454311813E+02 -0.29924324418E+02  0.35295668470E+02  0.00000000000E+00 0. -1.
         22    1    4    4    0    0  0.18621709178E+02 -0.99166261167E+01 -0.30273678131E+02  0.36899906692E+02  0.00000000000E+00 0. -1.
<mgrwt>
<rscale>  0 0.90496565E+02</rscale>
<asrwt>0</asrwt>
<pdfrwt beam="2">  1        3 0.40582341E-01 0.90496565E+02</pdfrwt>
<pdfrwt beam="1">  1       -3 0.11940992E-02 0.90496565E+02</pdfrwt>
<totfact> 0.25686583E+04</totfact>
</mgrwt>
</event>
<event>
 7    1  0.1247599E-009  0.9308733E+02  0.7818608E-02  0.1295543E+00
          3   -1    0    0  501    0  0.00000000000E+00  0.00000000000E+00  0.37453844228E+02  0.37453980409E+02  0.10100000000E+00 0. -1.
         -3   -1    0    0    0  501 -0.00000000000E+00 -0.00000000000E+00 -0.57839249828E+02  0.57839338012E+02  0.10100000000E+00 0.  1.
         23    2    1    2    0    0  0.00000000000E+00  0.00000000000E+00 -0.20385405600E+02  0.95293318420E+02  0.93087334123E+02 0.  0.
    9000005    2    3    3    0    0  0.26182922693E+02 -0.37025275977E+02 -0.10981716565E+02  0.48980837712E+02  0.14903283607E+02 0.  0.
         22    1    3    3    0    0 -0.26182922693E+02  0.37025275977E+02 -0.94036890346E+01  0.46312480709E+02  0.00000000000E+00 0.  1.
         22    1    4    4    0    0  0.20545596123E+02 -0.29234759289E+02 -0.19454331443E+01  0.35785155872E+02  0.00000000000E+00 0.  1.
         22    1    4    4    0    0  0.56373265705E+01 -0.77905166886E+01 -0.90362834207E+01  0.13195681839E+02  0.00000000000E+00 0.  1.
<mgrwt>
<rscale>  0 0.93087334E+02</rscale>
<asrwt>0</asrwt>
<pdfrwt beam="1">  1        3 0.57621471E-02 0.93087334E+02</pdfrwt>
<pdfrwt beam="2">  1       -3 0.88983634E-02 0.93087334E+02</pdfrwt>
<totfact> 0.33097179E+04</totfact>
</mgrwt>
</event>
<event>
 7    1  0.1247599E-009  0.9148727E+02  0.7818608E-02  0.1299290E+00
          3   -1    0    0  501    0  0.00000000000E+00  0.00000000000E+00  0.74200540080E+03  0.74200540768E+03  0.10100000000E+00 0. -1.
         -3   -1    0    0    0  501 -0.00000000000E+00 -0.00000000000E+00 -0.28191223071E+01  0.28209309780E+01  0.10100000000E+00 0.  1.
         23    2    1    2    0    0 -0.88817841970E-15  0.00000000000E+00  0.73918627849E+03  0.74482633865E+03  0.91487269265E+02 0.  0.
    9000005    2    3    3    0    0 -0.58951355797E+01 -0.42133781299E+02  0.49106759867E+03  0.49308661706E+03  0.13304785236E+02 0.  0.
         22    1    3    3    0    0  0.58951355797E+01  0.42133781299E+02  0.24811867982E+03  0.25173972159E+03  0.00000000000E+00 0.  1.
         22    1    4    4    0    0 -0.33515432788E+01 -0.41902901626E+01  0.32015565921E+02  0.32462098442E+02  0.00000000000E+00 0. -1.
         22    1    4    4    0    0 -0.25435923009E+01 -0.37943491137E+02  0.45905203275E+03  0.46062451862E+03  0.00000000000E+00 0. -1.
<mgrwt>
<rscale>  0 0.91487269E+02</rscale>
<asrwt>0</asrwt>
<pdfrwt beam="1">  1        3 0.11415492E+00 0.91487269E+02</pdfrwt>
<pdfrwt beam="2">  1       -3 0.43385040E-03 0.91487269E+02</pdfrwt>
<totfact> 0.13092093E+04</totfact>
</mgrwt>
</event>
<event>
 7    1  0.1247599E-009  0.9013695E+02  0.7818608E-02  0.1302520E+00
          3   -1    0    0  501    0  0.00000000000E+00  0.00000000000E+00  0.30407905950E+02  0.30408073685E+02  0.10100000000E+00 0. -1.
         -3   -1    0    0    0  501 -0.00000000000E+00 -0.00000000000E+00 -0.66796957608E+02  0.66797033966E+02  0.10100000000E+00 0.  1.
         23    2    1    2    0    0  0.00000000000E+00  0.00000000000E+00 -0.36389051658E+02  0.97205107651E+02  0.90136950652E+02 0.  0.
    9000005    2    3    3    0    0 -0.11409482083E+02 -0.36237966685E+02 -0.42725078216E+02  0.58688724859E+02  0.13250192686E+02 0.  0.
         22    1    3    3    0    0  0.11409482083E+02  0.36237966685E+02  0.63360265572E+01  0.38516382792E+02  0.00000000000E+00 0. -1.
         22    1    4    4    0    0 -0.21187286978E+01 -0.21023701299E+02 -0.30375984159E+02  0.37002505878E+02  0.00000000000E+00 0.  1.
         22    1    4    4    0    0 -0.92907533851E+01 -0.15214265386E+02 -0.12349094057E+02  0.21686218981E+02  0.00000000000E+00 0.  1.
<mgrwt>
<rscale>  0 0.90136951E+02</rscale>
<asrwt>0</asrwt>
<pdfrwt beam="1">  1        3 0.46781582E-02 0.90136951E+02</pdfrwt>
<pdfrwt beam="2">  1       -3 0.10276474E-01 0.90136951E+02</pdfrwt>
<totfact> 0.35985129E+04</totfact>
</mgrwt>
</event>
<event>
 7    1  0.1247599E-009  0.8694112E+02  0.7818608E-02  0.1310433E+00
         -3   -1    0    0    0  501 -0.00000000000E+00  0.00000000000E+00  0.34422026709E+02  0.34422174884E+02  0.10100000000E+00 0.  1.
          3   -1    0    0  501    0  0.00000000000E+00 -0.00000000000E+00 -0.54897370472E+02  0.54897463381E+02  0.10100000000E+00 0. -1.
         23    2    1    2    0    0  0.00000000000E+00  0.00000000000E+00 -0.20475343762E+02  0.89319638266E+02  0.86941118452E+02 0.  0.
    9000005    2    3    3    0    0  0.19566425209E+02 -0.20521353922E+02  0.22573192951E+02  0.37772111890E+02  0.10640133193E+02 0.  0.
         22    1    3    3    0    0 -0.19566425209E+02  0.20521353922E+02 -0.43048536714E+02  0.51547526376E+02  0.00000000000E+00 0. -1.
         22    1    4    4    0    0  0.22976721650E+01 -0.91105147816E+01  0.90657738733E+01  0.13056379011E+02  0.00000000000E+00 0.  1.
         22    1    4    4    0    0  0.17268753044E+02 -0.11410839141E+02  0.13507419078E+02  0.24715732879E+02  0.00000000000E+00 0.  1.
<mgrwt>
<rscale>  0 0.86941118E+02</rscale>
<asrwt>0</asrwt>
<pdfrwt beam="2">  1        3 0.84457678E-02 0.86941118E+02</pdfrwt>
<pdfrwt beam="1">  1       -3 0.52957150E-02 0.86941118E+02</pdfrwt>
<totfact> 0.40370810E+04</totfact>
</mgrwt>
</event>
<event>
 7    1  0.1247599E-009  0.9112980E+02  0.7818608E-02  0.1300139E+00
         -3   -1    0    0    0  501 -0.00000000000E+00  0.00000000000E+00  0.20235259181E+02  0.20235511239E+02  0.10100000000E+00 0.  1.
          3   -1    0    0  501    0  0.00000000000E+00 -0.00000000000E+00 -0.10260020370E+03  0.10260025341E+03  0.10100000000E+00 0. -1.
         23    2    1    2    0    0 -0.35527136788E-14  0.00000000000E+00 -0.82364944521E+02  0.12283576465E+03  0.91129802984E+02 0.  0.
    9000005    2    3    3    0    0  0.27077267584E+02  0.17583545081E+02 -0.83829247616E+02  0.90516982791E+02  0.11118540390E+02 0.  0.
         22    1    3    3    0    0 -0.27077267584E+02 -0.17583545081E+02  0.14643030951E+01  0.32318781861E+02  0.00000000000E+00 0.  1.
         22    1    4    4    0    0  0.27822255086E+02  0.15592136474E+02 -0.76408784924E+02  0.82797916710E+02  0.00000000000E+00 0. -1.
         22    1    4    4    0    0 -0.74498750160E+00  0.19914086066E+01 -0.74204626913E+01  0.77190660814E+01  0.00000000000E+00 0. -1.
<mgrwt>
<rscale>  0 0.91129803E+02</rscale>
<asrwt>0</asrwt>
<pdfrwt beam="2">  1        3 0.15784670E-01 0.91129803E+02</pdfrwt>
<pdfrwt beam="1">  1       -3 0.31131401E-02 0.91129803E+02</pdfrwt>
<totfact> 0.33099867E+04</totfact>
</mgrwt>
</event>
<event>
 7    1  0.1247599E-009  0.8997025E+02  0.7818608E-02  0.1302924E+00
         -3   -1    0    0    0  501 -0.00000000000E+00  0.00000000000E+00  0.21174354358E+03  0.21174356767E+03  0.10100000000E+00 0.  1.
          3   -1    0    0  501    0  0.00000000000E+00 -0.00000000000E+00 -0.95568421824E+01  0.95573758688E+01  0.10100000000E+00 0. -1.
         23    2    1    2    0    0  0.00000000000E+00 -0.71054273576E-14  0.20218670140E+03  0.22130094354E+03  0.89970247239E+02 0.  0.
    9000005    2    3    3    0    0 -0.16153579251E+02 -0.40167636763E+02  0.90851066238E+02  0.10184383482E+03  0.15616442912E+02 0.  0.
         22    1    3    3    0    0  0.16153579251E+02  0.40167636763E+02  0.11133563516E+03  0.11945710871E+03  0.00000000000E+00 0. -1.
         22    1    4    4    0    0  0.13339929355E+01 -0.28308043023E+01  0.16798489418E+02  0.17087487729E+02  0.00000000000E+00 0.  1.
         22    1    4    4    0    0 -0.17487572187E+02 -0.37336832461E+02  0.74052576819E+02  0.84756347094E+02  0.00000000000E+00 0.  1.
<mgrwt>
<rscale>  0 0.89970247E+02</rscale>
<asrwt>0</asrwt>
<pdfrwt beam="2">  1        3 0.14703263E-02 0.89970247E+02</pdfrwt>
<pdfrwt beam="1">  1       -3 0.32575972E-01 0.89970247E+02</pdfrwt>
<totfact> 0.28431611E+04</totfact>
</mgrwt>
</event>
<event>
 7    1  0.1247599E-009  0.8627556E+02  0.7818608E-02  0.1312130E+00
          3   -1    0    0  501    0  0.00000000000E+00  0.00000000000E+00  0.81520199905E+02  0.81520262472E+02  0.10100000000E+00 0. -1.
         -3   -1    0    0    0  501 -0.00000000000E+00 -0.00000000000E+00 -0.22826898226E+02  0.22827121668E+02  0.10100000000E+00 0.  1.
         23    2    1    2    0    0 -0.22204460493E-15  0.00000000000E+00  0.58693301678E+02  0.10434738414E+03  0.86275563834E+02 0.  0.
    9000005    2    3    3    0    0  0.60865082051E+00 -0.14173824507E+02  0.78010136506E+02  0.80380576577E+02  0.13198027741E+02 0.  0.
         22    1    3    3    0    0 -0.60865082051E+00  0.14173824507E+02 -0.19316834828E+02  0.23966807562E+02  0.00000000000E+00 0.  1.
         22    1    4    4    0    0 -0.32969456240E+01 -0.13949528790E+02  0.47354494155E+02  0.49476330913E+02  0.00000000000E+00 0. -1.
         22    1    4    4    0    0  0.39055964445E+01 -0.22429571691E+00  0.30655642351E+02  0.30904245664E+02  0.00000000000E+00 0. -1.
<mgrwt>
<rscale>  0 0.86275564E+02</rscale>
<asrwt>0</asrwt>
<pdfrwt beam="1">  1        3 0.12541591E-01 0.86275564E+02</pdfrwt>
<pdfrwt beam="2">  1       -3 0.35118526E-02 0.86275564E+02</pdfrwt>
<totfact> 0.39894866E+04</totfact>
</mgrwt>
</event>
<event>
 7    1  0.1247599E-009  0.9759721E+02  0.7818608E-02  0.1285431E+00
         -3   -1    0    0    0  501 -0.00000000000E+00  0.00000000000E+00  0.34838029689E+03  0.34838031153E+03  0.10100000000E+00 0.  1.
          3   -1    0    0  501    0  0.00000000000E+00 -0.00000000000E+00 -0.68349689235E+01  0.68357151188E+01  0.10100000000E+00 0. -1.
         23    2    1    2    0    0 -0.35527136788E-14  0.00000000000E+00  0.34154532797E+03  0.35521602665E+03  0.97597205559E+02 0.  0.
    9000005    2    3    3    0    0  0.27536599038E+02  0.37977606339E+02  0.21204331697E+03  0.21747956190E+03  0.11594339235E+02 0.  0.
         22    1    3    3    0    0 -0.27536599038E+02 -0.37977606339E+02  0.12950201100E+03  0.13773646475E+03  0.00000000000E+00 0. -1.
         22    1    4    4    0    0  0.18473681492E+02  0.23233454637E+02  0.15693749766E+03  0.15971990638E+03  0.00000000000E+00 0. -1.
         22    1    4    4    0    0  0.90629175454E+01  0.14744151702E+02  0.55105819313E+02  0.57759655522E+02  0.00000000000E+00 0. -1.
<mgrwt>
<rscale>  0 0.97597206E+02</rscale>
<asrwt>0</asrwt>
<pdfrwt beam="2">  1        3 0.10515917E-02 0.97597206E+02</pdfrwt>
<pdfrwt beam="1">  1       -3 0.53597055E-01 0.97597206E+02</pdfrwt>
<totfact> 0.18342351E+04</totfact>
</mgrwt>
</event>
<event>
 7    1  0.1247599E-009  0.9190852E+02  0.7818608E-02  0.1298295E+00
         -3   -1    0    0    0  501 -0.00000000000E+00  0.00000000000E+00  0.68705232241E+01  0.68712655583E+01  0.10100000000E+00 0.  1.
          3   -1    0    0  501    0  0.00000000000E+00 -0.00000000000E+00 -0.30735282560E+03  0.30735284220E+03  0.10100000000E+00 0. -1.
         23    2    1    2    0    0  0.00000000000E+00  0.00000000000E+00 -0.30048230238E+03  0.31422410776E+03  0.91908518932E+02 0.  0.
    9000005    2    3    3    0    0 -0.23887252927E+02  0.18368367378E+02 -0.26875126654E+03  0.27046503547E+03  0.40117786934E+01 0.  0.
         22    1    3    3    0    0  0.23887252927E+02 -0.18368367378E+02 -0.31731035836E+02  0.43759072291E+02  0.00000000000E+00 0.  1.
         22    1    4    4    0    0 -0.88031925436E+01  0.52796684307E+01 -0.78455890155E+02  0.79124571391E+02  0.00000000000E+00 0.  1.
         22    1    4    4    0    0 -0.15084060384E+02  0.13088698948E+02 -0.19029537639E+03  0.19134046407E+03  0.00000000000E+00 0.  1.
<mgrwt>
<rscale>  0 0.91908519E+02</rscale>
<asrwt>0</asrwt>
<pdfrwt beam="2">  1        3 0.47285098E-01 0.91908519E+02</pdfrwt>
<pdfrwt beam="1">  1       -3 0.10570622E-02 0.91908519E+02</pdfrwt>
<totfact> 0.22991974E+04</totfact>
</mgrwt>
</event>
<event>
 6    1  0.1247599E-009  0.1494323E+03  0.7818608E-02  0.1201172E+00
         -3   -1    0    0    0  501 -0.00000000000E+00  0.00000000000E+00  0.16613133086E+02  0.16613440100E+02  0.10100000000E+00 0.  1.
          3   -1    0    0  501    0  0.00000000000E+00 -0.00000000000E+00 -0.33602609934E+03  0.33602611452E+03  0.10100000000E+00 0. -1.
    9000005    2    1    2    0    0  0.45095661978E+02  0.56110337358E+02 -0.11492876428E+03  0.13585445932E+03  0.81132342493E+01 0.  0.
         22    1    1    2    0    0 -0.45095661978E+02 -0.56110337358E+02 -0.20448420197E+03  0.21678509530E+03  0.00000000000E+00 0.  1.
         22    1    3    3    0    0  0.12785941721E+02  0.12194011680E+02 -0.33207681359E+02  0.37615479896E+02  0.00000000000E+00 0. -1.
         22    1    3    3    0    0  0.32309720258E+02  0.43916325678E+02 -0.81721082924E+02  0.98238979425E+02  0.00000000000E+00 0. -1.
<mgrwt>
<rscale>  0 0.14943230E+03</rscale>
<asrwt>0</asrwt>
<pdfrwt beam="2">  1        3 0.51696343E-01 0.14943230E+03</pdfrwt>
<pdfrwt beam="1">  1       -3 0.25558917E-02 0.14943230E+03</pdfrwt>
<totfact> 0.56624592E+03</totfact>
</mgrwt>
</event>
<event>
 7    1  0.1247599E-009  0.9347316E+02  0.7818608E-02  0.1294652E+00
          3   -1    0    0  501    0  0.00000000000E+00  0.00000000000E+00  0.40515439422E+02  0.40515565312E+02  0.10100000000E+00 0. -1.
         -3   -1    0    0    0  501 -0.00000000000E+00 -0.00000000000E+00 -0.53912714354E+02  0.53912808960E+02  0.10100000000E+00 0.  1.
         23    2    1    2    0    0  0.00000000000E+00  0.00000000000E+00 -0.13397274932E+02  0.94428374272E+02  0.93473155997E+02 0.  0.
    9000005    2    3    3    0    0  0.35139132443E+02 -0.29923339276E+02 -0.13514406510E+02  0.48274516556E+02  0.41982023753E+01 0.  0.
         22    1    3    3    0    0 -0.35139132443E+02  0.29923339276E+02  0.11713157832E+00  0.46153857716E+02  0.00000000000E+00 0. -1.
         22    1    4    4    0    0  0.31391502360E+02 -0.28121015003E+02 -0.11712671529E+02  0.43742480263E+02  0.00000000000E+00 0. -1.
         22    1    4    4    0    0  0.37476300825E+01 -0.18023242727E+01 -0.18017349812E+01  0.45320362930E+01  0.00000000000E+00 0. -1.
<mgrwt>
<rscale>  0 0.93473156E+02</rscale>
<asrwt>0</asrwt>
<pdfrwt beam="1">  1        3 0.62331615E-02 0.93473156E+02</pdfrwt>
<pdfrwt beam="2">  1       -3 0.82942807E-02 0.93473156E+02</pdfrwt>
<totfact> 0.32785653E+04</totfact>
</mgrwt>
</event>
<event>
 7    1  0.1247599E-009  0.9244622E+02  0.7818608E-02  0.1297034E+00
         -3   -1    0    0    0  501 -0.00000000000E+00  0.00000000000E+00  0.89010716578E+01  0.89016446602E+01  0.10100000000E+00 0.  1.
          3   -1    0    0  501    0  0.00000000000E+00 -0.00000000000E+00 -0.24002748607E+03  0.24002750732E+03  0.10100000000E+00 0. -1.
         23    2    1    2    0    0 -0.17763568394E-14  0.00000000000E+00 -0.23112641441E+03  0.24892915198E+03  0.92446218236E+02 0.  0.
    9000005    2    3    3    0    0  0.15508017450E+02 -0.42808864060E+02 -0.95974269266E+02  0.10631358556E+03  0.42919303665E+01 0.  0.
         22    1    3    3    0    0 -0.15508017450E+02  0.42808864060E+02 -0.13515214514E+03  0.14261556642E+03  0.00000000000E+00 0. -1.
         22    1    4    4    0    0  0.47773828338E+01 -0.14152751843E+02 -0.36247977274E+02  0.39205096964E+02  0.00000000000E+00 0. -1.
         22    1    4    4    0    0  0.10730634616E+02 -0.28656112217E+02 -0.59726291992E+02  0.67108488597E+02  0.00000000000E+00 0. -1.
<mgrwt>
<rscale>  0 0.92446218E+02</rscale>
<asrwt>0</asrwt>
<pdfrwt beam="2">  1        3 0.36927346E-01 0.92446218E+02</pdfrwt>
<pdfrwt beam="1">  1       -3 0.13694415E-02 0.92446218E+02</pdfrwt>
<totfact> 0.25194590E+04</totfact>
</mgrwt>
</event>
<event>
 7    1  0.1247599E-009  0.9287005E+02  0.7818608E-02  0.1296047E+00
         -3   -1    0    0    0  501 -0.00000000000E+00  0.00000000000E+00  0.45797991766E+02  0.45798103135E+02  0.10100000000E+00 0.  1.
          3   -1    0    0  501    0  0.00000000000E+00 -0.00000000000E+00 -0.47080700970E+02  0.47080809305E+02  0.10100000000E+00 0. -1.
         23    2    1    2    0    0  0.17763568394E-14 -0.71054273576E-14 -0.12827092040E+01  0.92878912441E+02  0.92870054556E+02 0.  0.
    9000005    2    3    3    0    0 -0.13788368033E+02  0.41793981471E+02  0.13823000442E+02  0.46348938830E+02  0.45047540712E+01 0.  0.
         22    1    3    3    0    0  0.13788368033E+02 -0.41793981471E+02 -0.15105709646E+02  0.46529973610E+02  0.00000000000E+00 0. -1.
         22    1    4    4    0    0 -0.14090916022E+01  0.10291840641E+02  0.35315266964E+01  0.10971745701E+02  0.00000000000E+00 0. -1.
         22    1    4    4    0    0 -0.12379276431E+02  0.31502140830E+02  0.10291473746E+02  0.35377193129E+02  0.00000000000E+00 0. -1.
<mgrwt>
<rscale>  0 0.92870055E+02</rscale>
<asrwt>0</asrwt>
<pdfrwt beam="2">  1        3 0.72432016E-02 0.92870055E+02</pdfrwt>
<pdfrwt beam="1">  1       -3 0.70458618E-02 0.92870055E+02</pdfrwt>
<totfact> 0.33482039E+04</totfact>
</mgrwt>
</event>
<event>
 7    1  0.1247599E-009  0.9030440E+02  0.7818608E-02  0.1302116E+00
          3   -1    0    0  501    0  0.00000000000E+00  0.00000000000E+00  0.10180077604E+03  0.10180082615E+03  0.10100000000E+00 0. -1.
         -3   -1    0    0    0  501 -0.00000000000E+00 -0.00000000000E+00 -0.20026394495E+02  0.20026649183E+02  0.10100000000E+00 0.  1.
         23    2    1    2    0    0  0.00000000000E+00 -0.35527136788E-14  0.81774381549E+02  0.12182747533E+03  0.90304397830E+02 0.  0.
    9000005    2    3    3    0    0 -0.34656021049E+02 -0.26056063186E+02  0.24706122207E+02  0.50156390169E+02  0.50311804376E+01 0.  0.
         22    1    3    3    0    0  0.34656021049E+02  0.26056063186E+02  0.57068259342E+02  0.71671085160E+02  0.00000000000E+00 0. -1.
         22    1    4    4    0    0 -0.78906536416E+01 -0.77471963964E+01  0.82153716941E+01  0.13775841135E+02  0.00000000000E+00 0.  1.
         22    1    4    4    0    0 -0.26765367407E+02 -0.18308866790E+02  0.16490750513E+02  0.36380549035E+02  0.00000000000E+00 0.  1.
<mgrwt>
<rscale>  0 0.90304398E+02</rscale>
<asrwt>0</asrwt>
<pdfrwt beam="1">  1        3 0.15661682E-01 0.90304398E+02</pdfrwt>
<pdfrwt beam="2">  1       -3 0.30810071E-02 0.90304398E+02</pdfrwt>
<totfact> 0.33996329E+04</totfact>
</mgrwt>
</event>
<event>
 7    1  0.1247599E-009  0.9053427E+02  0.7818608E-02  0.1301563E+00
         -3   -1    0    0    0  501 -0.00000000000E+00  0.00000000000E+00  0.35504562333E+03  0.35504563769E+03  0.10100000000E+00 0.  1.
          3   -1    0    0  501    0  0.00000000000E+00 -0.00000000000E+00 -0.57709524275E+01  0.57718361827E+01  0.10100000000E+00 0. -1.
         23    2    1    2    0    0  0.35527136788E-14  0.00000000000E+00  0.34927467090E+03  0.36081747388E+03  0.90534268219E+02 0.  0.
    9000005    2    3    3    0    0 -0.27706233381E+02  0.99645404668E+01  0.30969894303E+03  0.31149034472E+03  0.15680309352E+02 0.  0.
         22    1    3    3    0    0  0.27706233381E+02 -0.99645404668E+01  0.39575727869E+02  0.49327129161E+02  0.00000000000E+00 0. -1.
         22    1    4    4    0    0 -0.21496861843E+02  0.75073428004E+01  0.15669754008E+03  0.15834328003E+03  0.00000000000E+00 0.  1.
         22    1    4    4    0    0 -0.62093715384E+01  0.24571976664E+01  0.15300140296E+03  0.15314706469E+03  0.00000000000E+00 0.  1.
<mgrwt>
<rscale>  0 0.90534268E+02</rscale>
<asrwt>0</asrwt>
<pdfrwt beam="2">  1        3 0.88790810E-03 0.90534268E+02</pdfrwt>
<pdfrwt beam="1">  1       -3 0.54622462E-01 0.90534268E+02</pdfrwt>
<totfact> 0.22259164E+04</totfact>
</mgrwt>
</event>
<event>
 7    1  0.1247599E-009  0.9262581E+02  0.7818608E-02  0.1296615E+00
          3   -1    0    0  501    0  0.00000000000E+00  0.00000000000E+00  0.61817787351E+02  0.61817869860E+02  0.10100000000E+00 0.  1.
         -3   -1    0    0    0  501 -0.00000000000E+00 -0.00000000000E+00 -0.34696715213E+02  0.34696862215E+02  0.10100000000E+00 0. -1.
         23    2    1    2    0    0  0.00000000000E+00  0.00000000000E+00  0.27121072138E+02  0.96514732075E+02  0.92625811487E+02 0.  0.
    9000005    2    3    3    0    0  0.15217714192E+02 -0.29932046330E+02 -0.19569170829E+02  0.39003993851E+02  0.32943689343E+01 0.  0.
         22    1    3    3    0    0 -0.15217714192E+02  0.29932046330E+02  0.46690242967E+02  0.57510738224E+02  0.00000000000E+00 0.  1.
         22    1    4    4    0    0  0.41062926440E+00 -0.22258981846E+00 -0.63652903837E+00  0.78951367104E+00  0.00000000000E+00 0.  1.
         22    1    4    4    0    0  0.14807084928E+02 -0.29709456512E+02 -0.18932641791E+02  0.38214480180E+02  0.00000000000E+00 0.  1.
<mgrwt>
<rscale>  0 0.92625811E+02</rscale>
<asrwt>0</asrwt>
<pdfrwt beam="1">  1        3 0.95104464E-02 0.92625811E+02</pdfrwt>
<pdfrwt beam="2">  1       -3 0.53379739E-02 0.92625811E+02</pdfrwt>
<totfact> 0.33460290E+04</totfact>
</mgrwt>
</event>
<event>
 7    1  0.1247599E-009  0.9143747E+02  0.7818608E-02  0.1299408E+00
         -3   -1    0    0    0  501 -0.00000000000E+00  0.00000000000E+00  0.38817673503E+02  0.38817804899E+02  0.10100000000E+00 0.  1.
          3   -1    0    0  501    0  0.00000000000E+00 -0.00000000000E+00 -0.53846412475E+02  0.53846507198E+02  0.10100000000E+00 0. -1.
         23    2    1    2    0    0  0.00000000000E+00  0.00000000000E+00 -0.15028738972E+02  0.92664312097E+02  0.91437474491E+02 0.  0.
    9000005    2    3    3    0    0 -0.17672717464E+02 -0.40920839560E+02 -0.30296381611E+01  0.46503522750E+02  0.12905768782E+02 0.  0.
         22    1    3    3    0    0  0.17672717464E+02  0.40920839560E+02 -0.11999100811E+02  0.46160789347E+02  0.00000000000E+00 0.  1.
         22    1    4    4    0    0 -0.79577288173E+01 -0.31566607755E+02  0.51802114447E+00  0.32558324880E+02  0.00000000000E+00 0. -1.
         22    1    4    4    0    0 -0.97149886468E+01 -0.93542318053E+01 -0.35476593056E+01  0.13945197870E+02  0.00000000000E+00 0. -1.
<mgrwt>
<rscale>  0 0.91437474E+02</rscale>
<asrwt>0</asrwt>
<pdfrwt beam="2">  1        3 0.82840809E-02 0.91437474E+02</pdfrwt>
<pdfrwt beam="1">  1       -3 0.59719672E-02 0.91437474E+02</pdfrwt>
<totfact> 0.34951434E+04</totfact>
</mgrwt>
</event>
<event>
 7    1  0.1247599E-009  0.9149163E+02  0.7818608E-02  0.1299279E+00
         -3   -1    0    0    0  501 -0.00000000000E+00  0.00000000000E+00  0.10139544908E+02  0.10140047926E+02  0.10100000000E+00 0.  1.
          3   -1    0    0  501    0  0.00000000000E+00 -0.00000000000E+00 -0.20638228266E+03  0.20638230737E+03  0.10100000000E+00 0. -1.
         23    2    1    2    0    0 -0.35527136788E-14 -0.44408920985E-15 -0.19624273775E+03  0.21652235530E+03  0.91491629257E+02 0.  0.
    9000005    2    3    3    0    0  0.29058009183E+02  0.39408016497E+01 -0.19246820758E+02  0.37113736644E+02  0.12128129414E+02 0.  0.
         22    1    3    3    0    0 -0.29058009183E+02 -0.39408016497E+01 -0.17699591699E+03  0.17940861865E+03  0.00000000000E+00 0. -1.
         22    1    4    4    0    0  0.20318345459E+01  0.26471933286E+01  0.80935226955E+00  0.34338076878E+01  0.00000000000E+00 0. -1.
         22    1    4    4    0    0  0.27026174637E+02  0.12936083211E+01 -0.20056173028E+02  0.33679928957E+02  0.00000000000E+00 0. -1.
<mgrwt>
<rscale>  0 0.91491629E+02</rscale>
<asrwt>0</asrwt>
<pdfrwt beam="2">  1        3 0.31751158E-01 0.91491629E+02</pdfrwt>
<pdfrwt beam="1">  1       -3 0.15599707E-02 0.91491629E+02</pdfrwt>
<totfact> 0.27410111E+04</totfact>
</mgrwt>
</event>
<event>
 7    1  0.1247599E-009  0.9048145E+02  0.7818608E-02  0.1301690E+00
          3   -1    0    0  501    0  0.00000000000E+00  0.00000000000E+00  0.72273204020E+01  0.72280260924E+01  0.10100000000E+00 0. -1.
         -3   -1    0    0    0  501 -0.00000000000E+00 -0.00000000000E+00 -0.28317797542E+03  0.28317799343E+03  0.10100000000E+00 0.  1.
         23    2    1    2    0    0 -0.44408920985E-15  0.00000000000E+00 -0.27595065502E+03  0.29040601953E+03  0.90481446557E+02 0.  0.
    9000005    2    3    3    0    0 -0.36549430789E+01 -0.33202588295E+02 -0.23544341775E+03  0.23790262202E+03  0.69486778176E+01 0.  0.
         22    1    3    3    0    0  0.36549430789E+01  0.33202588295E+02 -0.40507237265E+02  0.52503397502E+02  0.00000000000E+00 0. -1.
         22    1    4    4    0    0 -0.10429624820E+01 -0.28448128563E+02 -0.18661330177E+03  0.18877210648E+03  0.00000000000E+00 0. -1.
         22    1    4    4    0    0 -0.26119805968E+01 -0.47544597318E+01 -0.48830115987E+02  0.49130515541E+02  0.00000000000E+00 0. -1.
<mgrwt>
<rscale>  0 0.90481447E+02</rscale>
<asrwt>0</asrwt>
<pdfrwt beam="1">  1        3 0.11119513E-02 0.90481447E+02</pdfrwt>
<pdfrwt beam="2">  1       -3 0.43565889E-01 0.90481447E+02</pdfrwt>
<totfact> 0.24906244E+04</totfact>
</mgrwt>
</event>
<event>
 7    1  0.1247599E-009  0.9163310E+02  0.7818608E-02  0.1298944E+00
         -3   -1    0    0    0  501 -0.00000000000E+00  0.00000000000E+00  0.11238643130E+03  0.11238647669E+03  0.10100000000E+00 0.  1.
          3   -1    0    0  501    0  0.00000000000E+00 -0.00000000000E+00 -0.18677835387E+02  0.18678108462E+02  0.10100000000E+00 0. -1.
         23    2    1    2    0    0  0.00000000000E+00  0.00000000000E+00  0.93708595917E+02  0.13106458515E+03  0.91633097360E+02 0.  0.
    9000005    2    3    3    0    0  0.12687230387E+02 -0.42031396706E+02  0.64822353719E+02  0.78509669944E+02  0.58503511846E+01 0.  0.
         22    1    3    3    0    0 -0.12687230387E+02  0.42031396706E+02  0.28886242198E+02  0.52554915206E+02  0.00000000000E+00 0. -1.
         22    1    4    4    0    0  0.68573806826E+01 -0.19228876948E+02  0.34998522176E+02  0.40517526245E+02  0.00000000000E+00 0.  1.
         22    1    4    4    0    0  0.58298497047E+01 -0.22802519758E+02  0.29823831543E+02  0.37992143698E+02  0.00000000000E+00 0.  1.
<mgrwt>
<rscale>  0 0.91633097E+02</rscale>
<asrwt>0</asrwt>
<pdfrwt beam="2">  1        3 0.28735376E-02 0.91633097E+02</pdfrwt>
<pdfrwt beam="1">  1       -3 0.17290245E-01 0.91633097E+02</pdfrwt>
<totfact> 0.32069525E+04</totfact>
</mgrwt>
</event>
<event>
 7    1  0.1247599E-009  0.9111251E+02  0.7818608E-02  0.1300180E+00
         -3   -1    0    0    0  501 -0.00000000000E+00  0.00000000000E+00  0.35317198019E+02  0.35317342438E+02  0.10100000000E+00 0.  1.
          3   -1    0    0  501    0  0.00000000000E+00 -0.00000000000E+00 -0.58763479824E+02  0.58763566621E+02  0.10100000000E+00 0. -1.
         23    2    1    2    0    0  0.00000000000E+00  0.00000000000E+00 -0.23446281805E+02  0.94080909059E+02  0.91112509124E+02 0.  0.
    9000005    2    3    3    0    0 -0.81630297888E+01 -0.23148072788E+02  0.26596876199E+02  0.38342358736E+02  0.12659949478E+02 0.  0.
         22    1    3    3    0    0  0.81630297888E+01  0.23148072788E+02 -0.50043158003E+02  0.55738550323E+02  0.00000000000E+00 0. -1.
         22    1    4    4    0    0 -0.67438900749E-01  0.15234013459E+01  0.72829165150E+00  0.16898841368E+01  0.00000000000E+00 0.  1.
         22    1    4    4    0    0 -0.80955908881E+01 -0.24671474134E+02  0.25868584547E+02  0.36652474599E+02  0.00000000000E+00 0.  1.
<mgrwt>
<rscale>  0 0.91112509E+02</rscale>
<asrwt>0</asrwt>
<pdfrwt beam="2">  1        3 0.90405531E-02 0.91112509E+02</pdfrwt>
<pdfrwt beam="1">  1       -3 0.54334329E-02 0.91112509E+02</pdfrwt>
<totfact> 0.35184193E+04</totfact>
</mgrwt>
</event>
<event>
 7    1  0.1247599E-009  0.8968078E+02  0.7818608E-02  0.1303627E+00
         -3   -1    0    0    0  501 -0.00000000000E+00  0.00000000000E+00  0.21750929333E+01  0.21774366279E+01  0.10100000000E+00 0.  1.
          3   -1    0    0  501    0  0.00000000000E+00 -0.00000000000E+00 -0.92390211310E+03  0.92390211862E+03  0.10100000000E+00 0. -1.
         23    2    1    2    0    0  0.00000000000E+00  0.00000000000E+00 -0.92172702017E+03  0.92607955525E+03  0.89680783582E+02 0.  0.
    9000005    2    3    3    0    0  0.20175247089E+02 -0.16812894233E+02 -0.83354149866E+03  0.83406651155E+03  0.13630909376E+02 0.  0.
         22    1    3    3    0    0 -0.20175247089E+02  0.16812894233E+02 -0.88185521508E+02  0.92013043701E+02  0.00000000000E+00 0.  1.
         22    1    4    4    0    0  0.17491969407E+02 -0.85046180562E+01 -0.44206844753E+03  0.44249611278E+03  0.00000000000E+00 0.  1.
         22    1    4    4    0    0  0.26832776820E+01 -0.83082761764E+01 -0.39147305113E+03  0.39157039877E+03  0.00000000000E+00 0.  1.
<mgrwt>
<rscale>  0 0.89680784E+02</rscale>
<asrwt>0</asrwt>
<pdfrwt beam="2">  1        3 0.14213865E+00 0.89680784E+02</pdfrwt>
<pdfrwt beam="1">  1       -3 0.33481113E-03 0.89680784E+02</pdfrwt>
<totfact> 0.11308102E+04</totfact>
</mgrwt>
</event>
<event>
 7    1  0.1247599E-009  0.1061067E+03  0.7818608E-02  0.1267954E+00
          3   -1    0    0  501    0  0.00000000000E+00  0.00000000000E+00  0.88248204798E+02  0.88248262596E+02  0.10100000000E+00 0. -1.
         -3   -1    0    0    0  501 -0.00000000000E+00 -0.00000000000E+00 -0.31894620587E+02  0.31894780504E+02  0.10100000000E+00 0.  1.
         23    2    1    2    0    0  0.00000000000E+00  0.00000000000E+00  0.56353584212E+02  0.12014304310E+03  0.10610666497E+03 0.  0.
    9000005    2    3    3    0    0 -0.36659578764E+02 -0.11057972035E+02 -0.11169856378E+02  0.42518185677E+02  0.14725045368E+02 0.  0.
         22    1    3    3    0    0  0.36659578764E+02  0.11057972035E+02  0.67523440590E+02  0.77624857422E+02  0.00000000000E+00 0. -1.
         22    1    4    4    0    0 -0.30905554662E+02 -0.13926354581E+02 -0.63624254437E+01  0.34490246715E+02  0.00000000000E+00 0. -1.
         22    1    4    4    0    0 -0.57540241018E+01  0.28683825465E+01 -0.48074309346E+01  0.80279389626E+01  0.00000000000E+00 0. -1.
<mgrwt>
<rscale>  0 0.10610666E+03</rscale>
<asrwt>0</asrwt>
<pdfrwt beam="1">  1        3 0.13576663E-01 0.10610666E+03</pdfrwt>
<pdfrwt beam="2">  1       -3 0.49068816E-02 0.10610666E+03</pdfrwt>
<totfact> 0.21928342E+04</totfact>
</mgrwt>
</event>
<event>
 7    1  0.1247599E-009  0.9097695E+02  0.7818608E-02  0.1300503E+00
          3   -1    0    0  501    0  0.00000000000E+00  0.00000000000E+00  0.15077516941E+03  0.15077520323E+03  0.10100000000E+00 0.  1.
         -3   -1    0    0    0  501 -0.00000000000E+00 -0.00000000000E+00 -0.13723533619E+02  0.13723905275E+02  0.10100000000E+00 0. -1.
         23    2    1    2    0    0  0.00000000000E+00  0.00000000000E+00  0.13705163579E+03  0.16449910851E+03  0.90976952183E+02 0.  0.
    9000005    2    3    3    0    0  0.74766514786E+01  0.33808161228E+02  0.17164085674E+02  0.39711622137E+02  0.91386548693E+01 0.  0.
         22    1    3    3    0    0 -0.74766514786E+01 -0.33808161228E+02  0.11988755011E+03  0.12478748637E+03  0.00000000000E+00 0.  1.
         22    1    4    4    0    0 -0.19491377871E+01  0.46848511996E+01  0.36499706054E+01  0.62505403203E+01  0.00000000000E+00 0.  1.
         22    1    4    4    0    0  0.94257892657E+01  0.29123310028E+02  0.13514115068E+02  0.33461081817E+02  0.00000000000E+00 0.  1.
<mgrwt>
<rscale>  0 0.90976952E+02</rscale>
<asrwt>0</asrwt>
<pdfrwt beam="1">  1        3 0.23196212E-01 0.90976952E+02</pdfrwt>
<pdfrwt beam="2">  1       -3 0.21113440E-02 0.90976952E+02</pdfrwt>
<totfact> 0.30624292E+04</totfact>
</mgrwt>
</event>
<event>
 7    1  0.1247599E-009  0.9163967E+02  0.7818608E-02  0.1298929E+00
         -3   -1    0    0    0  501 -0.00000000000E+00  0.00000000000E+00  0.29070814301E+01  0.29088354098E+01  0.10100000000E+00 0.  1.
          3   -1    0    0  501    0  0.00000000000E+00 -0.00000000000E+00 -0.72196780697E+03  0.72196781403E+03  0.10100000000E+00 0. -1.
         23    2    1    2    0    0  0.00000000000E+00  0.00000000000E+00 -0.71906072554E+03  0.72487664944E+03  0.91639674245E+02 0.  0.
    9000005    2    3    3    0    0 -0.16610987151E+02  0.46497598915E+00 -0.69728404136E+03  0.69748385714E+03  0.15986009650E+01 0.  0.
         22    1    3    3    0    0  0.16610987151E+02 -0.46497598915E+00 -0.21776684172E+02  0.27392792306E+02  0.00000000000E+00 0.  1.
         22    1    4    4    0    0 -0.68906367210E+01 -0.25623014486E+00 -0.26223969724E+03  0.26233033629E+03  0.00000000000E+00 0.  1.
         22    1    4    4    0    0 -0.97203504303E+01  0.72120613401E+00 -0.43504434412E+03  0.43515352085E+03  0.00000000000E+00 0.  1.
<mgrwt>
<rscale>  0 0.91639674E+02</rscale>
<asrwt>0</asrwt>
<pdfrwt beam="2">  1        3 0.11107196E+00 0.91639674E+02</pdfrwt>
<pdfrwt beam="1">  1       -3 0.44737934E-03 0.91639674E+02</pdfrwt>
<totfact> 0.13337530E+04</totfact>
</mgrwt>
</event>
<event>
 7    1  0.1247599E-009  0.9240544E+02  0.7818608E-02  0.1297129E+00
         -3   -1    0    0    0  501 -0.00000000000E+00  0.00000000000E+00  0.95975788112E+01  0.95981102326E+01  0.10100000000E+00 0.  1.
          3   -1    0    0  501    0  0.00000000000E+00 -0.00000000000E+00 -0.22241308000E+03  0.22241310294E+03  0.10100000000E+00 0. -1.
         23    2    1    2    0    0  0.00000000000E+00  0.00000000000E+00 -0.21281550119E+03  0.23201121317E+03  0.92405440794E+02 0.  0.
    9000005    2    3    3    0    0 -0.24293155931E+02 -0.37214526861E+02 -0.81757110006E+02  0.93622700874E+02  0.10291095563E+02 0.  0.
         22    1    3    3    0    0  0.24293155931E+02  0.37214526861E+02 -0.13105839119E+03  0.13838851229E+03  0.00000000000E+00 0.  1.
         22    1    4    4    0    0 -0.11271870566E+02 -0.24390665143E+02 -0.55100574099E+02  0.61302796658E+02  0.00000000000E+00 0.  1.
         22    1    4    4    0    0 -0.13021285366E+02 -0.12823861719E+02 -0.26656535907E+02  0.32319904216E+02  0.00000000000E+00 0.  1.
<mgrwt>
<rscale>  0 0.92405441E+02</rscale>
<asrwt>0</asrwt>
<pdfrwt beam="2">  1        3 0.34217436E-01 0.92405441E+02</pdfrwt>
<pdfrwt beam="1">  1       -3 0.14765934E-02 0.92405441E+02</pdfrwt>
<totfact> 0.25968789E+04</totfact>
</mgrwt>
</event>
<event>
 7    1  0.1247599E-009  0.9112871E+02  0.7818608E-02  0.1300141E+00
          3   -1    0    0  501    0  0.00000000000E+00  0.00000000000E+00  0.36660811239E+02  0.36660950365E+02  0.10100000000E+00 0. -1.
         -3   -1    0    0    0  501 -0.00000000000E+00 -0.00000000000E+00 -0.56629950452E+02  0.56630040520E+02  0.10100000000E+00 0.  1.
         23    2    1    2    0    0  0.00000000000E+00 -0.27755575616E-15 -0.19969139214E+02  0.93290990885E+02  0.91128713693E+02 0.  0.
    9000005    2    3    3    0    0  0.10845803469E+02 -0.28286003968E+00  0.34907345747E+02  0.37352273842E+02  0.76784185455E+01 0.  0.
         22    1    3    3    0    0 -0.10845803469E+02  0.28286003968E+00 -0.54876484961E+02  0.55938717043E+02  0.00000000000E+00 0.  1.
         22    1    4    4    0    0  0.61188286484E+01  0.30398792919E+01  0.24651643414E+02  0.25580939254E+02  0.00000000000E+00 0.  1.
         22    1    4    4    0    0  0.47269748207E+01 -0.33227393316E+01  0.10255702334E+02  0.11771334588E+02  0.00000000000E+00 0.  1.
<mgrwt>
<rscale>  0 0.91128714E+02</rscale>
<asrwt>0</asrwt>
<pdfrwt beam="1">  1        3 0.56401424E-02 0.91128714E+02</pdfrwt>
<pdfrwt beam="2">  1       -3 0.87123177E-02 0.91128714E+02</pdfrwt>
<totfact> 0.35228272E+04</totfact>
</mgrwt>
</event>
<event>
 7    1  0.1247599E-009  0.7443015E+02  0.7818608E-02  0.1345645E+00
         -3   -1    0    0    0  501 -0.00000000000E+00  0.00000000000E+00  0.10821890926E+03  0.10821895639E+03  0.10100000000E+00 0.  1.
          3   -1    0    0  501    0  0.00000000000E+00 -0.00000000000E+00 -0.12797529996E+02  0.12797928543E+02  0.10100000000E+00 0. -1.
         23    2    1    2    0    0  0.17763568394E-14  0.00000000000E+00  0.95421379262E+02  0.12101688493E+03  0.74430147241E+02 0.  0.
    9000005    2    3    3    0    0 -0.94282392533E+01 -0.18459928682E+02  0.97537991509E+02  0.10018084141E+03  0.96374547949E+01 0.  0.
         22    1    3    3    0    0  0.94282392533E+01  0.18459928682E+02 -0.21166122471E+01  0.20836043525E+02  0.00000000000E+00 0. -1.
         22    1    4    4    0    0 -0.73614295279E+00 -0.32526658430E+00  0.25975382065E+00  0.84568129053E+00  0.00000000000E+00 0. -1.
         22    1    4    4    0    0 -0.86920963005E+01 -0.18134662098E+02  0.97278237689E+02  0.99335160116E+02  0.00000000000E+00 0. -1.
<mgrwt>
<rscale>  0 0.74430147E+02</rscale>
<asrwt>0</asrwt>
<pdfrwt beam="2">  1        3 0.19688849E-02 0.74430147E+02</pdfrwt>
<pdfrwt beam="1">  1       -3 0.16649098E-01 0.74430147E+02</pdfrwt>
<totfact> 0.57158828E+04</totfact>
</mgrwt>
</event>
<event>
 7    1  0.1247599E-009  0.9206868E+02  0.7818608E-02  0.1297918E+00
          3   -1    0    0  501    0  0.00000000000E+00  0.00000000000E+00  0.10002225292E+03  0.10002230392E+03  0.10100000000E+00 0. -1.
         -3   -1    0    0    0  501 -0.00000000000E+00 -0.00000000000E+00 -0.21186711727E+02  0.21186952467E+02  0.10100000000E+00 0.  1.
         23    2    1    2    0    0  0.00000000000E+00  0.00000000000E+00  0.78835541194E+02  0.12120925638E+03  0.92068676960E+02 0.  0.
    9000005    2    3    3    0    0  0.32995577452E+02  0.17836792711E+02  0.74175830839E+02  0.83412798794E+02  0.69843980724E+01 0.  0.
         22    1    3    3    0    0 -0.32995577452E+02 -0.17836792711E+02  0.46597103555E+01  0.37796457588E+02  0.00000000000E+00 0.  1.
         22    1    4    4    0    0  0.20457061121E+02  0.92251935561E+01  0.37409563330E+02  0.43624201705E+02  0.00000000000E+00 0.  1.
         22    1    4    4    0    0  0.12538516330E+02  0.86115991547E+01  0.36766267508E+02  0.39788597088E+02  0.00000000000E+00 0.  1.
<mgrwt>
<rscale>  0 0.92068677E+02</rscale>
<asrwt>0</asrwt>
<pdfrwt beam="1">  1        3 0.15388061E-01 0.92068677E+02</pdfrwt>
<pdfrwt beam="2">  1       -3 0.32595166E-02 0.92068677E+02</pdfrwt>
<totfact> 0.32296774E+04</totfact>
</mgrwt>
</event>
<event>
 7    1  0.1247599E-009  0.8798445E+02  0.7818608E-02  0.1307807E+00
          3   -1    0    0  501    0  0.00000000000E+00  0.00000000000E+00  0.34059077370E+01  0.34074049529E+01  0.10100000000E+00 0. -1.
         -3   -1    0    0    0  501 -0.00000000000E+00 -0.00000000000E+00 -0.56809691245E+03  0.56809692142E+03  0.10100000000E+00 0.  1.
         23    2    1    2    0    0  0.00000000000E+00  0.00000000000E+00 -0.56469100471E+03  0.57150432638E+03  0.87984454697E+02 0.  0.
    9000005    2    3    3    0    0  0.75767432159E+01  0.36158122238E+02 -0.43510550382E+03  0.43675560140E+03  0.85929657705E+01 0.  0.
         22    1    3    3    0    0 -0.75767432159E+01 -0.36158122238E+02 -0.12958550089E+03  0.13474872498E+03  0.00000000000E+00 0. -1.
         22    1    4    4    0    0  0.74598443343E+01  0.19725341087E+02 -0.21228174828E+03  0.21332669550E+03  0.00000000000E+00 0.  1.
         22    1    4    4    0    0  0.11689888162E+00  0.16432781152E+02 -0.22282375554E+03  0.22342890590E+03  0.00000000000E+00 0.  1.
<mgrwt>
<rscale>  0 0.87984455E+02</rscale>
<asrwt>0</asrwt>
<pdfrwt beam="1">  1        3 0.52410212E-03 0.87984455E+02</pdfrwt>
<pdfrwt beam="2">  1       -3 0.87399566E-01 0.87984455E+02</pdfrwt>
<totfact> 0.17897223E+04</totfact>
</mgrwt>
</event>
<event>
 7    1  0.1247599E-009  0.9362831E+02  0.7818608E-02  0.1294296E+00
         -3   -1    0    0    0  501 -0.00000000000E+00  0.00000000000E+00  0.18507034865E+03  0.18507037621E+03  0.10100000000E+00 0.  1.
          3   -1    0    0  501    0  0.00000000000E+00 -0.00000000000E+00 -0.11841552184E+02  0.11841982906E+02  0.10100000000E+00 0. -1.
         23    2    1    2    0    0  0.00000000000E+00  0.00000000000E+00  0.17322879647E+03  0.19691235912E+03  0.93628314347E+02 0.  0.
    9000005    2    3    3    0    0  0.59142830985E+01  0.91935420977E+01  0.18196662669E+03  0.18291773022E+03  0.15084523243E+02 0.  0.
         22    1    3    3    0    0 -0.59142830985E+01 -0.91935420977E+01 -0.87378302206E+01  0.13994628892E+02  0.00000000000E+00 0. -1.
         22    1    4    4    0    0  0.14500275558E+01  0.59292768349E+01  0.16412874133E+03  0.16424220722E+03  0.00000000000E+00 0.  1.
         22    1    4    4    0    0  0.44642555426E+01  0.32642652628E+01  0.17837885360E+02  0.18675523002E+02  0.00000000000E+00 0.  1.
<mgrwt>
<rscale>  0 0.93628314E+02</rscale>
<asrwt>0</asrwt>
<pdfrwt beam="2">  1        3 0.18218127E-02 0.93628314E+02</pdfrwt>
<pdfrwt beam="1">  1       -3 0.28472394E-01 0.93628314E+02</pdfrwt>
<totfact> 0.26672223E+04</totfact>
</mgrwt>
</event>
<event>
 7    1  0.1247599E-009  0.8699273E+02  0.7818608E-02  0.1310302E+00
         -3   -1    0    0    0  501 -0.00000000000E+00  0.00000000000E+00  0.27206408177E+03  0.27206410052E+03  0.10100000000E+00 0.  1.
          3   -1    0    0  501    0  0.00000000000E+00 -0.00000000000E+00 -0.69536153730E+01  0.69543488376E+01  0.10100000000E+00 0. -1.
         23    2    1    2    0    0  0.00000000000E+00  0.00000000000E+00  0.26511046640E+03  0.27901844935E+03  0.86992733531E+02 0.  0.
    9000005    2    3    3    0    0 -0.36229048541E+00  0.18387009950E+02  0.25894286354E+03  0.25962121465E+03  0.36817287498E+01 0.  0.
         22    1    3    3    0    0  0.36229048541E+00 -0.18387009950E+02  0.61676028553E+01  0.19397234707E+02  0.00000000000E+00 0. -1.
         22    1    4    4    0    0 -0.32471009996E+00  0.23934584393E+01  0.54605006135E+02  0.54658400772E+02  0.00000000000E+00 0. -1.
         22    1    4    4    0    0 -0.37580385447E-01  0.15993551511E+02  0.20433785741E+03  0.20496281387E+03  0.00000000000E+00 0. -1.
<mgrwt>
<rscale>  0 0.86992734E+02</rscale>
<asrwt>0</asrwt>
<pdfrwt beam="2">  1        3 0.10698450E-02 0.86992734E+02</pdfrwt>
<pdfrwt beam="1">  1       -3 0.41856063E-01 0.86992734E+02</pdfrwt>
<totfact> 0.28189829E+04</totfact>
</mgrwt>
</event>
<event>
 7    1  0.1247599E-009  0.9150579E+02  0.7818608E-02  0.1299246E+00
         -3   -1    0    0    0  501 -0.00000000000E+00  0.00000000000E+00  0.96389609399E+01  0.96394900799E+01  0.10100000000E+00 0.  1.
          3   -1    0    0  501    0  0.00000000000E+00 -0.00000000000E+00 -0.21716703788E+03  0.21716706136E+03  0.10100000000E+00 0. -1.
         23    2    1    2    0    0  0.00000000000E+00  0.00000000000E+00 -0.20752807694E+03  0.22680655144E+03  0.91505787033E+02 0.  0.
    9000005    2    3    3    0    0 -0.37284439989E+02 -0.25586121676E+02 -0.10653790811E+03  0.11615487596E+03  0.98412528171E+01 0.  0.
         22    1    3    3    0    0  0.37284439989E+02  0.25586121676E+02 -0.10099016883E+03  0.11065167549E+03  0.00000000000E+00 0. -1.
         22    1    4    4    0    0 -0.37152088672E+02 -0.24222394600E+02 -0.98818406068E+02  0.10831472416E+03  0.00000000000E+00 0. -1.
         22    1    4    4    0    0 -0.13235131690E+00 -0.13637270760E+01 -0.77195020374E+01  0.78401517916E+01  0.00000000000E+00 0. -1.
<mgrwt>
<rscale>  0 0.91505787E+02</rscale>
<asrwt>0</asrwt>
<pdfrwt beam="2">  1        3 0.33410352E-01 0.91505787E+02</pdfrwt>
<pdfrwt beam="1">  1       -3 0.14829597E-02 0.91505787E+02</pdfrwt>
<totfact> 0.26906845E+04</totfact>
</mgrwt>
</event>
<event>
 7    1  0.1247599E-009  0.8916006E+02  0.7818608E-02  0.1304899E+00
         -3   -1    0    0    0  501 -0.00000000000E+00  0.00000000000E+00  0.54209731540E+02  0.54209825628E+02  0.10100000000E+00 0.  1.
          3   -1    0    0  501    0  0.00000000000E+00 -0.00000000000E+00 -0.36660729965E+02  0.36660869092E+02  0.10100000000E+00 0. -1.
         23    2    1    2    0    0  0.00000000000E+00 -0.71054273576E-14  0.17549001575E+02  0.90870694720E+02  0.89160056654E+02 0.  0.
    9000005    2    3    3    0    0 -0.21553354615E+02 -0.33325371860E+02  0.29302603383E+02  0.49478972597E+02  0.37945565576E+01 0.  0.
         22    1    3    3    0    0  0.21553354615E+02  0.33325371860E+02 -0.11753601808E+02  0.41391722122E+02  0.00000000000E+00 0. -1.
         22    1    4    4    0    0 -0.14734251202E+02 -0.24659102130E+02  0.22823701984E+02  0.36689110763E+02  0.00000000000E+00 0.  1.
         22    1    4    4    0    0 -0.68191034133E+01 -0.86662697305E+01  0.64789013996E+01  0.12789861835E+02  0.00000000000E+00 0.  1.
<mgrwt>
<rscale>  0 0.89160057E+02</rscale>
<asrwt>0</asrwt>
<pdfrwt beam="2">  1        3 0.56401303E-02 0.89160057E+02</pdfrwt>
<pdfrwt beam="1">  1       -3 0.83399766E-02 0.89160057E+02</pdfrwt>
<totfact> 0.37578707E+04</totfact>
</mgrwt>
</event>
<event>
 7    1  0.1247599E-009  0.9193015E+02  0.7818608E-02  0.1298244E+00
          3   -1    0    0  501    0  0.00000000000E+00  0.00000000000E+00  0.52003175458E+02  0.52003273538E+02  0.10100000000E+00 0. -1.
         -3   -1    0    0    0  501 -0.00000000000E+00 -0.00000000000E+00 -0.40627862012E+02  0.40627987554E+02  0.10100000000E+00 0.  1.
         23    2    1    2    0    0  0.00000000000E+00  0.00000000000E+00  0.11375313446E+02  0.92631261092E+02  0.91930151612E+02 0.  0.
    9000005    2    3    3    0    0 -0.33134885262E+02  0.20437631943E+02 -0.18157000933E+02  0.43766396277E+02  0.83787433075E+01 0.  0.
         22    1    3    3    0    0  0.33134885262E+02 -0.20437631943E+02  0.29532314379E+02  0.48864864815E+02  0.00000000000E+00 0. -1.
         22    1    4    4    0    0 -0.25983069884E+02  0.18721425307E+02 -0.17193505441E+02  0.36348704454E+02  0.00000000000E+00 0.  1.
         22    1    4    4    0    0 -0.71518153784E+01  0.17162066361E+01 -0.96349549241E+00  0.74176918235E+01  0.00000000000E+00 0.  1.
<mgrwt>
<rscale>  0 0.91930152E+02</rscale>
<asrwt>0</asrwt>
<pdfrwt beam="1">  1        3 0.80005057E-02 0.91930152E+02</pdfrwt>
<pdfrwt beam="2">  1       -3 0.62504575E-02 0.91930152E+02</pdfrwt>
<totfact> 0.34444797E+04</totfact>
</mgrwt>
</event>
<event>
 7    1  0.1247599E-009  0.8962303E+02  0.7818608E-02  0.1303767E+00
          3   -1    0    0  501    0  0.00000000000E+00  0.00000000000E+00  0.11104269696E+02  0.11104729015E+02  0.10100000000E+00 0. -1.
         -3   -1    0    0    0  501 -0.00000000000E+00 -0.00000000000E+00 -0.18083360651E+03  0.18083363472E+03  0.10100000000E+00 0.  1.
         23    2    1    2    0    0  0.71054273576E-14  0.00000000000E+00 -0.16972933682E+03  0.19193836373E+03  0.89623031060E+02 0.  0.
    9000005    2    3    3    0    0  0.33627165471E+02  0.26629442537E+02 -0.10434674612E+03  0.11374119861E+03  0.14453489800E+02 0.  0.
         22    1    3    3    0    0 -0.33627165471E+02 -0.26629442537E+02 -0.65382590699E+02  0.78197165127E+02  0.00000000000E+00 0.  1.
         22    1    4    4    0    0  0.11876702022E+02  0.15451218304E+02 -0.33060446239E+02  0.38376937130E+02  0.00000000000E+00 0. -1.
         22    1    4    4    0    0  0.21750463449E+02  0.11178224233E+02 -0.71286299879E+02  0.75364261475E+02  0.00000000000E+00 0. -1.
<mgrwt>
<rscale>  0 0.89623031E+02</rscale>
<asrwt>0</asrwt>
<pdfrwt beam="1">  1        3 0.17083868E-02 0.89623031E+02</pdfrwt>
<pdfrwt beam="2">  1       -3 0.27820590E-01 0.89623031E+02</pdfrwt>
<totfact> 0.30290166E+04</totfact>
</mgrwt>
</event>
<event>
 7    1  0.1247599E-009  0.9127253E+02  0.7818608E-02  0.1299799E+00
          3   -1    0    0  501    0  0.00000000000E+00  0.00000000000E+00  0.51967585528E+02  0.51967683676E+02  0.10100000000E+00 0. -1.
         -3   -1    0    0    0  501 -0.00000000000E+00 -0.00000000000E+00 -0.40076106376E+02  0.40076233646E+02  0.10100000000E+00 0.  1.
         23    2    1    2    0    0  0.00000000000E+00  0.00000000000E+00  0.11891479152E+02  0.92043917322E+02  0.91272533873E+02 0.  0.
    9000005    2    3    3    0    0  0.36142468552E+02  0.18978159106E+02 -0.11555099710E+02  0.44967483554E+02  0.14903210788E+02 0.  0.
         22    1    3    3    0    0 -0.36142468552E+02 -0.18978159106E+02  0.23446578862E+02  0.47076433769E+02  0.00000000000E+00 0. -1.
         22    1    4    4    0    0  0.17818837400E+02  0.12603106906E+02  0.10171761080E+01  0.21849117080E+02  0.00000000000E+00 0.  1.
         22    1    4    4    0    0  0.18323631152E+02  0.63750522000E+01 -0.12572275818E+02  0.23118366473E+02  0.00000000000E+00 0.  1.
<mgrwt>
<rscale>  0 0.91272534E+02</rscale>
<asrwt>0</asrwt>
<pdfrwt beam="1">  1        3 0.79950305E-02 0.91272534E+02</pdfrwt>
<pdfrwt beam="2">  1       -3 0.61655722E-02 0.91272534E+02</pdfrwt>
<totfact> 0.35171538E+04</totfact>
</mgrwt>
</event>
<event>
 7    1  0.1247599E-009  0.8292348E+02  0.7818608E-02  0.1320954E+00
          3   -1    0    0  501    0  0.00000000000E+00  0.00000000000E+00  0.81995328486E+02  0.81995390691E+02  0.10100000000E+00 0. -1.
         -3   -1    0    0    0  501 -0.00000000000E+00 -0.00000000000E+00 -0.20965340495E+02  0.20965583776E+02  0.10100000000E+00 0.  1.
         23    2    1    2    0    0  0.22204460493E-15  0.00000000000E+00  0.61029987991E+02  0.10296097447E+03  0.82923475740E+02 0.  0.
    9000005    2    3    3    0    0  0.18974691028E+01 -0.15252308667E+02 -0.17208091091E+02  0.23227478826E+02  0.26765770960E+01 0.  0.
         22    1    3    3    0    0 -0.18974691028E+01  0.15252308667E+02  0.78238079082E+02  0.79733495641E+02  0.00000000000E+00 0. -1.
         22    1    4    4    0    0  0.20023665416E+01 -0.69756439017E+01 -0.69748785090E+01  0.10065684767E+02  0.00000000000E+00 0. -1.
         22    1    4    4    0    0 -0.10489743873E+00 -0.82766647649E+01 -0.10233212582E+02  0.13161794059E+02  0.00000000000E+00 0. -1.
<mgrwt>
<rscale>  0 0.82923476E+02</rscale>
<asrwt>0</asrwt>
<pdfrwt beam="1">  1        3 0.12614689E-01 0.82923476E+02</pdfrwt>
<pdfrwt beam="2">  1       -3 0.32254606E-02 0.82923476E+02</pdfrwt>
<totfact> 0.44521100E+04</totfact>
</mgrwt>
</event>
<event>
 7    1  0.1247599E-009  0.8919552E+02  0.7818608E-02  0.1304812E+00
         -3   -1    0    0    0  501 -0.00000000000E+00  0.00000000000E+00  0.87043154863E+02  0.87043213460E+02  0.10100000000E+00 0.  1.
          3   -1    0    0  501    0  0.00000000000E+00 -0.00000000000E+00 -0.22850100066E+02  0.22850323280E+02  0.10100000000E+00 0. -1.
         23    2    1    2    0    0  0.00000000000E+00  0.00000000000E+00  0.64193054797E+02  0.10989353674E+03  0.89195521935E+02 0.  0.
    9000005    2    3    3    0    0 -0.39526817273E+02 -0.19652109677E+02  0.32411644621E+02  0.55500221607E+02  0.90102826207E+01 0.  0.
         22    1    3    3    0    0  0.39526817273E+02  0.19652109677E+02  0.31781410176E+02  0.54393315134E+02  0.00000000000E+00 0.  1.
         22    1    4    4    0    0 -0.19332045536E+02 -0.60362677075E+01  0.10873132173E+02  0.22986724771E+02  0.00000000000E+00 0.  1.
         22    1    4    4    0    0 -0.20194771737E+02 -0.13615841969E+02  0.21538512448E+02  0.32513496836E+02  0.00000000000E+00 0.  1.
<mgrwt>
<rscale>  0 0.89195522E+02</rscale>
<asrwt>0</asrwt>
<pdfrwt beam="2">  1        3 0.35154217E-02 0.89195522E+02</pdfrwt>
<pdfrwt beam="1">  1       -3 0.13391276E-01 0.89195522E+02</pdfrwt>
<totfact> 0.36037746E+04</totfact>
</mgrwt>
</event>
<event>
 7    1  0.1247599E-009  0.9299650E+02  0.7818608E-02  0.1295753E+00
          3   -1    0    0  501    0  0.00000000000E+00  0.00000000000E+00  0.63894605268E+02  0.63894685094E+02  0.10100000000E+00 0. -1.
         -3   -1    0    0    0  501 -0.00000000000E+00 -0.00000000000E+00 -0.33838160338E+02  0.33838311070E+02  0.10100000000E+00 0.  1.
         23    2    1    2    0    0 -0.71054273576E-14  0.00000000000E+00  0.30056444929E+02  0.97732996164E+02  0.92996498092E+02 0.  0.
    9000005    2    3    3    0    0 -0.40270908643E+02 -0.19967223069E+02  0.97355074763E+01  0.48403729203E+02  0.15089891149E+02 0.  0.
         22    1    3    3    0    0  0.40270908643E+02  0.19967223069E+02  0.20320937453E+02  0.49329266962E+02  0.00000000000E+00 0. -1.
         22    1    4    4    0    0 -0.58788791232E+01 -0.99400344212E+01  0.32547154596E+01  0.11998278075E+02  0.00000000000E+00 0. -1.
         22    1    4    4    0    0 -0.34392029519E+02 -0.10027188648E+02  0.64807920168E+01  0.36405451128E+02  0.00000000000E+00 0. -1.
<mgrwt>
<rscale>  0 0.92996498E+02</rscale>
<asrwt>0</asrwt>
<pdfrwt beam="1">  1        3 0.98299570E-02 0.92996498E+02</pdfrwt>
<pdfrwt beam="2">  1       -3 0.52058885E-02 0.92996498E+02</pdfrwt>
<totfact> 0.33010418E+04</totfact>
</mgrwt>
</event>
<event>
 7    1  0.1247599E-009  0.9231563E+02  0.7818608E-02  0.1297339E+00
         -3   -1    0    0    0  501 -0.00000000000E+00  0.00000000000E+00  0.93073679453E+02  0.93073734254E+02  0.10100000000E+00 0.  1.
          3   -1    0    0  501    0  0.00000000000E+00 -0.00000000000E+00 -0.22890767924E+02  0.22890990742E+02  0.10100000000E+00 0. -1.
         23    2    1    2    0    0  0.00000000000E+00  0.00000000000E+00  0.70182911529E+02  0.11596472500E+03  0.92315634498E+02 0.  0.
    9000005    2    3    3    0    0 -0.16252340675E+02  0.29164704625E+01 -0.16876049028E+02  0.27353738146E+02  0.13812370629E+02 0.  0.
         22    1    3    3    0    0  0.16252340675E+02 -0.29164704625E+01  0.87058960557E+02  0.88610986850E+02  0.00000000000E+00 0.  1.
         22    1    4    4    0    0 -0.95372363057E+01  0.13659783840E+01 -0.17956337798E+02  0.20377802639E+02  0.00000000000E+00 0. -1.
         22    1    4    4    0    0 -0.67151043690E+01  0.15504920785E+01  0.10802887696E+01  0.69759355070E+01  0.00000000000E+00 0. -1.
<mgrwt>
<rscale>  0 0.92315634E+02</rscale>
<asrwt>0</asrwt>
<pdfrwt beam="2">  1        3 0.35216780E-02 0.92315634E+02</pdfrwt>
<pdfrwt beam="1">  1       -3 0.14319049E-01 0.92315634E+02</pdfrwt>
<totfact> 0.32411949E+04</totfact>
</mgrwt>
</event>
<event>
 7    1  0.1247599E-009  0.9109362E+02  0.7818608E-02  0.1300225E+00
          3   -1    0    0  501    0  0.00000000000E+00  0.00000000000E+00  0.56180605018E+01  0.56189683041E+01  0.10100000000E+00 0. -1.
         -3   -1    0    0    0  501 -0.00000000000E+00 -0.00000000000E+00 -0.36922691595E+03  0.36922692977E+03  0.10100000000E+00 0.  1.
         23    2    1    2    0    0  0.44408920985E-15  0.00000000000E+00 -0.36360885545E+03  0.37484589807E+03  0.91093619635E+02 0.  0.
    9000005    2    3    3    0    0 -0.26384119069E+01  0.43071345781E+02 -0.13342506473E+03  0.14065221849E+03  0.10894797996E+02 0.  0.
         22    1    3    3    0    0  0.26384119069E+01 -0.43071345781E+02 -0.23018379072E+03  0.23419367958E+03  0.00000000000E+00 0.  1.
         22    1    4    4    0    0  0.73358113798E+00  0.74876655970E+00 -0.60255656811E+00  0.12090769474E+01  0.00000000000E+00 0. -1.
         22    1    4    4    0    0 -0.33719930449E+01  0.42322579221E+02 -0.13282250817E+03  0.13944314155E+03  0.00000000000E+00 0. -1.
<mgrwt>
<rscale>  0 0.91093620E+02</rscale>
<asrwt>0</asrwt>
<pdfrwt beam="1">  1        3 0.86438818E-03 0.91093620E+02</pdfrwt>
<pdfrwt beam="2">  1       -3 0.56804193E-01 0.91093620E+02</pdfrwt>
<totfact> 0.21436481E+04</totfact>
</mgrwt>
</event>
<event>
 7    1  0.1247599E-009  0.9170258E+02  0.7818608E-02  0.1298780E+00
         -3   -1    0    0    0  501 -0.00000000000E+00  0.00000000000E+00  0.75765918048E+01  0.75772649668E+01  0.10100000000E+00 0.  1.
          3   -1    0    0  501    0  0.00000000000E+00 -0.00000000000E+00 -0.27746539889E+03  0.27746541727E+03  0.10100000000E+00 0. -1.
         23    2    1    2    0    0  0.00000000000E+00  0.00000000000E+00 -0.26988880708E+03  0.28504268223E+03  0.91702576344E+02 0.  0.
    9000005    2    3    3    0    0 -0.35659091409E+02 -0.92009480994E+01 -0.21924797819E+03  0.22242701490E+03  0.69190148940E+01 0.  0.
         22    1    3    3    0    0  0.35659091409E+02  0.92009480994E+01 -0.50640828886E+02  0.62615667339E+02  0.00000000000E+00 0. -1.
         22    1    4    4    0    0 -0.19778313082E+02 -0.40972899381E+01 -0.10014229468E+03  0.10215893812E+03  0.00000000000E+00 0.  1.
         22    1    4    4    0    0 -0.15880778326E+02 -0.51036581613E+01 -0.11910568351E+03  0.12026807678E+03  0.00000000000E+00 0.  1.
<mgrwt>
<rscale>  0 0.91702576E+02</rscale>
<asrwt>0</asrwt>
<pdfrwt beam="2">  1        3 0.42687030E-01 0.91702576E+02</pdfrwt>
<pdfrwt beam="1">  1       -3 0.11656829E-02 0.91702576E+02</pdfrwt>
<totfact> 0.24243757E+04</totfact>
</mgrwt>
</event>
<event>
 7    1  0.1247599E-009  0.9153834E+02  0.7818608E-02  0.1299169E+00
         -3   -1    0    0    0  501 -0.00000000000E+00  0.00000000000E+00  0.14527339126E+03  0.14527342637E+03  0.10100000000E+00 0.  1.
          3   -1    0    0  501    0  0.00000000000E+00 -0.00000000000E+00 -0.14419611978E+02  0.14419965694E+02  0.10100000000E+00 0. -1.
         23    2    1    2    0    0  0.00000000000E+00 -0.17763568394E-14  0.13085377928E+03  0.15969339206E+03  0.91538341235E+02 0.  0.
    9000005    2    3    3    0    0 -0.38116455916E+02 -0.12540489608E+02  0.28702824849E+02  0.49943924717E+02  0.77727325073E+01 0.  0.
         22    1    3    3    0    0  0.38116455916E+02  0.12540489608E+02  0.10215095443E+03  0.10974946734E+03  0.00000000000E+00 0.  1.
         22    1    4    4    0    0 -0.35168157676E+02 -0.97425722273E+01  0.27533629998E+02  0.45714525140E+02  0.00000000000E+00 0.  1.
         22    1    4    4    0    0 -0.29482982402E+01 -0.27979173807E+01  0.11691948508E+01  0.42293995770E+01  0.00000000000E+00 0.  1.
<mgrwt>
<rscale>  0 0.91538341E+02</rscale>
<asrwt>0</asrwt>
<pdfrwt beam="2">  1        3 0.22184317E-02 0.91538341E+02</pdfrwt>
<pdfrwt beam="1">  1       -3 0.22349783E-01 0.91538341E+02</pdfrwt>
<totfact> 0.30397258E+04</totfact>
</mgrwt>
</event>
<event>
 7    1  0.1247599E-009  0.9256976E+02  0.7818608E-02  0.1296745E+00
         -3   -1    0    0    0  501 -0.00000000000E+00  0.00000000000E+00  0.28310691986E+02  0.28310872147E+02  0.10100000000E+00 0.  1.
          3   -1    0    0  501    0  0.00000000000E+00 -0.00000000000E+00 -0.75670251091E+02  0.75670318495E+02  0.10100000000E+00 0. -1.
         23    2    1    2    0    0  0.00000000000E+00  0.00000000000E+00 -0.47359559105E+02  0.10398119064E+03  0.92569758391E+02 0.  0.
    9000005    2    3    3    0    0 -0.38559480956E+02  0.22449717473E+02 -0.31960336042E+02  0.56779925222E+02  0.14549001413E+02 0.  0.
         22    1    3    3    0    0  0.38559480956E+02 -0.22449717473E+02 -0.15399223063E+02  0.47201265419E+02  0.00000000000E+00 0.  1.
         22    1    4    4    0    0 -0.31629341862E+02  0.20208306396E+02 -0.32256766295E+02  0.49490300927E+02  0.00000000000E+00 0. -1.
         22    1    4    4    0    0 -0.69301390936E+01  0.22414110766E+01  0.29643025251E+00  0.72896242953E+01  0.00000000000E+00 0. -1.
<mgrwt>
<rscale>  0 0.92569758E+02</rscale>
<asrwt>0</asrwt>
<pdfrwt beam="2">  1        3 0.11641596E-01 0.92569758E+02</pdfrwt>
<pdfrwt beam="1">  1       -3 0.43555101E-02 0.92569758E+02</pdfrwt>
<totfact> 0.32985850E+04</totfact>
</mgrwt>
</event>
<event>
 7    1  0.1247599E-009  0.9151981E+02  0.7818608E-02  0.1299212E+00
          3   -1    0    0  501    0  0.00000000000E+00  0.00000000000E+00  0.47912098599E+02  0.47912205054E+02  0.10100000000E+00 0. -1.
         -3   -1    0    0    0  501 -0.00000000000E+00 -0.00000000000E+00 -0.43704169578E+02  0.43704286283E+02  0.10100000000E+00 0.  1.
         23    2    1    2    0    0 -0.71054273576E-14  0.00000000000E+00  0.42079290213E+01  0.91616491337E+02  0.91519805607E+02 0.  0.
    9000005    2    3    3    0    0 -0.33184811448E+02  0.21531386727E+02 -0.20796653165E+02  0.44818398902E+02  0.33698326439E+01 0.  0.
         22    1    3    3    0    0  0.33184811448E+02 -0.21531386727E+02  0.25004582186E+02  0.46798092435E+02  0.00000000000E+00 0. -1.
         22    1    4    4    0    0 -0.23330088778E+02  0.15218217343E+02 -0.12877457650E+02  0.30687393128E+02  0.00000000000E+00 0. -1.
         22    1    4    4    0    0 -0.98547226707E+01  0.63131693845E+01 -0.79191955143E+01  0.14131005774E+02  0.00000000000E+00 0. -1.
<mgrwt>
<rscale>  0 0.91519806E+02</rscale>
<asrwt>0</asrwt>
<pdfrwt beam="1">  1        3 0.73711092E-02 0.91519806E+02</pdfrwt>
<pdfrwt beam="2">  1       -3 0.67237356E-02 0.91519806E+02</pdfrwt>
<totfact> 0.34944737E+04</totfact>
</mgrwt>
</event>
<event>
 7    1  0.1247599E-009  0.9161669E+02  0.7818608E-02  0.1298983E+00
         -3   -1    0    0    0  501 -0.00000000000E+00  0.00000000000E+00  0.12363385202E+02  0.12363797744E+02  0.10100000000E+00 0.  1.
          3   -1    0    0  501    0  0.00000000000E+00 -0.00000000000E+00 -0.16972408159E+03  0.16972411164E+03  0.10100000000E+00 0. -1.
         23    2    1    2    0    0  0.00000000000E+00  0.33306690739E-15 -0.15736069639E+03  0.18208790938E+03  0.91616690493E+02 0.  0.
    9000005    2    3    3    0    0  0.21863588505E+02 -0.89043117972E+00 -0.15816299560E+03  0.16019149292E+03  0.12921758965E+02 0.  0.
         22    1    3    3    0    0 -0.21863588505E+02  0.89043117972E+00  0.80229921905E+00  0.21896416466E+02  0.00000000000E+00 0.  1.
         22    1    4    4    0    0  0.26636137223E+01  0.31931807977E+01 -0.56367934658E+02  0.56521104901E+02  0.00000000000E+00 0.  1.
         22    1    4    4    0    0  0.19199974782E+02 -0.40836119774E+01 -0.10179506095E+03  0.10367038802E+03  0.00000000000E+00 0.  1.
<mgrwt>
<rscale>  0 0.91616690E+02</rscale>
<asrwt>0</asrwt>
<pdfrwt beam="2">  1        3 0.26111429E-01 0.91616690E+02</pdfrwt>
<pdfrwt beam="1">  1       -3 0.19020934E-02 0.91616690E+02</pdfrwt>
<totfact> 0.29070398E+04</totfact>
</mgrwt>
</event>
<event>
 7    1  0.1247599E-009  0.9560543E+02  0.7818608E-02  0.1289818E+00
          3   -1    0    0  501    0  0.00000000000E+00  0.00000000000E+00  0.46847581117E+02  0.46847689991E+02  0.10100000000E+00 0. -1.
         -3   -1    0    0    0  501 -0.00000000000E+00 -0.00000000000E+00 -0.48777105501E+02  0.48777210068E+02  0.10100000000E+00 0.  1.
         23    2    1    2    0    0  0.00000000000E+00  0.35527136788E-14 -0.19295243836E+01  0.95624900059E+02  0.95605431054E+02 0.  0.
    9000005    2    3    3    0    0  0.22960764874E+02  0.19216530512E+02 -0.37297340970E+02  0.49285346559E+02  0.11894619516E+02 0.  0.
         22    1    3    3    0    0 -0.22960764874E+02 -0.19216530512E+02  0.35367816587E+02  0.46339553500E+02  0.00000000000E+00 0. -1.
         22    1    4    4    0    0  0.23523984442E+02  0.19621212934E+02 -0.37625136843E+02  0.48518251859E+02  0.00000000000E+00 0.  1.
         22    1    4    4    0    0 -0.56321956766E+00 -0.40468242224E+00  0.32779587243E+00  0.76709469966E+00  0.00000000000E+00 0.  1.
<mgrwt>
<rscale>  0 0.95605431E+02</rscale>
<asrwt>0</asrwt>
<pdfrwt beam="1">  1        3 0.72073366E-02 0.95605431E+02</pdfrwt>
<pdfrwt beam="2">  1       -3 0.75041865E-02 0.95605431E+02</pdfrwt>
<totfact> 0.30741539E+04</totfact>
</mgrwt>
</event>
<event>
 7    1  0.1247599E-009  0.8878508E+02  0.7818608E-02  0.1305821E+00
          3   -1    0    0  501    0  0.00000000000E+00  0.00000000000E+00  0.12383551951E+03  0.12383556069E+03  0.10100000000E+00 0. -1.
         -3   -1    0    0    0  501 -0.00000000000E+00 -0.00000000000E+00 -0.15913627486E+02  0.15913947994E+02  0.10100000000E+00 0.  1.
         23    2    1    2    0    0  0.00000000000E+00  0.00000000000E+00  0.10792189202E+03  0.13974950869E+03  0.88785079836E+02 0.  0.
    9000005    2    3    3    0    0  0.11817182097E+02  0.28715706111E+02  0.53056352423E+01  0.32537878138E+02  0.81440885453E+01 0.  0.
         22    1    3    3    0    0 -0.11817182097E+02 -0.28715706111E+02  0.10261625678E+03  0.10721163055E+03  0.00000000000E+00 0. -1.
         22    1    4    4    0    0  0.50756313278E+01  0.39884547575E+01  0.14987399122E+01  0.66269167833E+01  0.00000000000E+00 0. -1.
         22    1    4    4    0    0  0.67415507695E+01  0.24727251354E+02  0.38068953302E+01  0.25910961355E+02  0.00000000000E+00 0. -1.
<mgrwt>
<rscale>  0 0.88785080E+02</rscale>
<asrwt>0</asrwt>
<pdfrwt beam="1">  1        3 0.19051647E-01 0.88785080E+02</pdfrwt>
<pdfrwt beam="2">  1       -3 0.24482782E-02 0.88785080E+02</pdfrwt>
<totfact> 0.34325195E+04</totfact>
</mgrwt>
</event>
<event>
 7    1  0.1247599E-009  0.9208467E+02  0.7818608E-02  0.1297880E+00
          3   -1    0    0  501    0  0.00000000000E+00  0.00000000000E+00  0.16492088767E+02  0.16492398034E+02  0.10100000000E+00 0. -1.
         -3   -1    0    0    0  501 -0.00000000000E+00 -0.00000000000E+00 -0.12853866577E+03  0.12853870545E+03  0.10100000000E+00 0.  1.
         23    2    1    2    0    0  0.00000000000E+00  0.00000000000E+00 -0.11204657700E+03  0.14503110348E+03  0.92084665172E+02 0.  0.
    9000005    2    3    3    0    0  0.32761331495E+02 -0.24695732879E+02 -0.86127247122E+02  0.96502805294E+02  0.14550074532E+02 0.  0.
         22    1    3    3    0    0 -0.32761331495E+02  0.24695732879E+02 -0.25919329879E+02  0.48528298189E+02  0.00000000000E+00 0. -1.
         22    1    4    4    0    0  0.20039488997E+02 -0.11715099981E+02 -0.32951107845E+02  0.40306329466E+02  0.00000000000E+00 0. -1.
         22    1    4    4    0    0  0.12721842498E+02 -0.12980632899E+02 -0.53176139277E+02  0.56196475828E+02  0.00000000000E+00 0. -1.
<mgrwt>
<rscale>  0 0.92084665E+02</rscale>
<asrwt>0</asrwt>
<pdfrwt beam="1">  1        3 0.25372713E-02 0.92084665E+02</pdfrwt>
<pdfrwt beam="2">  1       -3 0.19775206E-01 0.92084665E+02</pdfrwt>
<totfact> 0.30775940E+04</totfact>
</mgrwt>
</event>
<event>
 7    1  0.1247599E-009  0.9075034E+02  0.7818608E-02  0.1301045E+00
          3   -1    0    0  501    0  0.00000000000E+00  0.00000000000E+00  0.61653668362E+02  0.61653751090E+02  0.10100000000E+00 0. -1.
         -3   -1    0    0    0  501 -0.00000000000E+00 -0.00000000000E+00 -0.33394523513E+02  0.33394676247E+02  0.10100000000E+00 0.  1.
         23    2    1    2    0    0 -0.35527136788E-14  0.00000000000E+00  0.28259144849E+02  0.95048427337E+02  0.90750340339E+02 0.  0.
    9000005    2    3    3    0    0  0.20838091384E+02 -0.53362073398E+01 -0.26572939691E+02  0.36148014297E+02  0.11741237264E+02 0.  0.
         22    1    3    3    0    0 -0.20838091384E+02  0.53362073398E+01  0.54832084540E+02  0.58900413040E+02  0.00000000000E+00 0. -1.
         22    1    4    4    0    0 -0.75394293111E+00 -0.95395739457E+00 -0.55966745835E+01  0.57272358994E+01  0.00000000000E+00 0. -1.
         22    1    4    4    0    0  0.21592034315E+02 -0.43822499452E+01 -0.20976265108E+02  0.30420778397E+02  0.00000000000E+00 0. -1.
<mgrwt>
<rscale>  0 0.90750340E+02</rscale>
<asrwt>0</asrwt>
<pdfrwt beam="1">  1        3 0.94851977E-02 0.90750340E+02</pdfrwt>
<pdfrwt beam="2">  1       -3 0.51376372E-02 0.90750340E+02</pdfrwt>
<totfact> 0.35492476E+04</totfact>
</mgrwt>
</event>
<event>
 7    1  0.1247599E-009  0.9068702E+02  0.7818608E-02  0.1301196E+00
          3   -1    0    0  501    0  0.00000000000E+00  0.00000000000E+00  0.36424272855E+03  0.36424274256E+03  0.10100000000E+00 0. -1.
         -3   -1    0    0    0  501 -0.00000000000E+00 -0.00000000000E+00 -0.56442141878E+01  0.56451177842E+01  0.10100000000E+00 0.  1.
         23    2    1    2    0    0  0.00000000000E+00  0.00000000000E+00  0.35859851437E+03  0.36988786034E+03  0.90687015180E+02 0.  0.
    9000005    2    3    3    0    0 -0.38796556317E+02  0.16702182604E+02  0.13089832716E+03  0.13830307902E+03  0.14464920579E+02 0.  0.
         22    1    3    3    0    0  0.38796556317E+02 -0.16702182604E+02  0.22770018720E+03  0.23158478132E+03  0.00000000000E+00 0. -1.
         22    1    4    4    0    0 -0.38830102289E+01 -0.26732790092E+01  0.14356837378E+02  0.15111021428E+02  0.00000000000E+00 0. -1.
         22    1    4    4    0    0 -0.34913546089E+02  0.19375461613E+02  0.11654148979E+03  0.12319205760E+03  0.00000000000E+00 0. -1.
<mgrwt>
<rscale>  0 0.90687015E+02</rscale>
<asrwt>0</asrwt>
<pdfrwt beam="1">  1        3 0.56037423E-01 0.90687015E+02</pdfrwt>
<pdfrwt beam="2">  1       -3 0.86841108E-03 0.90687015E+02</pdfrwt>
<totfact> 0.21869536E+04</totfact>
</mgrwt>
</event>
<event>
 7    1  0.1247599E-009  0.9415899E+02  0.7818608E-02  0.1293082E+00
         -3   -1    0    0    0  501 -0.00000000000E+00  0.00000000000E+00  0.27561903329E+02  0.27562088385E+02  0.10100000000E+00 0.  1.
          3   -1    0    0  501    0  0.00000000000E+00 -0.00000000000E+00 -0.80417721474E+02  0.80417784899E+02  0.10100000000E+00 0. -1.
         23    2    1    2    0    0  0.00000000000E+00  0.00000000000E+00 -0.52855818144E+02  0.10797987328E+03  0.94158990663E+02 0.  0.
    9000005    2    3    3    0    0  0.10949238310E+02  0.14767185164E+02 -0.76014599696E+02  0.78411566937E+02  0.56744061531E+01 0.  0.
         22    1    3    3    0    0 -0.10949238310E+02 -0.14767185164E+02  0.23158781552E+02  0.29568306347E+02  0.00000000000E+00 0.  1.
         22    1    4    4    0    0  0.78008996947E+01  0.65737458904E+01 -0.34369668644E+02  0.35851670725E+02  0.00000000000E+00 0. -1.
         22    1    4    4    0    0  0.31483386150E+01  0.81934392739E+01 -0.41644931052E+02  0.42559896211E+02  0.00000000000E+00 0. -1.
<mgrwt>
<rscale>  0 0.94158991E+02</rscale>
<asrwt>0</asrwt>
<pdfrwt beam="2">  1        3 0.12371976E-01 0.94158991E+02</pdfrwt>
<pdfrwt beam="1">  1       -3 0.42403120E-02 0.94158991E+02</pdfrwt>
<totfact> 0.31223613E+04</totfact>
</mgrwt>
</event>
<event>
 7    1  0.1247599E-009  0.8933073E+02  0.7818608E-02  0.1304481E+00
          3   -1    0    0  501    0  0.00000000000E+00  0.00000000000E+00  0.64786454052E+02  0.64786532780E+02  0.10100000000E+00 0. -1.
         -3   -1    0    0    0  501 -0.00000000000E+00 -0.00000000000E+00 -0.30793211433E+02  0.30793377069E+02  0.10100000000E+00 0.  1.
         23    2    1    2    0    0  0.00000000000E+00  0.71054273576E-14  0.33993242619E+02  0.95579909849E+02  0.89330726086E+02 0.  0.
    9000005    2    3    3    0    0 -0.13935718981E+02 -0.40161906593E+02  0.67332308684E+01  0.45079501481E+02  0.13403061261E+02 0.  0.
         22    1    3    3    0    0  0.13935718981E+02  0.40161906593E+02  0.27260011751E+02  0.50500408368E+02  0.00000000000E+00 0.  1.
         22    1    4    4    0    0 -0.15658127401E+02 -0.37051498639E+02  0.84949743244E+01  0.41111495885E+02  0.00000000000E+00 0. -1.
         22    1    4    4    0    0  0.17224084205E+01 -0.31104079542E+01 -0.17617434560E+01  0.39680055964E+01  0.00000000000E+00 0. -1.
<mgrwt>
<rscale>  0 0.89330726E+02</rscale>
<asrwt>0</asrwt>
<pdfrwt beam="1">  1        3 0.99671657E-02 0.89330726E+02</pdfrwt>
<pdfrwt beam="2">  1       -3 0.47374359E-02 0.89330726E+02</pdfrwt>
<totfact> 0.37001575E+04</totfact>
</mgrwt>
</event>
<event>
 7    1  0.1247599E-009  0.9083226E+02  0.7818608E-02  0.1300849E+00
          3   -1    0    0  501    0  0.00000000000E+00  0.00000000000E+00  0.82800162871E+01  0.82806322653E+01  0.10100000000E+00 0. -1.
         -3   -1    0    0    0  501 -0.00000000000E+00 -0.00000000000E+00 -0.24909889983E+03  0.24909892031E+03  0.10100000000E+00 0.  1.
         23    2    1    2    0    0  0.00000000000E+00 -0.71054273576E-14 -0.24081888354E+03  0.25737955257E+03  0.90832259748E+02 0.  0.
    9000005    2    3    3    0    0 -0.12708509240E+02  0.40617395962E+02 -0.75537402809E+02  0.86706628721E+02  0.92799740155E+00 0.  0.
         22    1    3    3    0    0  0.12708509240E+02 -0.40617395962E+02 -0.16528148073E+03  0.17067292385E+03  0.00000000000E+00 0.  1.
         22    1    4    4    0    0 -0.82270185371E+01  0.25456491791E+02 -0.48234504970E+02  0.55156905987E+02  0.00000000000E+00 0. -1.
         22    1    4    4    0    0 -0.44814907032E+01  0.15160904172E+02 -0.27302897838E+02  0.31549722734E+02  0.00000000000E+00 0. -1.
<mgrwt>
<rscale>  0 0.90832260E+02</rscale>
<asrwt>0</asrwt>
<pdfrwt beam="1">  1        3 0.12738978E-02 0.90832260E+02</pdfrwt>
<pdfrwt beam="2">  1       -3 0.38322951E-01 0.90832260E+02</pdfrwt>
<totfact> 0.26038348E+04</totfact>
</mgrwt>
</event>
<event>
 7    1  0.1247599E-009  0.9115362E+02  0.7818608E-02  0.1300082E+00
          3   -1    0    0  501    0  0.00000000000E+00  0.00000000000E+00  0.26863049057E+01  0.26882029399E+01  0.10100000000E+00 0. -1.
         -3   -1    0    0    0  501 -0.00000000000E+00 -0.00000000000E+00 -0.77299741737E+03  0.77299742397E+03  0.10100000000E+00 0.  1.
         23    2    1    2    0    0  0.00000000000E+00  0.00000000000E+00 -0.77031111246E+03  0.77568562691E+03  0.91153616528E+02 0.  0.
    9000005    2    3    3    0    0  0.39035176285E+02  0.14859098297E+02 -0.53973096319E+03  0.54135307896E+03  0.30175620673E+01 0.  0.
         22    1    3    3    0    0 -0.39035176285E+02 -0.14859098297E+02 -0.23058014927E+03  0.23433254795E+03  0.00000000000E+00 0. -1.
         22    1    4    4    0    0  0.28258016113E+01  0.13267196522E+01 -0.51276781344E+02  0.51371720283E+02  0.00000000000E+00 0.  1.
         22    1    4    4    0    0  0.36209374674E+02  0.13532378645E+02 -0.48845418185E+03  0.48998135868E+03  0.00000000000E+00 0.  1.
<mgrwt>
<rscale>  0 0.91153617E+02</rscale>
<asrwt>0</asrwt>
<pdfrwt beam="1">  1        3 0.41342480E-03 0.91153617E+02</pdfrwt>
<pdfrwt beam="2">  1       -3 0.11892265E+00 0.91153617E+02</pdfrwt>
<totfact> 0.12731422E+04</totfact>
</mgrwt>
</event>
<event>
 7    1  0.1247599E-009  0.8899031E+02  0.7818608E-02  0.1305315E+00
         -3   -1    0    0    0  501 -0.00000000000E+00  0.00000000000E+00  0.75354778139E+01  0.75361546484E+01  0.10100000000E+00 0.  1.
          3   -1    0    0  501    0  0.00000000000E+00 -0.00000000000E+00 -0.26272053761E+03  0.26272055702E+03  0.10100000000E+00 0. -1.
         23    2    1    2    0    0  0.00000000000E+00  0.00000000000E+00 -0.25518505979E+03  0.27025671167E+03  0.88990311050E+02 0.  0.
    9000005    2    3    3    0    0 -0.74350298587E+01 -0.40942159102E+02 -0.98040755552E+02  0.10769634622E+03  0.15967879578E+02 0.  0.
         22    1    3    3    0    0  0.74350298587E+01  0.40942159102E+02 -0.15714430424E+03  0.16256036545E+03  0.00000000000E+00 0. -1.
         22    1    4    4    0    0 -0.69404948298E+01 -0.42382385997E+02 -0.95812286953E+02  0.10499729255E+03  0.00000000000E+00 0. -1.
         22    1    4    4    0    0 -0.49453502889E+00  0.14402268956E+01 -0.22284685989E+01  0.26990536679E+01  0.00000000000E+00 0. -1.
<mgrwt>
<rscale>  0 0.88990311E+02</rscale>
<asrwt>0</asrwt>
<pdfrwt beam="2">  1        3 0.40418591E-01 0.88990311E+02</pdfrwt>
<pdfrwt beam="1">  1       -3 0.11593580E-02 0.88990311E+02</pdfrwt>
<totfact> 0.26925467E+04</totfact>
</mgrwt>
</event>
<event>
 7    1  0.1247599E-009  0.9203520E+02  0.7818608E-02  0.1297997E+00
         -3   -1    0    0    0  501 -0.00000000000E+00  0.00000000000E+00  0.19521873511E+02  0.19522134780E+02  0.10100000000E+00 0.  1.
          3   -1    0    0  501    0  0.00000000000E+00 -0.00000000000E+00 -0.10847319519E+03  0.10847324221E+03  0.10100000000E+00 0. -1.
         23    2    1    2    0    0 -0.71054273576E-14  0.00000000000E+00 -0.88951321677E+02  0.12799537699E+03  0.92035204691E+02 0.  0.
    9000005    2    3    3    0    0  0.41468803172E+02  0.18335803985E+02 -0.40002587642E+02  0.61273252413E+02  0.99167080662E+01 0.  0.
         22    1    3    3    0    0 -0.41468803172E+02 -0.18335803985E+02 -0.48948734035E+02  0.66722124576E+02  0.00000000000E+00 0.  1.
         22    1    4    4    0    0  0.27712241251E+01  0.45168023462E+01 -0.39673724243E+01  0.66197606104E+01  0.00000000000E+00 0. -1.
         22    1    4    4    0    0  0.38697579047E+02  0.13819001639E+02 -0.36035215218E+02  0.54653491803E+02  0.00000000000E+00 0. -1.
<mgrwt>
<rscale>  0 0.92035205E+02</rscale>
<asrwt>0</asrwt>
<pdfrwt beam="2">  1        3 0.16688207E-01 0.92035205E+02</pdfrwt>
<pdfrwt beam="1">  1       -3 0.30033889E-02 0.92035205E+02</pdfrwt>
<totfact> 0.31885197E+04</totfact>
</mgrwt>
</event>
<event>
 7    1  0.1247599E-009  0.9254211E+02  0.7818608E-02  0.1296810E+00
         -3   -1    0    0    0  501 -0.00000000000E+00  0.00000000000E+00  0.10434646402E+02  0.10435135195E+02  0.10100000000E+00 0.  1.
          3   -1    0    0  501    0  0.00000000000E+00 -0.00000000000E+00 -0.20517753831E+03  0.20517756317E+03  0.10100000000E+00 0. -1.
         23    2    1    2    0    0  0.00000000000E+00  0.00000000000E+00 -0.19474289191E+03  0.21561269837E+03  0.92542107968E+02 0.  0.
    9000005    2    3    3    0    0 -0.22554574973E+02  0.36786294273E+02 -0.60577085701E+02  0.74678657572E+02  0.67363407151E+01 0.  0.
         22    1    3    3    0    0  0.22554574973E+02 -0.36786294273E+02 -0.13416580621E+03  0.14093404079E+03  0.00000000000E+00 0.  1.
         22    1    4    4    0    0 -0.64127043860E+01  0.63770442981E+01 -0.15677913006E+02  0.18099348821E+02  0.00000000000E+00 0. -1.
         22    1    4    4    0    0 -0.16141870587E+02  0.30409249975E+02 -0.44899172695E+02  0.56579308752E+02  0.00000000000E+00 0. -1.
<mgrwt>
<rscale>  0 0.92542108E+02</rscale>
<asrwt>0</asrwt>
<pdfrwt beam="2">  1        3 0.31565812E-01 0.92542108E+02</pdfrwt>
<pdfrwt beam="1">  1       -3 0.16053699E-02 0.92542108E+02</pdfrwt>
<totfact> 0.26620410E+04</totfact>
</mgrwt>
</event>
<event>
 7    1  0.1247599E-009  0.8855530E+02  0.7818608E-02  0.1306388E+00
         -3   -1    0    0    0  501 -0.00000000000E+00  0.00000000000E+00  0.12233491620E+03  0.12233495789E+03  0.10100000000E+00 0.  1.
          3   -1    0    0  501    0  0.00000000000E+00 -0.00000000000E+00 -0.16025558084E+02  0.16025876354E+02  0.10100000000E+00 0. -1.
         23    2    1    2    0    0  0.00000000000E+00 -0.71054273576E-14  0.10630935812E+03  0.13836083425E+03  0.88555298150E+02 0.  0.
    9000005    2    3    3    0    0  0.19026379669E+02 -0.36727766316E+02  0.73292247952E+02  0.85435778692E+02  0.14716885843E+02 0.  0.
         22    1    3    3    0    0 -0.19026379669E+02  0.36727766316E+02  0.33017110163E+02  0.52925055554E+02  0.00000000000E+00 0.  1.
         22    1    4    4    0    0  0.49546676993E+01 -0.15905273695E+02  0.17068014714E+02  0.23850442126E+02  0.00000000000E+00 0.  1.
         22    1    4    4    0    0  0.14071711970E+02 -0.20822492621E+02  0.56224233238E+02  0.61585336566E+02  0.00000000000E+00 0.  1.
<mgrwt>
<rscale>  0 0.88555298E+02</rscale>
<asrwt>0</asrwt>
<pdfrwt beam="2">  1        3 0.24654982E-02 0.88555298E+02</pdfrwt>
<pdfrwt beam="1">  1       -3 0.18820784E-01 0.88555298E+02</pdfrwt>
<totfact> 0.34663687E+04</totfact>
</mgrwt>
</event>
<event>
 7    1  0.1247599E-009  0.9079617E+02  0.7818608E-02  0.1300935E+00
         -3   -1    0    0    0  501 -0.00000000000E+00  0.00000000000E+00  0.27369024583E+02  0.27369210943E+02  0.10100000000E+00 0.  1.
          3   -1    0    0  501    0  0.00000000000E+00 -0.00000000000E+00 -0.75303123135E+02  0.75303190868E+02  0.10100000000E+00 0. -1.
         23    2    1    2    0    0  0.22204460493E-15  0.00000000000E+00 -0.47934098552E+02  0.10267240181E+03  0.90796168914E+02 0.  0.
    9000005    2    3    3    0    0 -0.11410228001E+01 -0.17550813215E+02  0.22154246339E+02  0.30411007781E+02  0.11166278962E+02 0.  0.
         22    1    3    3    0    0  0.11410228001E+01  0.17550813215E+02 -0.70088344891E+02  0.72261394030E+02  0.00000000000E+00 0. -1.
         22    1    4    4    0    0 -0.85486642234E+00 -0.99270237420E+01  0.20218221883E+02  0.22540033121E+02  0.00000000000E+00 0. -1.
         22    1    4    4    0    0 -0.28615637774E+00 -0.76237894735E+01  0.19360244560E+01  0.78709746602E+01  0.00000000000E+00 0. -1.
<mgrwt>
<rscale>  0 0.90796169E+02</rscale>
<asrwt>0</asrwt>
<pdfrwt beam="2">  1        3 0.11585115E-01 0.90796169E+02</pdfrwt>
<pdfrwt beam="1">  1       -3 0.42106387E-02 0.90796169E+02</pdfrwt>
<totfact> 0.34868642E+04</totfact>
</mgrwt>
</event>
<event>
 7    1  0.1247599E-009  0.8892516E+02  0.7818608E-02  0.1305476E+00
          3   -1    0    0  501    0  0.00000000000E+00  0.00000000000E+00  0.64601072381E+03  0.64601073171E+03  0.10100000000E+00 0. -1.
         -3   -1    0    0    0  501 -0.00000000000E+00 -0.00000000000E+00 -0.30593571249E+01  0.30610238512E+01  0.10100000000E+00 0.  1.
         23    2    1    2    0    0  0.00000000000E+00  0.00000000000E+00  0.64295136669E+03  0.64907175556E+03  0.88925159202E+02 0.  0.
    9000005    2    3    3    0    0  0.31134385709E+02 -0.24832888458E+02  0.46013255854E+03  0.46196553189E+03  0.10205826994E+02 0.  0.
         22    1    3    3    0    0 -0.31134385709E+02  0.24832888458E+02  0.18281880815E+03  0.18710622367E+03  0.00000000000E+00 0. -1.
         22    1    4    4    0    0  0.15843944710E+02 -0.81561563474E+01  0.16247627110E+03  0.16345058012E+03  0.00000000000E+00 0. -1.
         22    1    4    4    0    0  0.15290440999E+02 -0.16676732111E+02  0.29765628744E+03  0.29851495177E+03  0.00000000000E+00 0. -1.
<mgrwt>
<rscale>  0 0.88925159E+02</rscale>
<asrwt>0</asrwt>
<pdfrwt beam="1">  1        3 0.99386414E-01 0.88925159E+02</pdfrwt>
<pdfrwt beam="2">  1       -3 0.47079905E-03 0.88925159E+02</pdfrwt>
<totfact> 0.15817981E+04</totfact>
</mgrwt>
</event>
<event>
 7    1  0.1247599E-009  0.9065274E+02  0.7818608E-02  0.1301279E+00
          3   -1    0    0  501    0  0.00000000000E+00  0.00000000000E+00  0.34785121588E+02  0.34785268217E+02  0.10100000000E+00 0. -1.
         -3   -1    0    0    0  501 -0.00000000000E+00 -0.00000000000E+00 -0.59061707727E+02  0.59061794086E+02  0.10100000000E+00 0.  1.
         23    2    1    2    0    0  0.71054273576E-14  0.35527136788E-14 -0.24276586139E+02  0.93847062302E+02  0.90652735580E+02 0.  0.
    9000005    2    3    3    0    0  0.37462313943E+02  0.16288838533E+02  0.44054788495E+01  0.43933015394E+02  0.15554753968E+02 0.  0.
         22    1    3    3    0    0 -0.37462313943E+02 -0.16288838533E+02 -0.28682064988E+02  0.49914046908E+02  0.00000000000E+00 0.  1.
         22    1    4    4    0    0  0.16473345616E+02  0.11362489940E+02  0.89137305348E+01  0.21907347750E+02  0.00000000000E+00 0. -1.
         22    1    4    4    0    0  0.20988968327E+02  0.49263485938E+01 -0.45082516853E+01  0.22025667644E+02  0.00000000000E+00 0. -1.
<mgrwt>
<rscale>  0 0.90652736E+02</rscale>
<asrwt>0</asrwt>
<pdfrwt beam="1">  1        3 0.53515751E-02 0.90652736E+02</pdfrwt>
<pdfrwt beam="2">  1       -3 0.90864345E-02 0.90652736E+02</pdfrwt>
<totfact> 0.35690465E+04</totfact>
</mgrwt>
</event>
<event>
 7    1  0.1247599E-009  0.8977359E+02  0.7818608E-02  0.1303401E+00
          3   -1    0    0  501    0  0.00000000000E+00  0.00000000000E+00  0.76017719390E+02  0.76017786486E+02  0.10100000000E+00 0. -1.
         -3   -1    0    0    0  501 -0.00000000000E+00 -0.00000000000E+00 -0.26504492957E+02  0.26504685395E+02  0.10100000000E+00 0.  1.
         23    2    1    2    0    0  0.00000000000E+00  0.00000000000E+00  0.49513226433E+02  0.10252247188E+03  0.89773591043E+02 0.  0.
    9000005    2    3    3    0    0 -0.40775863046E+02  0.10084092428E+02  0.10982101244E+02  0.45522405779E+02  0.13686597566E+02 0.  0.
         22    1    3    3    0    0  0.40775863046E+02 -0.10084092428E+02  0.38531125189E+02  0.57000066101E+02  0.00000000000E+00 0. -1.
         22    1    4    4    0    0 -0.16349523695E+02 -0.24804594104E+01  0.60863833689E+01  0.17621114223E+02  0.00000000000E+00 0. -1.
         22    1    4    4    0    0 -0.24426339351E+02  0.12564551839E+02  0.48957178755E+01  0.27901291557E+02  0.00000000000E+00 0. -1.
<mgrwt>
<rscale>  0 0.89773591E+02</rscale>
<asrwt>0</asrwt>
<pdfrwt beam="1">  1        3 0.11695054E-01 0.89773591E+02</pdfrwt>
<pdfrwt beam="2">  1       -3 0.40776343E-02 0.89773591E+02</pdfrwt>
<totfact> 0.35968017E+04</totfact>
</mgrwt>
</event>
<event>
 7    1  0.1247599E-009  0.9147366E+02  0.7818608E-02  0.1299322E+00
          3   -1    0    0  501    0  0.00000000000E+00  0.00000000000E+00  0.76089104577E+02  0.76089171610E+02  0.10100000000E+00 0. -1.
         -3   -1    0    0    0  501 -0.00000000000E+00 -0.00000000000E+00 -0.27492036614E+02  0.27492222140E+02  0.10100000000E+00 0.  1.
         23    2    1    2    0    0  0.71054273576E-14 -0.35527136788E-14  0.48597067963E+02  0.10358139375E+03  0.91473658047E+02 0.  0.
    9000005    2    3    3    0    0 -0.39603851338E+02  0.16428170988E+02  0.38435097664E+02  0.59517627647E+02  0.15057935631E+02 0.  0.
         22    1    3    3    0    0  0.39603851338E+02 -0.16428170988E+02  0.10161970299E+02  0.44063766103E+02  0.00000000000E+00 0.  1.
         22    1    4    4    0    0 -0.29487574594E+02  0.18713039769E+02  0.27547308476E+02  0.44480884851E+02  0.00000000000E+00 0. -1.
         22    1    4    4    0    0 -0.10116276744E+02 -0.22848687815E+01  0.10887789187E+02  0.15036742795E+02  0.00000000000E+00 0. -1.
<mgrwt>
<rscale>  0 0.91473658E+02</rscale>
<asrwt>0</asrwt>
<pdfrwt beam="1">  1        3 0.11706035E-01 0.91473658E+02</pdfrwt>
<pdfrwt beam="2">  1       -3 0.42295636E-02 0.91473658E+02</pdfrwt>
<totfact> 0.34104293E+04</totfact>
</mgrwt>
</event>
<event>
 7    1  0.1247599E-009  0.8983060E+02  0.7818608E-02  0.1303262E+00
          3   -1    0    0  501    0  0.00000000000E+00  0.00000000000E+00  0.26407259019E+03  0.26407260950E+03  0.10100000000E+00 0. -1.
         -3   -1    0    0    0  501 -0.00000000000E+00 -0.00000000000E+00 -0.76391531186E+01  0.76398207681E+01  0.10100000000E+00 0.  1.
         23    2    1    2    0    0  0.00000000000E+00  0.00000000000E+00  0.25643343707E+03  0.27171243027E+03  0.89830602338E+02 0.  0.
    9000005    2    3    3    0    0  0.26096047032E+02  0.25742512632E+02  0.20477765031E+03  0.20837207242E+03  0.11889233349E+02 0.  0.
         22    1    3    3    0    0 -0.26096047032E+02 -0.25742512632E+02  0.51655786758E+02  0.63340357853E+02  0.00000000000E+00 0.  1.
         22    1    4    4    0    0  0.20085346914E+02  0.15999954508E+02  0.11287290499E+03  0.11575712672E+03  0.00000000000E+00 0. -1.
         22    1    4    4    0    0  0.60107001178E+01  0.97425581242E+01  0.91904745317E+02  0.92614945697E+02  0.00000000000E+00 0. -1.
<mgrwt>
<rscale>  0 0.89830602E+02</rscale>
<asrwt>0</asrwt>
<pdfrwt beam="1">  1        3 0.40626608E-01 0.89830602E+02</pdfrwt>
<pdfrwt beam="2">  1       -3 0.11753071E-02 0.89830602E+02</pdfrwt>
<totfact> 0.26192857E+04</totfact>
</mgrwt>
</event>
<event>
 7    1  0.1247599E-009  0.9208710E+02  0.7818608E-02  0.1297875E+00
         -3   -1    0    0    0  501 -0.00000000000E+00  0.00000000000E+00  0.74194905895E+01  0.74201780038E+01  0.10100000000E+00 0.  1.
          3   -1    0    0  501    0  0.00000000000E+00 -0.00000000000E+00 -0.28572111617E+03  0.28572113402E+03  0.10100000000E+00 0. -1.
         23    2    1    2    0    0 -0.71054273576E-14 -0.35527136788E-14 -0.27830162558E+03  0.29314131203E+03  0.92087100156E+02 0.  0.
    9000005    2    3    3    0    0  0.34669934603E+02  0.24982111979E+02 -0.85806031725E+02  0.95959507748E+02  0.44092814060E+01 0.  0.
         22    1    3    3    0    0 -0.34669934603E+02 -0.24982111979E+02 -0.19249559386E+03  0.19718180428E+03  0.00000000000E+00 0. -1.
         22    1    4    4    0    0  0.10159495607E+01  0.70367957843E+00 -0.46238577465E+01  0.47861653668E+01  0.00000000000E+00 0. -1.
         22    1    4    4    0    0  0.33653985042E+02  0.24278432400E+02 -0.81182173979E+02  0.91173342381E+02  0.00000000000E+00 0. -1.
<mgrwt>
<rscale>  0 0.92087100E+02</rscale>
<asrwt>0</asrwt>
<pdfrwt beam="2">  1        3 0.43957140E-01 0.92087100E+02</pdfrwt>
<pdfrwt beam="1">  1       -3 0.11415146E-02 0.92087100E+02</pdfrwt>
<totfact> 0.23658310E+04</totfact>
</mgrwt>
</event>
<event>
 7    1  0.1247599E-009  0.8874373E+02  0.7818608E-02  0.1305923E+00
         -3   -1    0    0    0  501 -0.00000000000E+00  0.00000000000E+00  0.82633491469E+01  0.82639663675E+01  0.10100000000E+00 0.  1.
          3   -1    0    0  501    0  0.00000000000E+00 -0.00000000000E+00 -0.23825493286E+03  0.23825495426E+03  0.10100000000E+00 0. -1.
         23    2    1    2    0    0  0.00000000000E+00  0.00000000000E+00 -0.22999158371E+03  0.24651892063E+03  0.88743730214E+02 0.  0.
    9000005    2    3    3    0    0  0.33412528827E+02  0.28342405258E+01 -0.19363183572E+03  0.19705720538E+03  0.14622735213E+02 0.  0.
         22    1    3    3    0    0 -0.33412528827E+02 -0.28342405258E+01 -0.36359747988E+02  0.49461715252E+02  0.00000000000E+00 0.  1.
         22    1    4    4    0    0  0.30269489727E+02 -0.24274370523E+01 -0.15573662436E+03  0.15866956427E+03  0.00000000000E+00 0.  1.
         22    1    4    4    0    0  0.31430390999E+01  0.52616775780E+01 -0.37895211360E+02  0.38387641107E+02  0.00000000000E+00 0.  1.
<mgrwt>
<rscale>  0 0.88743730E+02</rscale>
<asrwt>0</asrwt>
<pdfrwt beam="2">  1        3 0.36654649E-01 0.88743730E+02</pdfrwt>
<pdfrwt beam="1">  1       -3 0.12713338E-02 0.88743730E+02</pdfrwt>
<totfact> 0.28235446E+04</totfact>
</mgrwt>
</event>
<event>
 7    1  0.1247599E-009  0.9087920E+02  0.7818608E-02  0.1300736E+00
         -3   -1    0    0    0  501 -0.00000000000E+00  0.00000000000E+00  0.10035079933E+03  0.10035085016E+03  0.10100000000E+00 0.  1.
          3   -1    0    0  501    0  0.00000000000E+00 -0.00000000000E+00 -0.20575215086E+02  0.20575462980E+02  0.10100000000E+00 0. -1.
         23    2    1    2    0    0  0.00000000000E+00  0.00000000000E+00  0.79775584248E+02  0.12092631314E+03  0.90879202063E+02 0.  0.
    9000005    2    3    3    0    0  0.43727818203E+00 -0.35378051105E+02  0.25013417326E+01  0.35937453468E+02  0.57832637072E+01 0.  0.
         22    1    3    3    0    0 -0.43727818203E+00  0.35378051105E+02  0.77274242515E+02  0.84988859673E+02  0.00000000000E+00 0.  1.
         22    1    4    4    0    0  0.57047850059E+00 -0.34996149703E+02  0.31825775858E+01  0.35145195118E+02  0.00000000000E+00 0. -1.
         22    1    4    4    0    0 -0.13320031856E+00 -0.38190140122E+00 -0.68123585322E+00  0.79225834980E+00  0.00000000000E+00 0. -1.
<mgrwt>
<rscale>  0 0.90879202E+02</rscale>
<asrwt>0</asrwt>
<pdfrwt beam="2">  1        3 0.31654407E-02 0.90879202E+02</pdfrwt>
<pdfrwt beam="1">  1       -3 0.15438607E-01 0.90879202E+02</pdfrwt>
<totfact> 0.33480670E+04</totfact>
</mgrwt>
</event>
<event>
 7    1  0.1247599E-009  0.8547231E+02  0.7818608E-02  0.1314202E+00
          3   -1    0    0  501    0  0.00000000000E+00  0.00000000000E+00  0.13432557741E+02  0.13432937447E+02  0.10100000000E+00 0. -1.
         -3   -1    0    0    0  501 -0.00000000000E+00 -0.00000000000E+00 -0.13596426872E+03  0.13596430624E+03  0.10100000000E+00 0.  1.
         23    2    1    2    0    0 -0.35527136788E-14  0.00000000000E+00 -0.12253171098E+03  0.14939724368E+03  0.85472312616E+02 0.  0.
    9000005    2    3    3    0    0  0.19873339728E+02 -0.32416418602E+02 -0.29056408223E+02  0.48484380019E+02  0.77901489160E+01 0.  0.
         22    1    3    3    0    0 -0.19873339728E+02  0.32416418602E+02 -0.93475302758E+02  0.10091286366E+03  0.00000000000E+00 0.  1.
         22    1    4    4    0    0  0.83334285320E+01 -0.79849745299E+01 -0.11301053631E+02  0.16153007847E+02  0.00000000000E+00 0.  1.
         22    1    4    4    0    0  0.11539911196E+02 -0.24431444072E+02 -0.17755354592E+02  0.32331372172E+02  0.00000000000E+00 0.  1.
<mgrwt>
<rscale>  0 0.85472313E+02</rscale>
<asrwt>0</asrwt>
<pdfrwt beam="1">  1        3 0.20665795E-02 0.85472313E+02</pdfrwt>
<pdfrwt beam="2">  1       -3 0.20917611E-01 0.85472313E+02</pdfrwt>
<totfact> 0.37305296E+04</totfact>
</mgrwt>
</event>
<event>
 7    1  0.1247599E-009  0.8912287E+02  0.7818608E-02  0.1304990E+00
          3   -1    0    0  501    0  0.00000000000E+00  0.00000000000E+00  0.57743833210E+02  0.57743921540E+02  0.10100000000E+00 0. -1.
         -3   -1    0    0    0  501 -0.00000000000E+00 -0.00000000000E+00 -0.34388274528E+02  0.34388422848E+02  0.10100000000E+00 0.  1.
         23    2    1    2    0    0  0.88817841970E-15  0.00000000000E+00  0.23355558683E+02  0.92132344388E+02  0.89122874511E+02 0.  0.
    9000005    2    3    3    0    0  0.65448215547E+01  0.32625949296E+02 -0.18063585912E+02  0.39002006580E+02  0.93582116122E+01 0.  0.
         22    1    3    3    0    0 -0.65448215547E+01 -0.32625949296E+02  0.41419144595E+02  0.53130337809E+02  0.00000000000E+00 0. -1.
         22    1    4    4    0    0  0.31370879302E+01  0.13111656487E+02 -0.22796236677E+01  0.13673095501E+02  0.00000000000E+00 0.  1.
         22    1    4    4    0    0  0.34077336245E+01  0.19514292810E+02 -0.15783962245E+02  0.25328911079E+02  0.00000000000E+00 0.  1.
<mgrwt>
<rscale>  0 0.89122875E+02</rscale>
<asrwt>0</asrwt>
<pdfrwt beam="1">  1        3 0.88836847E-02 0.89122875E+02</pdfrwt>
<pdfrwt beam="2">  1       -3 0.52905221E-02 0.89122875E+02</pdfrwt>
<totfact> 0.37517114E+04</totfact>
</mgrwt>
</event>
<event>
 7    1  0.1247599E-009  0.8782947E+02  0.7818608E-02  0.1308195E+00
          3   -1    0    0  501    0  0.00000000000E+00  0.00000000000E+00  0.26126022214E+02  0.26126217441E+02  0.10100000000E+00 0.  1.
         -3   -1    0    0    0  501 -0.00000000000E+00 -0.00000000000E+00 -0.73814934849E+02  0.73815003948E+02  0.10100000000E+00 0. -1.
         23    2    1    2    0    0  0.00000000000E+00  0.00000000000E+00 -0.47688912635E+02  0.99941221388E+02  0.87829467403E+02 0.  0.
    9000005    2    3    3    0    0  0.29836709522E+02  0.21587217248E+02 -0.49888816501E+02  0.63048447561E+02  0.11400681748E+02 0.  0.
         22    1    3    3    0    0 -0.29836709522E+02 -0.21587217248E+02  0.21999038663E+01  0.36892773827E+02  0.00000000000E+00 0.  1.
         22    1    4    4    0    0  0.25518024244E+02  0.13999213464E+02 -0.32754160759E+02  0.43817605890E+02  0.00000000000E+00 0. -1.
         22    1    4    4    0    0  0.43186852787E+01  0.75880037839E+01 -0.17134655743E+02  0.19230841671E+02  0.00000000000E+00 0. -1.
<mgrwt>
<rscale>  0 0.87829467E+02</rscale>
<asrwt>0</asrwt>
<pdfrwt beam="1">  1        3 0.40194084E-02 0.87829467E+02</pdfrwt>
<pdfrwt beam="2">  1       -3 0.11356164E-01 0.87829467E+02</pdfrwt>
<totfact> 0.38378599E+04</totfact>
</mgrwt>
</event>
<event>
 7    1  0.1247599E-009  0.8974543E+02  0.7818608E-02  0.1303469E+00
         -3   -1    0    0    0  501 -0.00000000000E+00  0.00000000000E+00  0.27950451604E+03  0.27950453429E+03  0.10100000000E+00 0. -1.
          3   -1    0    0  501    0  0.00000000000E+00 -0.00000000000E+00 -0.72036627625E+01  0.72043707703E+01  0.10100000000E+00 0.  1.
         23    2    1    2    0    0  0.00000000000E+00  0.00000000000E+00  0.27230085328E+03  0.28670890506E+03  0.89745426314E+02 0.  0.
    9000005    2    3    3    0    0  0.22064579061E+02 -0.68504230532E+01  0.25902849517E+03  0.26006440403E+03  0.19897210164E+01 0.  0.
         22    1    3    3    0    0 -0.22064579061E+02  0.68504230532E+01  0.13272358106E+02  0.26644501025E+02  0.00000000000E+00 0.  1.
         22    1    4    4    0    0  0.19662197067E+02 -0.55961186630E+01  0.22374138752E+03  0.22467337854E+03  0.00000000000E+00 0. -1.
         22    1    4    4    0    0  0.24023819940E+01 -0.12543043903E+01  0.35287107655E+02  0.35391025492E+02  0.00000000000E+00 0. -1.
<mgrwt>
<rscale>  0 0.89745426E+02</rscale>
<asrwt>0</asrwt>
<pdfrwt beam="2">  1        3 0.11083118E-02 0.89745426E+02</pdfrwt>
<pdfrwt beam="1">  1       -3 0.43000747E-01 0.89745426E+02</pdfrwt>
<totfact> 0.25611253E+04</totfact>
</mgrwt>
</event>
<event>
 7    1  0.1247599E-009  0.9194774E+02  0.7818608E-02  0.1298202E+00
         -3   -1    0    0    0  501 -0.00000000000E+00  0.00000000000E+00  0.63904773434E+02  0.63904853248E+02  0.10100000000E+00 0.  1.
          3   -1    0    0  501    0  0.00000000000E+00 -0.00000000000E+00 -0.33073984305E+02  0.33074138519E+02  0.10100000000E+00 0. -1.
         23    2    1    2    0    0  0.00000000000E+00 -0.35527136788E-14  0.30830789129E+02  0.96978991767E+02  0.91947742146E+02 0.  0.
    9000005    2    3    3    0    0 -0.35045076981E+02 -0.29554694218E+02  0.11831188778E+02  0.47354177566E+02  0.89651217625E+00 0.  0.
         22    1    3    3    0    0  0.35045076981E+02  0.29554694218E+02  0.18999600351E+02  0.49624814201E+02  0.00000000000E+00 0.  1.
         22    1    4    4    0    0 -0.16127921926E+01 -0.15369112326E+01  0.71788877510E+00  0.23406321981E+01  0.00000000000E+00 0.  1.
         22    1    4    4    0    0 -0.33432284789E+02 -0.28017782986E+02  0.11113300003E+02  0.45013545368E+02  0.00000000000E+00 0.  1.
<mgrwt>
<rscale>  0 0.91947742E+02</rscale>
<asrwt>0</asrwt>
<pdfrwt beam="2">  1        3 0.50883233E-02 0.91947742E+02</pdfrwt>
<pdfrwt beam="1">  1       -3 0.98315216E-02 0.91947742E+02</pdfrwt>
<totfact> 0.34105161E+04</totfact>
</mgrwt>
</event>
<event>
 7    1  0.1247599E-009  0.9365172E+02  0.7818608E-02  0.1294242E+00
          3   -1    0    0  501    0  0.00000000000E+00  0.00000000000E+00  0.56822795832E+02  0.56822885593E+02  0.10100000000E+00 0. -1.
         -3   -1    0    0    0  501 -0.00000000000E+00 -0.00000000000E+00 -0.38587513345E+02  0.38587645525E+02  0.10100000000E+00 0.  1.
         23    2    1    2    0    0  0.35527136788E-14  0.17763568394E-14  0.18235282487E+02  0.95410531119E+02  0.93651716060E+02 0.  0.
    9000005    2    3    3    0    0  0.30094375801E+02  0.13075097109E+02 -0.24483017249E+02  0.41545117804E+02  0.70674649234E+01 0.  0.
         22    1    3    3    0    0 -0.30094375801E+02 -0.13075097109E+02  0.42718299735E+02  0.53865413315E+02  0.00000000000E+00 0. -1.
         22    1    4    4    0    0  0.19992506544E+02  0.12020717799E+02 -0.18350173092E+02  0.29680411500E+02  0.00000000000E+00 0.  1.
         22    1    4    4    0    0  0.10101869257E+02  0.10543793103E+01 -0.61328441570E+01  0.11864706304E+02  0.00000000000E+00 0.  1.
<mgrwt>
<rscale>  0 0.93651716E+02</rscale>
<asrwt>0</asrwt>
<pdfrwt beam="1">  1        3 0.87419856E-02 0.93651716E+02</pdfrwt>
<pdfrwt beam="2">  1       -3 0.59365576E-02 0.93651716E+02</pdfrwt>
<totfact> 0.32545725E+04</totfact>
</mgrwt>
</event>
<event>
 7    1  0.1488079E-009  0.9048876E+02  0.7818608E-02  0.1301672E+00
          3   -1    0    0  501    0  0.00000000000E+00  0.00000000000E+00  0.49856324152E+02  0.49856426456E+02  0.10100000000E+00 0. -1.
         -3   -1    0    0    0  501 -0.00000000000E+00 -0.00000000000E+00 -0.41058853389E+02  0.41058977613E+02  0.10100000000E+00 0.  1.
         23    2    1    2    0    0  0.00000000000E+00 -0.22204460493E-15  0.87974707626E+01  0.90915404069E+02  0.90488757341E+02 0.  0.
    9000005    2    3    3    0    0 -0.21346305948E+02 -0.11905233335E+01  0.43005063590E+02  0.50576322145E+02  0.15857072360E+02 0.  0.
         22    1    3    3    0    0  0.21346305948E+02  0.11905233335E+01 -0.34207592828E+02  0.40339081924E+02  0.00000000000E+00 0.  1.
         22    1    4    4    0    0 -0.22403508268E+02 -0.41934569684E+01  0.33227631025E+02  0.40293643762E+02  0.00000000000E+00 0.  1.
         22    1    4    4    0    0  0.10572023199E+01  0.30029336349E+01  0.97774325648E+01  0.10282678383E+02  0.00000000000E+00 0.  1.
<mgrwt>
<rscale>  0 0.90488757E+02</rscale>
<asrwt>0</asrwt>
<pdfrwt beam="1">  1        3 0.76702212E-02 0.90488757E+02</pdfrwt>
<pdfrwt beam="2">  1       -3 0.63167641E-02 0.90488757E+02</pdfrwt>
<totfact> 0.36095243E+04</totfact>
</mgrwt>
</event>
<event>
 7    1  0.1247599E-009  0.9097610E+02  0.7818608E-02  0.1300505E+00
          3   -1    0    0  501    0  0.00000000000E+00  0.00000000000E+00  0.22162862680E+02  0.22163092816E+02  0.10100000000E+00 0. -1.
         -3   -1    0    0    0  501 -0.00000000000E+00 -0.00000000000E+00 -0.93360968491E+02  0.93361023123E+02  0.10100000000E+00 0.  1.
         23    2    1    2    0    0 -0.71054273576E-14  0.00000000000E+00 -0.71198105811E+02  0.11552411594E+03  0.90976101766E+02 0.  0.
    9000005    2    3    3    0    0 -0.38309593518E+02 -0.29514612524E+01 -0.64595952775E+02  0.76537906791E+02  0.14459529109E+02 0.  0.
         22    1    3    3    0    0  0.38309593518E+02  0.29514612524E+01 -0.66021530360E+01  0.38986209148E+02  0.00000000000E+00 0. -1.
         22    1    4    4    0    0 -0.22833018793E+02 -0.51601407871E+00 -0.50657839073E+02  0.55568243424E+02  0.00000000000E+00 0. -1.
         22    1    4    4    0    0 -0.15476574725E+02 -0.24354471737E+01 -0.13938113702E+02  0.20969663367E+02  0.00000000000E+00 0. -1.
<mgrwt>
<rscale>  0 0.90976102E+02</rscale>
<asrwt>0</asrwt>
<pdfrwt beam="1">  1        3 0.34096931E-02 0.90976102E+02</pdfrwt>
<pdfrwt beam="2">  1       -3 0.14363248E-01 0.90976102E+02</pdfrwt>
<totfact> 0.33758661E+04</totfact>
</mgrwt>
</event>
<event>
 7    1  0.1247599E-009  0.9123781E+02  0.7818608E-02  0.1299882E+00
         -3   -1    0    0    0  501 -0.00000000000E+00  0.00000000000E+00  0.28071045456E+02  0.28071227155E+02  0.10100000000E+00 0.  1.
          3   -1    0    0  501    0  0.00000000000E+00 -0.00000000000E+00 -0.74135886991E+02  0.74135955790E+02  0.10100000000E+00 0. -1.
         23    2    1    2    0    0  0.00000000000E+00  0.00000000000E+00 -0.46064841535E+02  0.10220718295E+03  0.91237813542E+02 0.  0.
    9000005    2    3    3    0    0  0.44967860995E+02 -0.17372820640E+01 -0.19849027808E+02  0.50126518963E+02  0.96725036560E+01 0.  0.
         22    1    3    3    0    0 -0.44967860995E+02  0.17372820640E+01 -0.26215813727E+02  0.52080663982E+02  0.00000000000E+00 0. -1.
         22    1    4    4    0    0  0.36731835766E+02  0.13681539862E+01 -0.13052906536E+02  0.39006127379E+02  0.00000000000E+00 0. -1.
         22    1    4    4    0    0  0.82360252297E+01 -0.31054360502E+01 -0.67961212724E+01  0.11120391585E+02  0.00000000000E+00 0. -1.
<mgrwt>
<rscale>  0 0.91237814E+02</rscale>
<asrwt>0</asrwt>
<pdfrwt beam="2">  1        3 0.11405540E-01 0.91237814E+02</pdfrwt>
<pdfrwt beam="1">  1       -3 0.43186417E-02 0.91237814E+02</pdfrwt>
<totfact> 0.34445466E+04</totfact>
</mgrwt>
</event>
<event>
 7    1  0.1247599E-009  0.8721068E+02  0.7818608E-02  0.1309751E+00
          3   -1    0    0  501    0  0.00000000000E+00  0.00000000000E+00  0.74716231492E+01  0.74723057676E+01  0.10100000000E+00 0. -1.
         -3   -1    0    0    0  501 -0.00000000000E+00 -0.00000000000E+00 -0.25447395291E+03  0.25447397296E+03  0.10100000000E+00 0.  1.
         23    2    1    2    0    0  0.00000000000E+00  0.00000000000E+00 -0.24700232976E+03  0.26194627872E+03  0.87210676116E+02 0.  0.
    9000005    2    3    3    0    0  0.34889174829E+02 -0.16795274575E+02 -0.18340318165E+03  0.18748697837E+03  0.39120648027E+01 0.  0.
         22    1    3    3    0    0 -0.34889174829E+02  0.16795274575E+02 -0.63599148116E+02  0.74459300355E+02  0.00000000000E+00 0. -1.
         22    1    4    4    0    0  0.20058548213E+02 -0.11665238056E+02 -0.11245430892E+03  0.11482331963E+03  0.00000000000E+00 0. -1.
         22    1    4    4    0    0  0.14830626615E+02 -0.51300365198E+01 -0.70948872726E+02  0.72663658741E+02  0.00000000000E+00 0. -1.
<mgrwt>
<rscale>  0 0.87210676E+02</rscale>
<asrwt>0</asrwt>
<pdfrwt beam="1">  1        3 0.11495347E-02 0.87210676E+02</pdfrwt>
<pdfrwt beam="2">  1       -3 0.39149886E-01 0.87210676E+02</pdfrwt>
<totfact> 0.28812447E+04</totfact>
</mgrwt>
</event>
<event>
 7    1  0.1247599E-009  0.9198671E+02  0.7818608E-02  0.1298111E+00
          3   -1    0    0  501    0  0.00000000000E+00  0.00000000000E+00  0.13365849923E+02  0.13366231524E+02  0.10100000000E+00 0. -1.
         -3   -1    0    0    0  501 -0.00000000000E+00 -0.00000000000E+00 -0.15826551565E+03  0.15826554788E+03  0.10100000000E+00 0.  1.
         23    2    1    2    0    0  0.00000000000E+00  0.00000000000E+00 -0.14489966573E+03  0.17163177941E+03  0.91986708676E+02 0.  0.
    9000005    2    3    3    0    0  0.94866218415E+01 -0.22765004720E+02 -0.14438690887E+03  0.14696389840E+03  0.11940123344E+02 0.  0.
         22    1    3    3    0    0 -0.94866218415E+01  0.22765004720E+02 -0.51275686298E+00  0.24667881009E+02  0.00000000000E+00 0. -1.
         22    1    4    4    0    0 -0.12730769810E+01 -0.12074911066E+02 -0.58279883463E+02  0.59531244055E+02  0.00000000000E+00 0. -1.
         22    1    4    4    0    0  0.10759698823E+02 -0.10690093654E+02 -0.86107025407E+02  0.87432654343E+02  0.00000000000E+00 0. -1.
<mgrwt>
<rscale>  0 0.91986709E+02</rscale>
<asrwt>0</asrwt>
<pdfrwt beam="1">  1        3 0.20563166E-02 0.91986709E+02</pdfrwt>
<pdfrwt beam="2">  1       -3 0.24348571E-01 0.91986709E+02</pdfrwt>
<totfact> 0.29323047E+04</totfact>
</mgrwt>
</event>
<event>
 7    1  0.1247599E-009  0.9219440E+02  0.7818608E-02  0.1297623E+00
          3   -1    0    0  501    0  0.00000000000E+00  0.00000000000E+00  0.75790222858E+02  0.75790290155E+02  0.10100000000E+00 0. -1.
         -3   -1    0    0    0  501 -0.00000000000E+00 -0.00000000000E+00 -0.28037111032E+02  0.28037292951E+02  0.10100000000E+00 0.  1.
         23    2    1    2    0    0  0.00000000000E+00  0.00000000000E+00  0.47753111826E+02  0.10382758311E+03  0.92194399638E+02 0.  0.
    9000005    2    3    3    0    0  0.10912826568E+02 -0.39139239357E+02  0.46369520055E+02  0.63171904938E+02  0.13769071947E+02 0.  0.
         22    1    3    3    0    0 -0.10912826568E+02  0.39139239357E+02  0.13835917715E+01  0.40655678168E+02  0.00000000000E+00 0.  1.
         22    1    4    4    0    0  0.66143501473E+01 -0.51336341101E+01  0.11997470596E+02  0.14630212841E+02  0.00000000000E+00 0.  1.
         22    1    4    4    0    0  0.42984764207E+01 -0.34005605246E+02  0.34372049458E+02  0.48541692097E+02  0.00000000000E+00 0.  1.
<mgrwt>
<rscale>  0 0.92194400E+02</rscale>
<asrwt>0</asrwt>
<pdfrwt beam="1">  1        3 0.11660053E-01 0.92194400E+02</pdfrwt>
<pdfrwt beam="2">  1       -3 0.43134209E-02 0.92194400E+02</pdfrwt>
<totfact> 0.33364536E+04</totfact>
</mgrwt>
</event>
<event>
 7    1  0.1247599E-009  0.8942653E+02  0.7818608E-02  0.1304246E+00
         -3   -1    0    0    0  501 -0.00000000000E+00  0.00000000000E+00  0.98974968381E+01  0.98980121570E+01  0.10100000000E+00 0.  1.
          3   -1    0    0  501    0  0.00000000000E+00 -0.00000000000E+00 -0.20199236169E+03  0.20199238694E+03  0.10100000000E+00 0. -1.
         23    2    1    2    0    0  0.00000000000E+00  0.00000000000E+00 -0.19209486485E+03  0.21189039910E+03  0.89426529216E+02 0.  0.
    9000005    2    3    3    0    0 -0.33375255628E+02  0.21725687986E+02 -0.14320720929E+03  0.14883553352E+03  0.76025021533E+01 0.  0.
         22    1    3    3    0    0  0.33375255628E+02 -0.21725687986E+02 -0.48887655564E+02  0.63054865579E+02  0.00000000000E+00 0.  1.
         22    1    4    4    0    0 -0.20848793528E+02  0.17390169584E+02 -0.10181731950E+03  0.10537483921E+03  0.00000000000E+00 0. -1.
         22    1    4    4    0    0 -0.12526462100E+02  0.43355184020E+01 -0.41389889793E+02  0.43460694307E+02  0.00000000000E+00 0. -1.
<mgrwt>
<rscale>  0 0.89426529E+02</rscale>
<asrwt>0</asrwt>
<pdfrwt beam="2">  1        3 0.31075786E-01 0.89426529E+02</pdfrwt>
<pdfrwt beam="1">  1       -3 0.15227336E-02 0.89426529E+02</pdfrwt>
<totfact> 0.29388050E+04</totfact>
</mgrwt>
</event>
<event>
 7    1  0.1658313E-009  0.8949138E+02  0.7818608E-02  0.1304088E+00
          3   -1    0    0  501    0  0.00000000000E+00  0.00000000000E+00  0.26447582505E+02  0.26447775357E+02  0.10100000000E+00 0. -1.
         -3   -1    0    0    0  501 -0.00000000000E+00 -0.00000000000E+00 -0.75703089059E+02  0.75703156434E+02  0.10100000000E+00 0.  1.
         23    2    1    2    0    0 -0.44408920985E-15 -0.35527136788E-14 -0.49255506554E+02  0.10215093179E+03  0.89491384725E+02 0.  0.
    9000005    2    3    3    0    0  0.39957440470E+01 -0.25394781185E+02  0.15225180251E+02  0.32734652341E+02  0.13374994142E+02 0.  0.
         22    1    3    3    0    0 -0.39957440470E+01  0.25394781185E+02 -0.64480686805E+02  0.69416279451E+02  0.00000000000E+00 0.  1.
         22    1    4    4    0    0  0.47722537052E+01 -0.25460180733E+02  0.16871327013E+02  0.30913377097E+02  0.00000000000E+00 0.  1.
         22    1    4    4    0    0 -0.77650965827E+00  0.65399548315E-01 -0.16461467620E+01  0.18212752434E+01  0.00000000000E+00 0.  1.
<mgrwt>
<rscale>  0 0.89491385E+02</rscale>
<asrwt>0</asrwt>
<pdfrwt beam="1">  1        3 0.40688789E-02 0.89491385E+02</pdfrwt>
<pdfrwt beam="2">  1       -3 0.11646649E-01 0.89491385E+02</pdfrwt>
<totfact> 0.36306729E+04</totfact>
</mgrwt>
</event>
<event>
 7    1  0.1247599E-009  0.9134691E+02  0.7818608E-02  0.1299622E+00
         -3   -1    0    0    0  501 -0.00000000000E+00  0.00000000000E+00  0.47679104788E+02  0.47679211764E+02  0.10100000000E+00 0.  1.
          3   -1    0    0  501    0  0.00000000000E+00 -0.00000000000E+00 -0.43751957814E+02  0.43752074391E+02  0.10100000000E+00 0. -1.
         23    2    1    2    0    0 -0.17763568394E-14  0.00000000000E+00  0.39271469746E+01  0.91431286155E+02  0.91346908019E+02 0.  0.
    9000005    2    3    3    0    0  0.14204354159E+02 -0.36328389759E+02 -0.19666661513E+02  0.45844189532E+02  0.13906709147E+02 0.  0.
         22    1    3    3    0    0 -0.14204354159E+02  0.36328389759E+02  0.23593808487E+02  0.45587096622E+02  0.00000000000E+00 0.  1.
         22    1    4    4    0    0  0.39249049264E+01 -0.22078627837E+02 -0.50442528987E+01  0.22985107639E+02  0.00000000000E+00 0. -1.
         22    1    4    4    0    0  0.10279449233E+02 -0.14249761921E+02 -0.14622408614E+02  0.22859081894E+02  0.00000000000E+00 0. -1.
<mgrwt>
<rscale>  0 0.91346908E+02</rscale>
<asrwt>0</asrwt>
<pdfrwt beam="2">  1        3 0.67310876E-02 0.91346908E+02</pdfrwt>
<pdfrwt beam="1">  1       -3 0.73352641E-02 0.91346908E+02</pdfrwt>
<totfact> 0.35139916E+04</totfact>
</mgrwt>
</event>
<event>
 7    1  0.1247599E-009  0.9181051E+02  0.7818608E-02  0.1298526E+00
          3   -1    0    0  501    0  0.00000000000E+00  0.00000000000E+00  0.18276270026E+03  0.18276272816E+03  0.10100000000E+00 0. -1.
         -3   -1    0    0    0  501 -0.00000000000E+00 -0.00000000000E+00 -0.11529961523E+02  0.11530403883E+02  0.10100000000E+00 0.  1.
         23    2    1    2    0    0  0.00000000000E+00  0.00000000000E+00  0.17123273873E+03  0.19429313205E+03  0.91810513269E+02 0.  0.
    9000005    2    3    3    0    0  0.28840587432E+02  0.26179569015E+02  0.13587065685E+03  0.14168489930E+03  0.98298515264E+01 0.  0.
         22    1    3    3    0    0 -0.28840587432E+02 -0.26179569015E+02  0.35362081885E+02  0.52608232744E+02  0.00000000000E+00 0.  1.
         22    1    4    4    0    0  0.14952611403E+02  0.89271345670E+01  0.72258860368E+02  0.74327768842E+02  0.00000000000E+00 0. -1.
         22    1    4    4    0    0  0.13887976028E+02  0.17252434448E+02  0.63611796480E+02  0.67357130461E+02  0.00000000000E+00 0. -1.
<mgrwt>
<rscale>  0 0.91810513E+02</rscale>
<asrwt>0</asrwt>
<pdfrwt beam="1">  1        3 0.28117373E-01 0.91810513E+02</pdfrwt>
<pdfrwt beam="2">  1       -3 0.17738765E-02 0.91810513E+02</pdfrwt>
<totfact> 0.28262047E+04</totfact>
</mgrwt>
</event>
<event>
 7    1  0.1247599E-009  0.7966316E+02  0.7818608E-02  0.1330010E+00
          3   -1    0    0  501    0  0.00000000000E+00  0.00000000000E+00  0.10792253173E+03  0.10792257899E+03  0.10100000000E+00 0. -1.
         -3   -1    0    0    0  501 -0.00000000000E+00 -0.00000000000E+00 -0.14700641457E+02  0.14700988411E+02  0.10100000000E+00 0.  1.
         23    2    1    2    0    0 -0.17763568394E-14 -0.71054273576E-14  0.93221890274E+02  0.12262356740E+03  0.79663156203E+02 0.  0.
    9000005    2    3    3    0    0 -0.13254080051E+02 -0.33645989715E+02  0.24881087030E+02  0.45304820324E+02  0.11213161501E+02 0.  0.
         22    1    3    3    0    0  0.13254080051E+02  0.33645989715E+02  0.68340803243E+02  0.77318747079E+02  0.00000000000E+00 0. -1.
         22    1    4    4    0    0 -0.66694288419E+01 -0.46710823845E+01  0.50552946388E+01  0.95841690096E+01  0.00000000000E+00 0.  1.
         22    1    4    4    0    0 -0.65846512094E+01 -0.28974907330E+02  0.19825792392E+02  0.35720651314E+02  0.00000000000E+00 0.  1.
<mgrwt>
<rscale>  0 0.79663156E+02</rscale>
<asrwt>0</asrwt>
<pdfrwt beam="1">  1        3 0.16603497E-01 0.79663156E+02</pdfrwt>
<pdfrwt beam="2">  1       -3 0.22616674E-02 0.79663156E+02</pdfrwt>
<totfact> 0.47547901E+04</totfact>
</mgrwt>
</event>
<event>
 7    1  0.1247599E-009  0.9106037E+02  0.7818608E-02  0.1300304E+00
          3   -1    0    0  501    0  0.00000000000E+00  0.00000000000E+00  0.76273701831E+02  0.76273768702E+02  0.10100000000E+00 0. -1.
         -3   -1    0    0    0  501 -0.00000000000E+00 -0.00000000000E+00 -0.27178236180E+02  0.27178423848E+02  0.10100000000E+00 0.  1.
         23    2    1    2    0    0 -0.71054273576E-14  0.00000000000E+00  0.49095465651E+02  0.10345219255E+03  0.91060372259E+02 0.  0.
    9000005    2    3    3    0    0 -0.32925001065E+02  0.26435338845E+00  0.59494746285E+02  0.68922920684E+02  0.11252492271E+02 0.  0.
         22    1    3    3    0    0  0.32925001065E+02 -0.26435338845E+00 -0.10399280634E+02  0.34529271865E+02  0.00000000000E+00 0.  1.
         22    1    4    4    0    0  0.34621326756E+00 -0.32844095805E+00  0.53411113916E+01  0.53623882727E+01  0.00000000000E+00 0. -1.
         22    1    4    4    0    0 -0.33271214333E+02  0.59279434651E+00  0.54153634893E+02  0.63560532412E+02  0.00000000000E+00 0. -1.
<mgrwt>
<rscale>  0 0.91060372E+02</rscale>
<asrwt>0</asrwt>
<pdfrwt beam="1">  1        3 0.11734435E-01 0.91060372E+02</pdfrwt>
<pdfrwt beam="2">  1       -3 0.41812867E-02 0.91060372E+02</pdfrwt>
<totfact> 0.34537228E+04</totfact>
</mgrwt>
</event>
<event>
 7    1  0.1247599E-009  0.9222198E+02  0.7818608E-02  0.1297558E+00
          3   -1    0    0  501    0  0.00000000000E+00  0.00000000000E+00  0.18324570623E+02  0.18324848963E+02  0.10100000000E+00 0. -1.
         -3   -1    0    0    0  501 -0.00000000000E+00 -0.00000000000E+00 -0.11603011127E+03  0.11603015523E+03  0.10100000000E+00 0.  1.
         23    2    1    2    0    0  0.00000000000E+00  0.00000000000E+00 -0.97705540649E+02  0.13435500419E+03  0.92221984789E+02 0.  0.
    9000005    2    3    3    0    0 -0.14066836421E+01  0.42073430398E+02 -0.73034570756E+02  0.85561469173E+02  0.14648009328E+02 0.  0.
         22    1    3    3    0    0  0.14066836421E+01 -0.42073430398E+02 -0.24670969893E+02  0.48793535021E+02  0.00000000000E+00 0. -1.
         22    1    4    4    0    0  0.40560292426E+00  0.25379369423E+02 -0.29593519925E+02  0.38987861285E+02  0.00000000000E+00 0. -1.
         22    1    4    4    0    0 -0.18122865664E+01  0.16694060975E+02 -0.43441050830E+02  0.46573607888E+02  0.00000000000E+00 0. -1.
<mgrwt>
<rscale>  0 0.92221985E+02</rscale>
<asrwt>0</asrwt>
<pdfrwt beam="1">  1        3 0.28191896E-02 0.92221985E+02</pdfrwt>
<pdfrwt beam="2">  1       -3 0.17850811E-01 0.92221985E+02</pdfrwt>
<totfact> 0.31308203E+04</totfact>
</mgrwt>
</event>
<event>
 7    1  0.1247599E-009  0.1140500E+03  0.7818608E-02  0.1253248E+00
          3   -1    0    0  501    0  0.00000000000E+00  0.00000000000E+00  0.28336358179E+02  0.28336538176E+02  0.10100000000E+00 0. -1.
         -3   -1    0    0    0  501 -0.00000000000E+00 -0.00000000000E+00 -0.11475847006E+03  0.11475851451E+03  0.10100000000E+00 0.  1.
         23    2    1    2    0    0  0.00000000000E+00  0.44408920985E-15 -0.86422111886E+02  0.14309505269E+03  0.11405004463E+03 0.  0.
    9000005    2    3    3    0    0  0.30117378950E+02 -0.36414491184E+01 -0.10334254020E+03  0.10835865159E+03  0.11899583749E+02 0.  0.
         22    1    3    3    0    0 -0.30117378950E+02  0.36414491184E+01  0.16920428315E+02  0.34736401093E+02  0.00000000000E+00 0. -1.
         22    1    4    4    0    0  0.43794860419E+01  0.25407710135E+01 -0.29130687504E+02  0.29567420749E+02  0.00000000000E+00 0. -1.
         22    1    4    4    0    0  0.25737892909E+02 -0.61822201318E+01 -0.74211852698E+02  0.78791230844E+02  0.00000000000E+00 0. -1.
<mgrwt>
<rscale>  0 0.11405004E+03</rscale>
<asrwt>0</asrwt>
<pdfrwt beam="1">  1        3 0.43594571E-02 0.11405004E+03</pdfrwt>
<pdfrwt beam="2">  1       -3 0.17655166E-01 0.11405004E+03</pdfrwt>
<totfact> 0.17154171E+04</totfact>
</mgrwt>
</event>
<event>
 7    1  0.1247599E-009  0.9260429E+02  0.7818608E-02  0.1296665E+00
         -3   -1    0    0    0  501 -0.00000000000E+00  0.00000000000E+00  0.30268247333E+02  0.30268415843E+02  0.10100000000E+00 0.  1.
          3   -1    0    0  501    0  0.00000000000E+00 -0.00000000000E+00 -0.70829225723E+02  0.70829297734E+02  0.10100000000E+00 0. -1.
         23    2    1    2    0    0  0.00000000000E+00 -0.44408920985E-15 -0.40560978389E+02  0.10109771358E+03  0.92604291059E+02 0.  0.
    9000005    2    3    3    0    0 -0.43126705210E+02 -0.38307311381E+01 -0.35071433235E+02  0.57454589155E+02  0.14015604964E+02 0.  0.
         22    1    3    3    0    0  0.43126705210E+02  0.38307311381E+01 -0.54895451545E+01  0.43643124422E+02  0.00000000000E+00 0.  1.
         22    1    4    4    0    0 -0.39350681860E+02 -0.44358066050E+01 -0.36001646321E+02  0.53518885273E+02  0.00000000000E+00 0. -1.
         22    1    4    4    0    0 -0.37760233498E+01  0.60507546683E+00  0.93021308591E+00  0.39357038816E+01  0.00000000000E+00 0. -1.
<mgrwt>
<rscale>  0 0.92604291E+02</rscale>
<asrwt>0</asrwt>
<pdfrwt beam="2">  1        3 0.10896822E-01 0.92604291E+02</pdfrwt>
<pdfrwt beam="1">  1       -3 0.46566720E-02 0.92604291E+02</pdfrwt>
<totfact> 0.33154328E+04</totfact>
</mgrwt>
</event>
<event>
 6    1  0.1247599E-009  0.1721974E+03  0.7818608E-02  0.1175575E+00
         -3   -1    0    0    0  501 -0.00000000000E+00  0.00000000000E+00  0.22611404750E+02  0.22611630321E+02  0.10100000000E+00 0.  1.
          3   -1    0    0  501    0  0.00000000000E+00 -0.00000000000E+00 -0.32784105447E+03  0.32784107003E+03  0.10100000000E+00 0. -1.
    9000005    2    1    2    0    0  0.17896561221E+02  0.57913176670E+02 -0.30331728539E+02  0.68951208336E+02  0.12650392853E+02 0.  0.
         22    1    1    2    0    0 -0.17896561221E+02 -0.57913176670E+02 -0.27489792118E+03  0.28150149201E+03  0.00000000000E+00 0. -1.
         22    1    3    3    0    0  0.42469657608E+01  0.26380476132E+02 -0.77005272803E+01  0.27807631318E+02  0.00000000000E+00 0. -1.
         22    1    3    3    0    0  0.13649595460E+02  0.31532700537E+02 -0.22631201258E+02  0.41143577018E+02  0.00000000000E+00 0. -1.
<mgrwt>
<rscale>  0 0.17219743E+03</rscale>
<asrwt>0</asrwt>
<pdfrwt beam="2">  1        3 0.50437100E-01 0.17219743E+03</pdfrwt>
<pdfrwt beam="1">  1       -3 0.34786965E-02 0.17219743E+03</pdfrwt>
<totfact> 0.37850422E+03</totfact>
</mgrwt>
</event>
<event>
 7    1  0.1247599E-009  0.9221345E+02  0.7818608E-02  0.1297578E+00
          3   -1    0    0  501    0  0.00000000000E+00  0.00000000000E+00  0.46908173019E+02  0.46908281752E+02  0.10100000000E+00 0. -1.
         -3   -1    0    0    0  501 -0.00000000000E+00 -0.00000000000E+00 -0.45318748225E+02  0.45318860772E+02  0.10100000000E+00 0.  1.
         23    2    1    2    0    0  0.00000000000E+00  0.00000000000E+00  0.15894247935E+01  0.92227142525E+02  0.92213445587E+02 0.  0.
    9000005    2    3    3    0    0  0.37233277494E+02  0.26253009035E+02 -0.33393268778E+01  0.46403240144E+02  0.81591761582E+01 0.  0.
         22    1    3    3    0    0 -0.37233277494E+02 -0.26253009035E+02  0.49287516713E+01  0.45823902380E+02  0.00000000000E+00 0. -1.
         22    1    4    4    0    0  0.31081525674E+02  0.18534548359E+02 -0.73666156918E+00  0.36195764826E+02  0.00000000000E+00 0.  1.
         22    1    4    4    0    0  0.61517518197E+01  0.77184606761E+01 -0.26026653086E+01  0.10207475318E+02  0.00000000000E+00 0.  1.
<mgrwt>
<rscale>  0 0.92213446E+02</rscale>
<asrwt>0</asrwt>
<pdfrwt beam="1">  1        3 0.72166590E-02 0.92213446E+02</pdfrwt>
<pdfrwt beam="2">  1       -3 0.69721321E-02 0.92213446E+02</pdfrwt>
<totfact> 0.34185996E+04</totfact>
</mgrwt>
</event>
<event>
 7    1  0.1247599E-009  0.8812097E+02  0.7818608E-02  0.1307467E+00
         -3   -1    0    0    0  501 -0.00000000000E+00  0.00000000000E+00  0.37309430783E+02  0.37309567490E+02  0.10100000000E+00 0.  1.
          3   -1    0    0  501    0  0.00000000000E+00 -0.00000000000E+00 -0.52032841598E+02  0.52032939623E+02  0.10100000000E+00 0. -1.
         23    2    1    2    0    0  0.00000000000E+00  0.17763568394E-14 -0.14723410815E+02  0.89342507113E+02  0.88120966581E+02 0.  0.
    9000005    2    3    3    0    0 -0.24857631928E+02  0.93905693250E+01  0.26329392695E+02  0.40440387185E+02  0.15365654516E+02 0.  0.
         22    1    3    3    0    0  0.24857631928E+02 -0.93905693250E+01 -0.41052803511E+02  0.48902119928E+02  0.00000000000E+00 0. -1.
         22    1    4    4    0    0 -0.20474309065E+02  0.12816912434E+02  0.16859005083E+02  0.29456690724E+02  0.00000000000E+00 0. -1.
         22    1    4    4    0    0 -0.43833228629E+01 -0.34263431094E+01  0.94703876124E+01  0.10983696461E+02  0.00000000000E+00 0. -1.
<mgrwt>
<rscale>  0 0.88120967E+02</rscale>
<asrwt>0</asrwt>
<pdfrwt beam="2">  1        3 0.80050707E-02 0.88120967E+02</pdfrwt>
<pdfrwt beam="1">  1       -3 0.57399305E-02 0.88120967E+02</pdfrwt>
<totfact> 0.38921860E+04</totfact>
</mgrwt>
</event>
<event>
 7    1  0.1247599E-009  0.8844208E+02  0.7818608E-02  0.1306669E+00
          3   -1    0    0  501    0  0.00000000000E+00  0.00000000000E+00  0.17652619925E+02  0.17652908860E+02  0.10100000000E+00 0. -1.
         -3   -1    0    0    0  501 -0.00000000000E+00 -0.00000000000E+00 -0.11077556686E+03  0.11077561291E+03  0.10100000000E+00 0.  1.
         23    2    1    2    0    0  0.00000000000E+00  0.35527136788E-14 -0.93122946940E+02  0.12842852177E+03  0.88442082499E+02 0.  0.
    9000005    2    3    3    0    0 -0.62483500918E+01 -0.29779918302E+02 -0.93129981321E+02  0.98000155686E+02  0.22252372326E+01 0.  0.
         22    1    3    3    0    0  0.62483500918E+01  0.29779918302E+02  0.70343810815E-02  0.30428366082E+02  0.00000000000E+00 0. -1.
         22    1    4    4    0    0 -0.26229202763E+01 -0.12854218978E+02 -0.36653901943E+02  0.38930954060E+02  0.00000000000E+00 0.  1.
         22    1    4    4    0    0 -0.36254298155E+01 -0.16925699324E+02 -0.56476079377E+02  0.59069201626E+02  0.00000000000E+00 0.  1.
<mgrwt>
<rscale>  0 0.88442082E+02</rscale>
<asrwt>0</asrwt>
<pdfrwt beam="1">  1        3 0.27158135E-02 0.88442082E+02</pdfrwt>
<pdfrwt beam="2">  1       -3 0.17042420E-01 0.88442082E+02</pdfrwt>
<totfact> 0.35486680E+04</totfact>
</mgrwt>
</event>
<event>
 7    1  0.1247599E-009  0.9110435E+02  0.7818608E-02  0.1300199E+00
          3   -1    0    0  501    0  0.00000000000E+00  0.00000000000E+00  0.46101638677E+03  0.46101639784E+03  0.10100000000E+00 0. -1.
         -3   -1    0    0    0  501 -0.00000000000E+00 -0.00000000000E+00 -0.45003486586E+01  0.45014818726E+01  0.10100000000E+00 0.  1.
         23    2    1    2    0    0  0.00000000000E+00  0.71054273576E-14  0.45651603812E+03  0.46551787971E+03  0.91104353756E+02 0.  0.
    9000005    2    3    3    0    0  0.21566335018E+02  0.39264001448E+02  0.25514385186E+03  0.25922312454E+03  0.95642320894E+01 0.  0.
         22    1    3    3    0    0 -0.21566335018E+02 -0.39264001448E+02  0.20137218625E+03  0.20629475517E+03  0.00000000000E+00 0.  1.
         22    1    4    4    0    0  0.17783303113E+01  0.90385955014E+01  0.38426249207E+02  0.39515000891E+02  0.00000000000E+00 0. -1.
         22    1    4    4    0    0  0.19788004707E+02  0.30225405947E+02  0.21671760266E+03  0.21970812365E+03  0.00000000000E+00 0. -1.
<mgrwt>
<rscale>  0 0.91104354E+02</rscale>
<asrwt>0</asrwt>
<pdfrwt beam="1">  1        3 0.70925724E-01 0.91104354E+02</pdfrwt>
<pdfrwt beam="2">  1       -3 0.69244898E-03 0.91104354E+02</pdfrwt>
<totfact> 0.18817653E+04</totfact>
</mgrwt>
</event>
<event>
 7    1  0.1247599E-009  0.9207610E+02  0.7818608E-02  0.1297901E+00
          3   -1    0    0  501    0  0.00000000000E+00  0.00000000000E+00  0.72670916069E+02  0.72670986255E+02  0.10100000000E+00 0. -1.
         -3   -1    0    0    0  501 -0.00000000000E+00 -0.00000000000E+00 -0.29165580673E+02  0.29165755553E+02  0.10100000000E+00 0.  1.
         23    2    1    2    0    0 -0.88817841970E-15  0.00000000000E+00  0.43505335396E+02  0.10183674181E+03  0.92076097736E+02 0.  0.
    9000005    2    3    3    0    0 -0.60366061038E+01 -0.30192586236E+02  0.59453234708E+02  0.67161558041E+02  0.52872378811E+01 0.  0.
         22    1    3    3    0    0  0.60366061038E+01  0.30192586236E+02 -0.15947899312E+02  0.34675183767E+02  0.00000000000E+00 0.  1.
         22    1    4    4    0    0 -0.85730883553E+00 -0.17565819681E+02  0.34145651890E+02  0.38408573815E+02  0.00000000000E+00 0.  1.
         22    1    4    4    0    0 -0.51792972682E+01 -0.12626766554E+02  0.25307582818E+02  0.28752984226E+02  0.00000000000E+00 0.  1.
<mgrwt>
<rscale>  0 0.92076098E+02</rscale>
<asrwt>0</asrwt>
<pdfrwt beam="1">  1        3 0.11180160E-01 0.92076098E+02</pdfrwt>
<pdfrwt beam="2">  1       -3 0.44870313E-02 0.92076098E+02</pdfrwt>
<totfact> 0.33623233E+04</totfact>
</mgrwt>
</event>
<event>
 7    1  0.1247599E-009  0.8982391E+02  0.7818608E-02  0.1303279E+00
         -3   -1    0    0    0  501 -0.00000000000E+00  0.00000000000E+00  0.11224886366E+03  0.11224890910E+03  0.10100000000E+00 0.  1.
          3   -1    0    0  501    0  0.00000000000E+00 -0.00000000000E+00 -0.17969556524E+02  0.17969840362E+02  0.10100000000E+00 0. -1.
         23    2    1    2    0    0  0.00000000000E+00 -0.35527136788E-14  0.94279307138E+02  0.13021874946E+03  0.89823910833E+02 0.  0.
    9000005    2    3    3    0    0 -0.18808371532E+02  0.27180627964E+02  0.39592108710E+01  0.34040471428E+02  0.71089357954E+01 0.  0.
         22    1    3    3    0    0  0.18808371532E+02 -0.27180627964E+02  0.90320096267E+02  0.96178278035E+02  0.00000000000E+00 0.  1.
         22    1    4    4    0    0 -0.22797138664E+01  0.67730971107E+01 -0.12835297167E+01  0.72608118222E+01  0.00000000000E+00 0. -1.
         22    1    4    4    0    0 -0.16528657665E+02  0.20407530853E+02  0.52427405877E+01  0.26779659606E+02  0.00000000000E+00 0. -1.
<mgrwt>
<rscale>  0 0.89823911E+02</rscale>
<asrwt>0</asrwt>
<pdfrwt beam="2">  1        3 0.27645725E-02 0.89823911E+02</pdfrwt>
<pdfrwt beam="1">  1       -3 0.17269081E-01 0.89823911E+02</pdfrwt>
<totfact> 0.33907750E+04</totfact>
</mgrwt>
</event>
<event>
 7    1  0.1247599E-009  0.8992307E+02  0.7818608E-02  0.1303038E+00
          3   -1    0    0  501    0  0.00000000000E+00  0.00000000000E+00  0.64173792950E+02  0.64173872429E+02  0.10100000000E+00 0. -1.
         -3   -1    0    0    0  501 -0.00000000000E+00 -0.00000000000E+00 -0.31500837610E+02  0.31500999526E+02  0.10100000000E+00 0.  1.
         23    2    1    2    0    0 -0.71054273576E-14  0.17763568394E-14  0.32672955340E+02  0.95674871955E+02  0.89923073307E+02 0.  0.
    9000005    2    3    3    0    0  0.42476295478E+02 -0.10146673632E+02  0.86367821041E+01  0.45825816927E+02  0.10872940200E+02 0.  0.
         22    1    3    3    0    0 -0.42476295478E+02  0.10146673632E+02  0.24036173236E+02  0.49849055028E+02  0.00000000000E+00 0.  1.
         22    1    4    4    0    0  0.73632780286E+01  0.48738829782E+00  0.50947327410E+01  0.89672577961E+01  0.00000000000E+00 0.  1.
         22    1    4    4    0    0  0.35113017449E+02 -0.10634061930E+02  0.35420493631E+01  0.36858559131E+02  0.00000000000E+00 0.  1.
<mgrwt>
<rscale>  0 0.89923073E+02</rscale>
<asrwt>0</asrwt>
<pdfrwt beam="1">  1        3 0.98729097E-02 0.89923073E+02</pdfrwt>
<pdfrwt beam="2">  1       -3 0.48463013E-02 0.89923073E+02</pdfrwt>
<totfact> 0.36336583E+04</totfact>
</mgrwt>
</event>
<event>
 7    1  0.1247599E-009  0.8635765E+02  0.7818608E-02  0.1311920E+00
         -3   -1    0    0    0  501 -0.00000000000E+00  0.00000000000E+00  0.18969837380E+03  0.18969840069E+03  0.10100000000E+00 0.  1.
          3   -1    0    0  501    0  0.00000000000E+00 -0.00000000000E+00 -0.98280037376E+01  0.98285227001E+01  0.10100000000E+00 0. -1.
         23    2    1    2    0    0  0.00000000000E+00  0.00000000000E+00  0.17987037006E+03  0.19952692339E+03  0.86357646622E+02 0.  0.
    9000005    2    3    3    0    0 -0.31276056573E+02  0.25606821203E+02  0.12019387369E+03  0.12744929006E+03  0.12761397149E+02 0.  0.
         22    1    3    3    0    0  0.31276056573E+02 -0.25606821203E+02  0.59676496369E+02  0.72077633325E+02  0.00000000000E+00 0.  1.
         22    1    4    4    0    0  0.38085076358E+00 -0.78093910040E+00  0.96460089828E+00  0.12982172683E+01  0.00000000000E+00 0. -1.
         22    1    4    4    0    0 -0.31656907336E+02  0.26387760303E+02  0.11922927279E+03  0.12615107279E+03  0.00000000000E+00 0. -1.
<mgrwt>
<rscale>  0 0.86357647E+02</rscale>
<asrwt>0</asrwt>
<pdfrwt beam="2">  1        3 0.15120425E-02 0.86357647E+02</pdfrwt>
<pdfrwt beam="1">  1       -3 0.29184408E-01 0.86357647E+02</pdfrwt>
<totfact> 0.33000594E+04</totfact>
</mgrwt>
</event>
<event>
 7    1  0.1247599E-009  0.9038336E+02  0.7818608E-02  0.1301926E+00
          3   -1    0    0  501    0  0.00000000000E+00  0.00000000000E+00  0.82557720437E+02  0.82557782218E+02  0.10100000000E+00 0. -1.
         -3   -1    0    0    0  501 -0.00000000000E+00 -0.00000000000E+00 -0.24737522060E+02  0.24737728244E+02  0.10100000000E+00 0.  1.
         23    2    1    2    0    0  0.71054273576E-14  0.00000000000E+00  0.57820198376E+02  0.10729551046E+03  0.90383357013E+02 0.  0.
    9000005    2    3    3    0    0 -0.35898505126E+02  0.10244960968E+02  0.58495102984E+02  0.69957629004E+02  0.88730427261E+01 0.  0.
         22    1    3    3    0    0  0.35898505126E+02 -0.10244960968E+02 -0.67490460735E+00  0.37337881458E+02  0.00000000000E+00 0.  1.
         22    1    4    4    0    0 -0.29159868679E+02  0.44768771011E+01  0.45026731391E+02  0.53830724588E+02  0.00000000000E+00 0.  1.
         22    1    4    4    0    0 -0.67386364477E+01  0.57680838671E+01  0.13468371593E+02  0.16126904416E+02  0.00000000000E+00 0.  1.
<mgrwt>
<rscale>  0 0.90383357E+02</rscale>
<asrwt>0</asrwt>
<pdfrwt beam="1">  1        3 0.12701208E-01 0.90383357E+02</pdfrwt>
<pdfrwt beam="2">  1       -3 0.38057932E-02 0.90383357E+02</pdfrwt>
<totfact> 0.34958192E+04</totfact>
</mgrwt>
</event>
<event>
 7    1  0.1247599E-009  0.8608129E+02  0.7818608E-02  0.1312629E+00
          3   -1    0    0  501    0  0.00000000000E+00  0.00000000000E+00  0.96094557486E+02  0.96094610564E+02  0.10100000000E+00 0.  1.
         -3   -1    0    0    0  501 -0.00000000000E+00 -0.00000000000E+00 -0.19277667236E+02  0.19277931815E+02  0.10100000000E+00 0. -1.
         23    2    1    2    0    0  0.00000000000E+00  0.00000000000E+00  0.76816890250E+02  0.11537254238E+03  0.86081292436E+02 0.  0.
    9000005    2    3    3    0    0  0.17242411206E+02  0.23868778338E+02  0.15943413942E+00  0.33254426833E+02  0.15453548499E+02 0.  0.
         22    1    3    3    0    0 -0.17242411206E+02 -0.23868778338E+02  0.76657456110E+02  0.82118115546E+02  0.00000000000E+00 0.  1.
         22    1    4    4    0    0  0.59353298680E+01  0.15607844931E+02  0.64530550417E+01  0.17901812294E+02  0.00000000000E+00 0.  1.
         22    1    4    4    0    0  0.11307081338E+02  0.82609334070E+01 -0.62936209023E+01  0.15352614539E+02  0.00000000000E+00 0.  1.
<mgrwt>
<rscale>  0 0.86081292E+02</rscale>
<asrwt>0</asrwt>
<pdfrwt beam="1">  1        3 0.14783802E-01 0.86081292E+02</pdfrwt>
<pdfrwt beam="2">  1       -3 0.29658194E-02 0.86081292E+02</pdfrwt>
<totfact> 0.39213109E+04</totfact>
</mgrwt>
</event>
<event>
 7    1  0.1273267E-009  0.9093310E+02  0.7818608E-02  0.1300608E+00
         -3   -1    0    0    0  501 -0.00000000000E+00  0.00000000000E+00  0.64624558223E+01  0.64632450252E+01  0.10100000000E+00 0.  1.
          3   -1    0    0  501    0  0.00000000000E+00 -0.00000000000E+00 -0.31985914182E+03  0.31985915777E+03  0.10100000000E+00 0. -1.
         23    2    1    2    0    0  0.00000000000E+00  0.00000000000E+00 -0.31339668600E+03  0.32632240279E+03  0.90933095016E+02 0.  0.
    9000005    2    3    3    0    0 -0.13664227085E+02  0.28686761045E+02 -0.27194340289E+03  0.27409198979E+03  0.12789180404E+02 0.  0.
         22    1    3    3    0    0  0.13664227085E+02 -0.28686761045E+02 -0.41453283113E+02  0.52230412998E+02  0.00000000000E+00 0.  1.
         22    1    4    4    0    0 -0.14338265560E+02  0.16404923205E+02 -0.16058438641E+03  0.16205570809E+03  0.00000000000E+00 0.  1.
         22    1    4    4    0    0  0.67403847562E+00  0.12281837840E+02 -0.11135901647E+03  0.11203628171E+03  0.00000000000E+00 0.  1.
<mgrwt>
<rscale>  0 0.90933095E+02</rscale>
<asrwt>0</asrwt>
<pdfrwt beam="2">  1        3 0.49209148E-01 0.90933095E+02</pdfrwt>
<pdfrwt beam="1">  1       -3 0.99428615E-03 0.90933095E+02</pdfrwt>
<totfact> 0.23213392E+04</totfact>
</mgrwt>
</event>
<event>
 7    1  0.1247599E-009  0.9084786E+02  0.7818608E-02  0.1300811E+00
          3   -1    0    0  501    0  0.00000000000E+00  0.00000000000E+00  0.22728320208E+02  0.22728544618E+02  0.10100000000E+00 0. -1.
         -3   -1    0    0    0  501 -0.00000000000E+00 -0.00000000000E+00 -0.90781783242E+02  0.90781839426E+02  0.10100000000E+00 0.  1.
         23    2    1    2    0    0  0.00000000000E+00  0.17763568394E-14 -0.68053463034E+02  0.11351038404E+03  0.90847858836E+02 0.  0.
    9000005    2    3    3    0    0  0.10341358149E+02 -0.10266293389E+02 -0.87462127965E+02  0.89240304879E+02  0.10092953891E+02 0.  0.
         22    1    3    3    0    0 -0.10341358149E+02  0.10266293389E+02  0.19408664931E+02  0.24270079166E+02  0.00000000000E+00 0. -1.
         22    1    4    4    0    0  0.52295851747E+01 -0.86057121123E+01 -0.74938340429E+02  0.75611915121E+02  0.00000000000E+00 0. -1.
         22    1    4    4    0    0  0.51117729742E+01 -0.16605812766E+01 -0.12523787536E+02  0.13628389757E+02  0.00000000000E+00 0. -1.
<mgrwt>
<rscale>  0 0.90847859E+02</rscale>
<asrwt>0</asrwt>
<pdfrwt beam="1">  1        3 0.34966863E-02 0.90847859E+02</pdfrwt>
<pdfrwt beam="2">  1       -3 0.13966450E-01 0.90847859E+02</pdfrwt>
<totfact> 0.34030375E+04</totfact>
</mgrwt>
</event>
<event>
 7    1  0.1247599E-009  0.8073843E+02  0.7818608E-02  0.1326969E+00
         -3   -1    0    0    0  501 -0.00000000000E+00  0.00000000000E+00  0.10607525594E+03  0.10607530402E+03  0.10100000000E+00 0.  1.
          3   -1    0    0  501    0  0.00000000000E+00 -0.00000000000E+00 -0.15363153454E+02  0.15363485446E+02  0.10100000000E+00 0. -1.
         23    2    1    2    0    0  0.22204460493E-15  0.00000000000E+00  0.90712102486E+02  0.12143878947E+03  0.80738429824E+02 0.  0.
    9000005    2    3    3    0    0  0.18287670439E+01 -0.34863907293E+02  0.14913202376E+02  0.37986349850E+02  0.13125354093E+01 0.  0.
         22    1    3    3    0    0 -0.18287670439E+01  0.34863907293E+02  0.75798900110E+02  0.83452439620E+02  0.00000000000E+00 0.  1.
         22    1    4    4    0    0  0.66376258571E+00 -0.22144669730E+02  0.90339839402E+01  0.23925715121E+02  0.00000000000E+00 0.  1.
         22    1    4    4    0    0  0.11650044582E+01 -0.12719237563E+02  0.58792184360E+01  0.14060634729E+02  0.00000000000E+00 0.  1.
<mgrwt>
<rscale>  0 0.80738430E+02</rscale>
<asrwt>0</asrwt>
<pdfrwt beam="2">  1        3 0.23635913E-02 0.80738430E+02</pdfrwt>
<pdfrwt beam="1">  1       -3 0.16319299E-01 0.80738430E+02</pdfrwt>
<totfact> 0.45990623E+04</totfact>
</mgrwt>
</event>
<event>
 7    1  0.1247599E-009  0.9102617E+02  0.7818608E-02  0.1300386E+00
          3   -1    0    0  501    0  0.00000000000E+00  0.00000000000E+00  0.22957561382E+03  0.22957563603E+03  0.10100000000E+00 0. -1.
         -3   -1    0    0    0  501 -0.00000000000E+00 -0.00000000000E+00 -0.90226079438E+01  0.90231732283E+01  0.10100000000E+00 0.  1.
         23    2    1    2    0    0  0.00000000000E+00  0.00000000000E+00  0.22055300587E+03  0.23859880926E+03  0.91026168664E+02 0.  0.
    9000005    2    3    3    0    0 -0.44308388315E+02 -0.67213992421E+01  0.10159219837E+03  0.11147648941E+03  0.98804068036E+01 0.  0.
         22    1    3    3    0    0  0.44308388315E+02  0.67213992421E+01  0.11896080751E+03  0.12712231986E+03  0.00000000000E+00 0. -1.
         22    1    4    4    0    0 -0.17703888847E+02 -0.25729291376E+01  0.52791046018E+02  0.55739951420E+02  0.00000000000E+00 0.  1.
         22    1    4    4    0    0 -0.26604499468E+02 -0.41484701045E+01  0.48801152349E+02  0.55736537987E+02  0.00000000000E+00 0.  1.
<mgrwt>
<rscale>  0 0.91026169E+02</rscale>
<asrwt>0</asrwt>
<pdfrwt beam="1">  1        3 0.35319371E-01 0.91026169E+02</pdfrwt>
<pdfrwt beam="2">  1       -3 0.13881387E-02 0.91026169E+02</pdfrwt>
<totfact> 0.26737622E+04</totfact>
</mgrwt>
</event>
<event>
 7    1  0.1247599E-009  0.9220734E+02  0.7818608E-02  0.1297593E+00
          3   -1    0    0  501    0  0.00000000000E+00  0.00000000000E+00  0.62096964499E+02  0.62097046637E+02  0.10100000000E+00 0. -1.
         -3   -1    0    0    0  501 -0.00000000000E+00 -0.00000000000E+00 -0.34229327194E+02  0.34229476203E+02  0.10100000000E+00 0.  1.
         23    2    1    2    0    0 -0.71054273576E-14  0.00000000000E+00  0.27867637305E+02  0.96326522840E+02  0.92207341321E+02 0.  0.
    9000005    2    3    3    0    0  0.33330066397E+02  0.23636633297E+02 -0.73321975543E+01  0.42394972392E+02  0.86016744575E+01 0.  0.
         22    1    3    3    0    0 -0.33330066397E+02 -0.23636633297E+02  0.35199834859E+02  0.53931550449E+02  0.00000000000E+00 0.  1.
         22    1    4    4    0    0  0.16928507887E+02  0.14686048981E+02 -0.77276456210E+01  0.23705925858E+02  0.00000000000E+00 0. -1.
         22    1    4    4    0    0  0.16401558510E+02  0.89505843158E+01  0.39544806676E+00  0.18689046533E+02  0.00000000000E+00 0. -1.
<mgrwt>
<rscale>  0 0.92207341E+02</rscale>
<asrwt>0</asrwt>
<pdfrwt beam="1">  1        3 0.95533969E-02 0.92207341E+02</pdfrwt>
<pdfrwt beam="2">  1       -3 0.52660681E-02 0.92207341E+02</pdfrwt>
<totfact> 0.33890368E+04</totfact>
</mgrwt>
</event>
<event>
 7    1  0.1247599E-009  0.9288799E+02  0.7818608E-02  0.1296005E+00
          3   -1    0    0  501    0  0.00000000000E+00  0.00000000000E+00  0.23405430547E+02  0.23405648466E+02  0.10100000000E+00 0. -1.
         -3   -1    0    0    0  501 -0.00000000000E+00 -0.00000000000E+00 -0.92159328331E+02  0.92159383676E+02  0.10100000000E+00 0.  1.
         23    2    1    2    0    0  0.35527136788E-14  0.00000000000E+00 -0.68753897784E+02  0.11556503214E+03  0.92887987347E+02 0.  0.
    9000005    2    3    3    0    0  0.31562709218E+02 -0.23337696954E+02 -0.49862360240E+01  0.40684010523E+02  0.94590406631E+01 0.  0.
         22    1    3    3    0    0 -0.31562709218E+02  0.23337696954E+02 -0.63767661760E+02  0.74881021619E+02  0.00000000000E+00 0.  1.
         22    1    4    4    0    0  0.86685561760E+01 -0.11901661728E+02 -0.73884411625E+00  0.14742432252E+02  0.00000000000E+00 0. -1.
         22    1    4    4    0    0  0.22894153042E+02 -0.11436035226E+02 -0.42473919077E+01  0.25941578272E+02  0.00000000000E+00 0. -1.
<mgrwt>
<rscale>  0 0.92887987E+02</rscale>
<asrwt>0</asrwt>
<pdfrwt beam="1">  1        3 0.36008565E-02 0.92887987E+02</pdfrwt>
<pdfrwt beam="2">  1       -3 0.14178379E-01 0.92887987E+02</pdfrwt>
<totfact> 0.31896816E+04</totfact>
</mgrwt>
</event>
<event>
 7    1  0.1247599E-009  0.9076035E+02  0.7818608E-02  0.1301021E+00
          3   -1    0    0  501    0  0.00000000000E+00  0.00000000000E+00  0.34310548525E+02  0.34310697182E+02  0.10100000000E+00 0. -1.
         -3   -1    0    0    0  501 -0.00000000000E+00 -0.00000000000E+00 -0.60020884807E+02  0.60020969786E+02  0.10100000000E+00 0.  1.
         23    2    1    2    0    0  0.35527136788E-14  0.00000000000E+00 -0.25710336282E+02  0.94331666968E+02  0.90760354788E+02 0.  0.
    9000005    2    3    3    0    0  0.24697701668E+02 -0.36836082970E+02 -0.88835111537E+01  0.46897338469E+02  0.12392340733E+02 0.  0.
         22    1    3    3    0    0 -0.24697701668E+02  0.36836082970E+02 -0.16826825128E+02  0.47434328499E+02  0.00000000000E+00 0. -1.
         22    1    4    4    0    0 -0.76828230337E+00 -0.39306299928E+01 -0.27037316132E+01  0.48322121719E+01  0.00000000000E+00 0. -1.
         22    1    4    4    0    0  0.25465983971E+02 -0.32905452977E+02 -0.61797795405E+01  0.42065126297E+02  0.00000000000E+00 0. -1.
<mgrwt>
<rscale>  0 0.90760355E+02</rscale>
<asrwt>0</asrwt>
<pdfrwt beam="1">  1        3 0.52785639E-02 0.90760355E+02</pdfrwt>
<pdfrwt beam="2">  1       -3 0.92340003E-02 0.90760355E+02</pdfrwt>
<totfact> 0.35538124E+04</totfact>
</mgrwt>
</event>
<event>
 7    1  0.1247599E-009  0.9293191E+02  0.7818608E-02  0.1295903E+00
         -3   -1    0    0    0  501 -0.00000000000E+00  0.00000000000E+00  0.61817796077E+01  0.61826046386E+01  0.10100000000E+00 0.  1.
          3   -1    0    0  501    0  0.00000000000E+00 -0.00000000000E+00 -0.34924181968E+03  0.34924183429E+03  0.10100000000E+00 0. -1.
         23    2    1    2    0    0  0.00000000000E+00  0.00000000000E+00 -0.34306004008E+03  0.35542443893E+03  0.92931914268E+02 0.  0.
    9000005    2    3    3    0    0  0.53244967606E+01 -0.43118991184E+02 -0.11049351842E+03  0.11883453073E+03  0.50229885520E+01 0.  0.
         22    1    3    3    0    0 -0.53244967606E+01  0.43118991184E+02 -0.23256652165E+03  0.23658990819E+03  0.00000000000E+00 0. -1.
         22    1    4    4    0    0  0.41381598332E+01 -0.26529787578E+02 -0.61866348694E+02  0.67441820086E+02  0.00000000000E+00 0.  1.
         22    1    4    4    0    0  0.11863369274E+01 -0.16589203606E+02 -0.48627169729E+02  0.51392710645E+02  0.00000000000E+00 0.  1.
<mgrwt>
<rscale>  0 0.92931914E+02</rscale>
<asrwt>0</asrwt>
<pdfrwt beam="2">  1        3 0.53729560E-01 0.92931914E+02</pdfrwt>
<pdfrwt beam="1">  1       -3 0.95110788E-03 0.92931914E+02</pdfrwt>
<totfact> 0.20934533E+04</totfact>
</mgrwt>
</event>
<event>
 7    1  0.1247599E-009  0.9254148E+02  0.7818608E-02  0.1296811E+00
          3   -1    0    0  501    0  0.00000000000E+00  0.00000000000E+00  0.12298479733E+02  0.12298894452E+02  0.10100000000E+00 0. -1.
         -3   -1    0    0    0  501 -0.00000000000E+00 -0.00000000000E+00 -0.17408168988E+03  0.17408171918E+03  0.10100000000E+00 0.  1.
         23    2    1    2    0    0  0.00000000000E+00  0.00000000000E+00 -0.16178321014E+03  0.18638061363E+03  0.92541482872E+02 0.  0.
    9000005    2    3    3    0    0 -0.35462564324E+02 -0.18725007143E+02 -0.39464771464E+02  0.57656024672E+02  0.12590855148E+02 0.  0.
         22    1    3    3    0    0  0.35462564324E+02  0.18725007143E+02 -0.12231843868E+03  0.12872458896E+03  0.00000000000E+00 0.  1.
         22    1    4    4    0    0 -0.17431587253E+02 -0.60075349304E+01 -0.25770778897E+02  0.31687280651E+02  0.00000000000E+00 0.  1.
         22    1    4    4    0    0 -0.18030977071E+02 -0.12717472212E+02 -0.13693992567E+02  0.25968744021E+02  0.00000000000E+00 0.  1.
<mgrwt>
<rscale>  0 0.92541483E+02</rscale>
<asrwt>0</asrwt>
<pdfrwt beam="1">  1        3 0.18921081E-02 0.92541483E+02</pdfrwt>
<pdfrwt beam="2">  1       -3 0.26781831E-01 0.92541483E+02</pdfrwt>
<totfact> 0.28066155E+04</totfact>
</mgrwt>
</event>
<event>
 7    1  0.1247599E-009  0.9102559E+02  0.7818608E-02  0.1300387E+00
         -3   -1    0    0    0  501 -0.00000000000E+00  0.00000000000E+00  0.43048583210E+02  0.43048701692E+02  0.10100000000E+00 0.  1.
          3   -1    0    0  501    0  0.00000000000E+00 -0.00000000000E+00 -0.48117823507E+02  0.48117929507E+02  0.10100000000E+00 0. -1.
         23    2    1    2    0    0  0.00000000000E+00 -0.71054273576E-14 -0.50692402973E+01  0.91166631199E+02  0.91025586771E+02 0.  0.
    9000005    2    3    3    0    0 -0.14432706731E+02  0.40321999077E+02 -0.15646125028E+02  0.47052720425E+02  0.11618547148E+02 0.  0.
         22    1    3    3    0    0  0.14432706731E+02 -0.40321999077E+02  0.10576884731E+02  0.44113910774E+02  0.00000000000E+00 0. -1.
         22    1    4    4    0    0 -0.12553822266E+02  0.17841206633E+02 -0.78259621062E+01  0.23176556916E+02  0.00000000000E+00 0.  1.
         22    1    4    4    0    0 -0.18788844646E+01  0.22480792444E+02 -0.78201629219E+01  0.23876163508E+02  0.00000000000E+00 0.  1.
<mgrwt>
<rscale>  0 0.91025587E+02</rscale>
<asrwt>0</asrwt>
<pdfrwt beam="2">  1        3 0.74027593E-02 0.91025587E+02</pdfrwt>
<pdfrwt beam="1">  1       -3 0.66228762E-02 0.91025587E+02</pdfrwt>
<totfact> 0.35499856E+04</totfact>
</mgrwt>
</event>
<event>
 7    1  0.1247599E-009  0.9193455E+02  0.7818608E-02  0.1298233E+00
          3   -1    0    0  501    0  0.00000000000E+00  0.00000000000E+00  0.11160582919E+03  0.11160587489E+03  0.10100000000E+00 0. -1.
         -3   -1    0    0    0  501 -0.00000000000E+00 -0.00000000000E+00 -0.18932432442E+02  0.18932701846E+02  0.10100000000E+00 0.  1.
         23    2    1    2    0    0  0.00000000000E+00  0.00000000000E+00  0.92673396748E+02  0.13053857674E+03  0.91934550370E+02 0.  0.
    9000005    2    3    3    0    0 -0.13191250561E+02 -0.25166325622E+02  0.97306554557E+02  0.10174935674E+03  0.87757051486E+01 0.  0.
         22    1    3    3    0    0  0.13191250561E+02  0.25166325622E+02 -0.46331578089E+01  0.28789219996E+02  0.00000000000E+00 0.  1.
         22    1    4    4    0    0 -0.81406900087E+01 -0.70203576379E+01  0.40449799701E+02  0.41853823614E+02  0.00000000000E+00 0. -1.
         22    1    4    4    0    0 -0.50505605524E+01 -0.18145967984E+02  0.56856754856E+02  0.59895533128E+02  0.00000000000E+00 0. -1.
<mgrwt>
<rscale>  0 0.91934550E+02</rscale>
<asrwt>0</asrwt>
<pdfrwt beam="1">  1        3 0.17170152E-01 0.91934550E+02</pdfrwt>
<pdfrwt beam="2">  1       -3 0.29127061E-02 0.91934550E+02</pdfrwt>
<totfact> 0.31816574E+04</totfact>
</mgrwt>
</event>
<event>
 7    1  0.1247599E-009  0.9144839E+02  0.7818608E-02  0.1299382E+00
          3   -1    0    0  501    0  0.00000000000E+00  0.00000000000E+00  0.81692707795E+01  0.81698951075E+01  0.10100000000E+00 0. -1.
         -3   -1    0    0    0  501 -0.00000000000E+00 -0.00000000000E+00 -0.25591228105E+03  0.25591230098E+03  0.10100000000E+00 0.  1.
         23    2    1    2    0    0  0.00000000000E+00  0.00000000000E+00 -0.24774301027E+03  0.26408219608E+03  0.91448385184E+02 0.  0.
    9000005    2    3    3    0    0  0.49014889756E+01 -0.39504298031E+02 -0.65533275422E+02  0.77574819208E+02  0.11774049026E+02 0.  0.
         22    1    3    3    0    0 -0.49014889756E+01  0.39504298031E+02 -0.18220973484E+03  0.18650737688E+03  0.00000000000E+00 0.  1.
         22    1    4    4    0    0  0.16437580915E+01 -0.14073187774E+02 -0.13513369385E+02  0.19579778010E+02  0.00000000000E+00 0. -1.
         22    1    4    4    0    0  0.32577308841E+01 -0.25431110257E+02 -0.52019906037E+02  0.57995041198E+02  0.00000000000E+00 0. -1.
<mgrwt>
<rscale>  0 0.91448385E+02</rscale>
<asrwt>0</asrwt>
<pdfrwt beam="1">  1        3 0.12568606E-02 0.91448385E+02</pdfrwt>
<pdfrwt beam="2">  1       -3 0.39371164E-01 0.91448385E+02</pdfrwt>
<totfact> 0.25282357E+04</totfact>
</mgrwt>
</event>
<event>
 7    1  0.1247599E-009  0.9090712E+02  0.7818608E-02  0.1300670E+00
         -3   -1    0    0    0  501 -0.00000000000E+00  0.00000000000E+00  0.40234746098E+02  0.40234872866E+02  0.10100000000E+00 0.  1.
          3   -1    0    0  501    0  0.00000000000E+00 -0.00000000000E+00 -0.51349038873E+02  0.51349138203E+02  0.10100000000E+00 0. -1.
         23    2    1    2    0    0  0.71054273576E-14  0.88817841970E-15 -0.11114292775E+02  0.91584011069E+02  0.90907115121E+02 0.  0.
    9000005    2    3    3    0    0  0.43738543007E+02  0.46849315754E+01 -0.14703051182E+02  0.47449127868E+02  0.10011557976E+02 0.  0.
         22    1    3    3    0    0 -0.43738543007E+02 -0.46849315754E+01  0.35887584068E+01  0.44134883201E+02  0.00000000000E+00 0.  1.
         22    1    4    4    0    0  0.33226813765E+02  0.72047206704E+01 -0.87418534953E+01  0.35104830942E+02  0.00000000000E+00 0. -1.
         22    1    4    4    0    0  0.10511729242E+02 -0.25197890950E+01 -0.59611976867E+01  0.12344296926E+02  0.00000000000E+00 0. -1.
<mgrwt>
<rscale>  0 0.90907115E+02</rscale>
<asrwt>0</asrwt>
<pdfrwt beam="2">  1        3 0.78998695E-02 0.90907115E+02</pdfrwt>
<pdfrwt beam="1">  1       -3 0.61899784E-02 0.90907115E+02</pdfrwt>
<totfact> 0.35593767E+04</totfact>
</mgrwt>
</event>
<event>
 7    1  0.1247599E-009  0.9319088E+02  0.7818608E-02  0.1295303E+00
          3   -1    0    0  501    0  0.00000000000E+00  0.00000000000E+00  0.30551908839E+02  0.30552075784E+02  0.10100000000E+00 0. -1.
         -3   -1    0    0    0  501 -0.00000000000E+00 -0.00000000000E+00 -0.71063411524E+02  0.71063483298E+02  0.10100000000E+00 0.  1.
         23    2    1    2    0    0 -0.71054273576E-14  0.00000000000E+00 -0.40511502685E+02  0.10161555908E+03  0.93190879370E+02 0.  0.
    9000005    2    3    3    0    0  0.36528302440E+02  0.85097414515E+01  0.86663759906E+01  0.39767387486E+02  0.99803033956E+01 0.  0.
         22    1    3    3    0    0 -0.36528302440E+02 -0.85097414515E+01 -0.49177878676E+02  0.61848171597E+02  0.00000000000E+00 0.  1.
         22    1    4    4    0    0  0.33164740118E+02  0.75574495470E+01  0.44726178871E+01  0.34307715481E+02  0.00000000000E+00 0. -1.
         22    1    4    4    0    0  0.33635623223E+01  0.95229190446E+00  0.41937581035E+01  0.54596720047E+01  0.00000000000E+00 0. -1.
<mgrwt>
<rscale>  0 0.93190879E+02</rscale>
<asrwt>0</asrwt>
<pdfrwt beam="1">  1        3 0.47003120E-02 0.93190879E+02</pdfrwt>
<pdfrwt beam="2">  1       -3 0.10932851E-01 0.93190879E+02</pdfrwt>
<totfact> 0.32552698E+04</totfact>
</mgrwt>
</event>
<event>
 7    1  0.1247599E-009  0.9016356E+02  0.7818608E-02  0.1302456E+00
         -3   -1    0    0    0  501 -0.00000000000E+00  0.00000000000E+00  0.26707743068E+01  0.26726833703E+01  0.10100000000E+00 0.  1.
          3   -1    0    0  501    0  0.00000000000E+00 -0.00000000000E+00 -0.76069166316E+03  0.76069166986E+03  0.10100000000E+00 0. -1.
         23    2    1    2    0    0  0.00000000000E+00 -0.17763568394E-14 -0.75802088885E+03  0.76336435324E+03  0.90163561668E+02 0.  0.
    9000005    2    3    3    0    0 -0.19052500792E+02 -0.94004160408E+01 -0.71409119333E+03  0.71456697875E+03  0.15111886595E+02 0.  0.
         22    1    3    3    0    0  0.19052500792E+02  0.94004160408E+01 -0.43929695524E+02  0.48797374489E+02  0.00000000000E+00 0.  1.
         22    1    4    4    0    0  0.19052950409E+01 -0.19313796018E+01 -0.32599306442E+02  0.32712003254E+02  0.00000000000E+00 0. -1.
         22    1    4    4    0    0 -0.20957795833E+02 -0.74690364390E+01 -0.68149188689E+03  0.68185497549E+03  0.00000000000E+00 0. -1.
<mgrwt>
<rscale>  0 0.90163562E+02</rscale>
<asrwt>0</asrwt>
<pdfrwt beam="2">  1        3 0.11702946E+00 0.90163562E+02</pdfrwt>
<pdfrwt beam="1">  1       -3 0.41103633E-03 0.90163562E+02</pdfrwt>
<totfact> 0.13325254E+04</totfact>
</mgrwt>
</event>
<event>
 7    1  0.1247599E-009  0.8989291E+02  0.7818608E-02  0.1303111E+00
         -3   -1    0    0    0  501 -0.00000000000E+00  0.00000000000E+00  0.20501559955E+03  0.20501562442E+03  0.10100000000E+00 0.  1.
          3   -1    0    0  501    0  0.00000000000E+00 -0.00000000000E+00 -0.98535202889E+01  0.98540379075E+01  0.10100000000E+00 0. -1.
         23    2    1    2    0    0  0.88817841970E-15 -0.35527136788E-14  0.19516207926E+03  0.21486966233E+03  0.89892906343E+02 0.  0.
    9000005    2    3    3    0    0  0.58055113707E+01 -0.28787753841E+02  0.17866906477E+03  0.18118794236E+03  0.66330247344E+01 0.  0.
         22    1    3    3    0    0 -0.58055113707E+01  0.28787753841E+02  0.16493014489E+02  0.33681719974E+02  0.00000000000E+00 0. -1.
         22    1    4    4    0    0  0.68397402749E+01 -0.27044088416E+02  0.16050349761E+03  0.16290959920E+03  0.00000000000E+00 0. -1.
         22    1    4    4    0    0 -0.10342289042E+01 -0.17436654257E+01  0.18165567155E+02  0.18278343159E+02  0.00000000000E+00 0. -1.
<mgrwt>
<rscale>  0 0.89892906E+02</rscale>
<asrwt>0</asrwt>
<pdfrwt beam="2">  1        3 0.15159681E-02 0.89892906E+02</pdfrwt>
<pdfrwt beam="1">  1       -3 0.31540900E-01 0.89892906E+02</pdfrwt>
<totfact> 0.28824469E+04</totfact>
</mgrwt>
</event>
<event>
 7    1  0.1247599E-009  0.8538498E+02  0.7818608E-02  0.1314429E+00
         -3   -1    0    0    0  501 -0.00000000000E+00  0.00000000000E+00  0.17322019297E+03  0.17322022242E+03  0.10100000000E+00 0.  1.
          3   -1    0    0  501    0  0.00000000000E+00 -0.00000000000E+00 -0.10521876061E+02  0.10522360802E+02  0.10100000000E+00 0. -1.
         23    2    1    2    0    0  0.00000000000E+00  0.00000000000E+00  0.16269831691E+03  0.18374258322E+03  0.85384978553E+02 0.  0.
    9000005    2    3    3    0    0 -0.10279572611E+02  0.28954668018E+02  0.14443713647E+03  0.14800026762E+03  0.98969900274E+01 0.  0.
         22    1    3    3    0    0  0.10279572611E+02 -0.28954668018E+02  0.18261180440E+02  0.35742315596E+02  0.00000000000E+00 0. -1.
         22    1    4    4    0    0 -0.36440296243E+01  0.16597179894E+01  0.23920691231E+02  0.24253516955E+02  0.00000000000E+00 0. -1.
         22    1    4    4    0    0 -0.66355429863E+01  0.27294950028E+02  0.12051644524E+03  0.12374675067E+03  0.00000000000E+00 0. -1.
<mgrwt>
<rscale>  0 0.85384979E+02</rscale>
<asrwt>0</asrwt>
<pdfrwt beam="2">  1        3 0.16187898E-02 0.85384979E+02</pdfrwt>
<pdfrwt beam="1">  1       -3 0.26649298E-01 0.85384979E+02</pdfrwt>
<totfact> 0.35023202E+04</totfact>
</mgrwt>
</event>
<event>
 7    1  0.1247599E-009  0.9432617E+02  0.7818608E-02  0.1292701E+00
         -3   -1    0    0    0  501 -0.00000000000E+00  0.00000000000E+00  0.74575123050E+01  0.74581962149E+01  0.10100000000E+00 0.  1.
          3   -1    0    0  501    0  0.00000000000E+00 -0.00000000000E+00 -0.29825621118E+03  0.29825622828E+03  0.10100000000E+00 0. -1.
         23    2    1    2    0    0  0.00000000000E+00 -0.17763568394E-14 -0.29079869888E+03  0.30571442450E+03  0.94326168573E+02 0.  0.
    9000005    2    3    3    0    0  0.36787852954E+02  0.12499353301E+02 -0.22873576876E+03  0.23249293002E+03  0.14944251218E+02 0.  0.
         22    1    3    3    0    0 -0.36787852954E+02 -0.12499353301E+02 -0.62062930121E+02  0.73221494475E+02  0.00000000000E+00 0.  1.
         22    1    4    4    0    0  0.23475339937E+01  0.17315571689E+01 -0.53554481367E+02  0.53633866918E+02  0.00000000000E+00 0. -1.
         22    1    4    4    0    0  0.34440318961E+02  0.10767796132E+02 -0.17518128739E+03  0.17885906311E+03  0.00000000000E+00 0. -1.
<mgrwt>
<rscale>  0 0.94326169E+02</rscale>
<asrwt>0</asrwt>
<pdfrwt beam="2">  1        3 0.45885616E-01 0.94326169E+02</pdfrwt>
<pdfrwt beam="1">  1       -3 0.11473637E-02 0.94326169E+02</pdfrwt>
<totfact> 0.21731669E+04</totfact>
</mgrwt>
</event>
<event>
 7    1  0.2840799E-009  0.8877037E+02  0.7818608E-02  0.1305857E+00
         -3   -1    0    0    0  501 -0.00000000000E+00  0.00000000000E+00  0.21772675977E+02  0.21772910237E+02  0.10100000000E+00 0.  1.
          3   -1    0    0  501    0  0.00000000000E+00 -0.00000000000E+00 -0.90481683293E+02  0.90481739664E+02  0.10100000000E+00 0. -1.
         23    2    1    2    0    0  0.00000000000E+00  0.00000000000E+00 -0.68709007316E+02  0.11225464990E+03  0.88770370834E+02 0.  0.
    9000005    2    3    3    0    0 -0.15177470568E+02  0.23765322290E+02 -0.76859040072E+02  0.82902151025E+02  0.13050227870E+02 0.  0.
         22    1    3    3    0    0  0.15177470568E+02 -0.23765322290E+02  0.81500327552E+01  0.29352498876E+02  0.00000000000E+00 0.  1.
         22    1    4    4    0    0 -0.55719568732E+01  0.92404409777E+00 -0.21879758231E+02  0.22596999384E+02  0.00000000000E+00 0.  1.
         22    1    4    4    0    0 -0.96055136946E+01  0.22841278192E+02 -0.54979281841E+02  0.60305151641E+02  0.00000000000E+00 0.  1.
<mgrwt>
<rscale>  0 0.88770371E+02</rscale>
<asrwt>0</asrwt>
<pdfrwt beam="2">  1        3 0.13920281E-01 0.88770371E+02</pdfrwt>
<pdfrwt beam="1">  1       -3 0.33496649E-02 0.88770371E+02</pdfrwt>
<totfact> 0.36324019E+04</totfact>
</mgrwt>
</event>
<event>
 7    1  0.1247599E-009  0.9781476E+02  0.7818608E-02  0.1284959E+00
          3   -1    0    0  501    0  0.00000000000E+00  0.00000000000E+00  0.70389733845E+01  0.70396979557E+01  0.10100000000E+00 0. -1.
         -3   -1    0    0    0  501 -0.00000000000E+00 -0.00000000000E+00 -0.33979440292E+03  0.33979441793E+03  0.10100000000E+00 0.  1.
         23    2    1    2    0    0  0.00000000000E+00  0.00000000000E+00 -0.33275542953E+03  0.34683411588E+03  0.97814764004E+02 0.  0.
    9000005    2    3    3    0    0  0.36316308734E+02  0.30201771395E+02 -0.14289166843E+03  0.15118323023E+03  0.14398573603E+02 0.  0.
         22    1    3    3    0    0 -0.36316308734E+02 -0.30201771395E+02 -0.18986376110E+03  0.19565088565E+03  0.00000000000E+00 0.  1.
         22    1    4    4    0    0  0.30428531851E+02  0.16877989216E+02 -0.98904582563E+02  0.10484692901E+03  0.00000000000E+00 0.  1.
         22    1    4    4    0    0  0.58877768833E+01  0.13323782178E+02 -0.43987085867E+02  0.46336301225E+02  0.00000000000E+00 0.  1.
<mgrwt>
<rscale>  0 0.97814764E+02</rscale>
<asrwt>0</asrwt>
<pdfrwt beam="1">  1        3 0.10829761E-02 0.97814764E+02</pdfrwt>
<pdfrwt beam="2">  1       -3 0.52276106E-01 0.97814764E+02</pdfrwt>
<totfact> 0.18467226E+04</totfact>
</mgrwt>
</event>
<event>
 7    1  0.1247599E-009  0.8258050E+02  0.7818608E-02  0.1321884E+00
         -3   -1    0    0    0  501 -0.00000000000E+00  0.00000000000E+00  0.29216263026E+02  0.29216437603E+02  0.10100000000E+00 0.  1.
          3   -1    0    0  501    0  0.00000000000E+00 -0.00000000000E+00 -0.58353575590E+02  0.58353662997E+02  0.10100000000E+00 0. -1.
         23    2    1    2    0    0  0.00000000000E+00  0.00000000000E+00 -0.29137312564E+02  0.87570100600E+02  0.82580503363E+02 0.  0.
    9000005    2    3    3    0    0  0.86552191864E+01 -0.30708101971E+02  0.12322639722E+02  0.35255399135E+02  0.85554294253E+01 0.  0.
         22    1    3    3    0    0 -0.86552191864E+01  0.30708101971E+02 -0.41459952285E+02  0.52314701465E+02  0.00000000000E+00 0. -1.
         22    1    4    4    0    0  0.21275805723E+01 -0.11228765521E+02  0.87718264208E+01  0.14406828692E+02  0.00000000000E+00 0. -1.
         22    1    4    4    0    0  0.65276386141E+01 -0.19479336450E+02  0.35508133009E+01  0.20848570443E+02  0.00000000000E+00 0. -1.
<mgrwt>
<rscale>  0 0.82580503E+02</rscale>
<asrwt>0</asrwt>
<pdfrwt beam="2">  1        3 0.89774933E-02 0.82580503E+02</pdfrwt>
<pdfrwt beam="1">  1       -3 0.44948299E-02 0.82580503E+02</pdfrwt>
<totfact> 0.46566158E+04</totfact>
</mgrwt>
</event>
<event>
 7    1  0.1247599E-009  0.9033352E+02  0.7818608E-02  0.1302046E+00
         -3   -1    0    0    0  501 -0.00000000000E+00  0.00000000000E+00  0.23176285358E+02  0.23176505431E+02  0.10100000000E+00 0.  1.
          3   -1    0    0  501    0  0.00000000000E+00 -0.00000000000E+00 -0.88021894291E+02  0.88021952237E+02  0.10100000000E+00 0. -1.
         23    2    1    2    0    0  0.00000000000E+00 -0.35527136788E-14 -0.64845608933E+02  0.11119845767E+03  0.90333515319E+02 0.  0.
    9000005    2    3    3    0    0  0.17072987879E+02  0.17966859713E+02  0.11400013328E+02  0.31025582723E+02  0.14776045356E+02 0.  0.
         22    1    3    3    0    0 -0.17072987879E+02 -0.17966859713E+02 -0.76245622261E+02  0.80172874945E+02  0.00000000000E+00 0. -1.
         22    1    4    4    0    0 -0.84469360023E-01  0.98093050709E+01  0.30436660320E+01  0.10271003065E+02  0.00000000000E+00 0. -1.
         22    1    4    4    0    0  0.17157457239E+02  0.81575546424E+01  0.83563472957E+01  0.20754579658E+02  0.00000000000E+00 0. -1.
<mgrwt>
<rscale>  0 0.90333515E+02</rscale>
<asrwt>0</asrwt>
<pdfrwt beam="2">  1        3 0.13541851E-01 0.90333515E+02</pdfrwt>
<pdfrwt beam="1">  1       -3 0.35656038E-02 0.90333515E+02</pdfrwt>
<totfact> 0.34723992E+04</totfact>
</mgrwt>
</event>
<event>
 7    1  0.1300669E-009  0.9073737E+02  0.7818608E-02  0.1301076E+00
          3   -1    0    0  501    0  0.00000000000E+00  0.00000000000E+00  0.12123299525E+02  0.12123720236E+02  0.10100000000E+00 0. -1.
         -3   -1    0    0    0  501 -0.00000000000E+00 -0.00000000000E+00 -0.16977856221E+03  0.16977859225E+03  0.10100000000E+00 0.  1.
         23    2    1    2    0    0  0.00000000000E+00 -0.88817841970E-15 -0.15765526269E+03  0.18190231249E+03  0.90737365161E+02 0.  0.
    9000005    2    3    3    0    0  0.40603694218E+02  0.48752492865E+01 -0.11361450215E+03  0.12180225735E+03  0.15972061720E+02 0.  0.
         22    1    3    3    0    0 -0.40603694218E+02 -0.48752492865E+01 -0.44040760531E+02  0.60100055141E+02  0.00000000000E+00 0. -1.
         22    1    4    4    0    0  0.23354239718E+02  0.82540316783E+01 -0.81639255016E+02  0.85314228071E+02  0.00000000000E+00 0.  1.
         22    1    4    4    0    0  0.17249454499E+02 -0.33787823918E+01 -0.31975247139E+02  0.36488029278E+02  0.00000000000E+00 0.  1.
<mgrwt>
<rscale>  0 0.90737365E+02</rscale>
<asrwt>0</asrwt>
<pdfrwt beam="1">  1        3 0.18651578E-02 0.90737365E+02</pdfrwt>
<pdfrwt beam="2">  1       -3 0.26119812E-01 0.90737365E+02</pdfrwt>
<totfact> 0.29848015E+04</totfact>
</mgrwt>
</event>
<event>
 7    1  0.1247599E-009  0.8986334E+02  0.7818608E-02  0.1303183E+00
         -3   -1    0    0    0  501 -0.00000000000E+00  0.00000000000E+00  0.28356265205E+02  0.28356445077E+02  0.10100000000E+00 0.  1.
          3   -1    0    0  501    0  0.00000000000E+00 -0.00000000000E+00 -0.71195647546E+02  0.71195719186E+02  0.10100000000E+00 0. -1.
         23    2    1    2    0    0  0.17763568394E-14  0.00000000000E+00 -0.42839382340E+02  0.99552164263E+02  0.89863344753E+02 0.  0.
    9000005    2    3    3    0    0 -0.98784893371E+01  0.35535675315E+02 -0.48759656922E+02  0.62196864468E+02  0.11427030881E+02 0.  0.
         22    1    3    3    0    0  0.98784893371E+01 -0.35535675315E+02  0.59202745816E+01  0.37355299795E+02  0.00000000000E+00 0.  1.
         22    1    4    4    0    0 -0.44882869883E+01  0.19375413632E+02 -0.35174034113E+02  0.40407475166E+02  0.00000000000E+00 0.  1.
         22    1    4    4    0    0 -0.53902023488E+01  0.16160261684E+02 -0.13585622809E+02  0.21789389302E+02  0.00000000000E+00 0.  1.
<mgrwt>
<rscale>  0 0.89863345E+02</rscale>
<asrwt>0</asrwt>
<pdfrwt beam="2">  1        3 0.10953196E-01 0.89863345E+02</pdfrwt>
<pdfrwt beam="1">  1       -3 0.43625217E-02 0.89863345E+02</pdfrwt>
<totfact> 0.36099320E+04</totfact>
</mgrwt>
</event>
<event>
 7    1  0.1247599E-009  0.8982295E+02  0.7818608E-02  0.1303281E+00
          3   -1    0    0  501    0  0.00000000000E+00  0.00000000000E+00  0.21836952975E+02  0.21837186546E+02  0.10100000000E+00 0. -1.
         -3   -1    0    0    0  501 -0.00000000000E+00 -0.00000000000E+00 -0.92367469360E+02  0.92367524580E+02  0.10100000000E+00 0.  1.
         23    2    1    2    0    0  0.00000000000E+00  0.35527136788E-14 -0.70530516385E+02  0.11420471113E+03  0.89822949750E+02 0.  0.
    9000005    2    3    3    0    0 -0.12644380114E+02  0.24084593988E+02  0.98432791482E+01  0.29352515960E+02  0.49731310826E+01 0.  0.
         22    1    3    3    0    0  0.12644380114E+02 -0.24084593988E+02 -0.80373795533E+02  0.84852195166E+02  0.00000000000E+00 0.  1.
         22    1    4    4    0    0 -0.24613310723E+01  0.61290224667E+01  0.46186631411E+01  0.80594736960E+01  0.00000000000E+00 0. -1.
         22    1    4    4    0    0 -0.10183049042E+02  0.17955571521E+02  0.52246160071E+01  0.21293042264E+02  0.00000000000E+00 0. -1.
<mgrwt>
<rscale>  0 0.89822950E+02</rscale>
<asrwt>0</asrwt>
<pdfrwt beam="1">  1        3 0.33595535E-02 0.89822950E+02</pdfrwt>
<pdfrwt beam="2">  1       -3 0.14210402E-01 0.89822950E+02</pdfrwt>
<totfact> 0.35042091E+04</totfact>
</mgrwt>
</event>
<event>
 7    1  0.1247599E-009  0.9049672E+02  0.7818608E-02  0.1301653E+00
          3   -1    0    0  501    0  0.00000000000E+00  0.00000000000E+00  0.50983580374E+02  0.50983680416E+02  0.10100000000E+00 0. -1.
         -3   -1    0    0    0  501 -0.00000000000E+00 -0.00000000000E+00 -0.40158104015E+02  0.40158231025E+02  0.10100000000E+00 0.  1.
         23    2    1    2    0    0 -0.35527136788E-14  0.00000000000E+00  0.10825476360E+02  0.91141911441E+02  0.90496724155E+02 0.  0.
    9000005    2    3    3    0    0 -0.29451070188E+02 -0.11085624611E+02  0.36896415657E+02  0.50276883800E+02  0.13272639075E+02 0.  0.
         22    1    3    3    0    0  0.29451070188E+02  0.11085624611E+02 -0.26070939297E+02  0.40865027641E+02  0.00000000000E+00 0.  1.
         22    1    4    4    0    0 -0.56495374259E+01 -0.17730834985E+01  0.69435782001E+00  0.59618144052E+01  0.00000000000E+00 0. -1.
         22    1    4    4    0    0 -0.23801532763E+02 -0.93125411128E+01  0.36202057837E+02  0.44315069395E+02  0.00000000000E+00 0. -1.
<mgrwt>
<rscale>  0 0.90496724E+02</rscale>
<asrwt>0</asrwt>
<pdfrwt beam="1">  1        3 0.78436452E-02 0.90496724E+02</pdfrwt>
<pdfrwt beam="2">  1       -3 0.61781873E-02 0.90496724E+02</pdfrwt>
<totfact> 0.36068928E+04</totfact>
</mgrwt>
</event>
<event>
 7    1  0.1247599E-009  0.8876311E+02  0.7818608E-02  0.1305875E+00
          3   -1    0    0  501    0  0.00000000000E+00  0.00000000000E+00  0.66826979677E+02  0.66827056000E+02  0.10100000000E+00 0. -1.
         -3   -1    0    0    0  501 -0.00000000000E+00 -0.00000000000E+00 -0.29474775330E+02  0.29474948376E+02  0.10100000000E+00 0.  1.
         23    2    1    2    0    0  0.00000000000E+00  0.00000000000E+00  0.37352204347E+02  0.96302004376E+02  0.88763105383E+02 0.  0.
    9000005    2    3    3    0    0  0.40636420488E+02  0.55246165524E+01  0.36508062024E+02  0.55283074180E+02  0.64451252833E+01 0.  0.
         22    1    3    3    0    0 -0.40636420488E+02 -0.55246165524E+01  0.84414232302E+00  0.41018930196E+02  0.00000000000E+00 0.  1.
         22    1    4    4    0    0  0.52909787555E+01  0.23322482824E+01  0.73497868385E+01  0.93516418245E+01  0.00000000000E+00 0. -1.
         22    1    4    4    0    0  0.35345441733E+02  0.31923682699E+01  0.29158275185E+02  0.45931432356E+02  0.00000000000E+00 0. -1.
<mgrwt>
<rscale>  0 0.88763105E+02</rscale>
<asrwt>0</asrwt>
<pdfrwt beam="1">  1        3 0.10281093E-01 0.88763105E+02</pdfrwt>
<pdfrwt beam="2">  1       -3 0.45346000E-02 0.88763105E+02</pdfrwt>
<totfact> 0.37587721E+04</totfact>
</mgrwt>
</event>
<event>
 7    1  0.1247599E-009  0.9089328E+02  0.7818608E-02  0.1300703E+00
         -3   -1    0    0    0  501 -0.00000000000E+00  0.00000000000E+00  0.57317028942E+02  0.57317117930E+02  0.10100000000E+00 0.  1.
          3   -1    0    0  501    0  0.00000000000E+00 -0.00000000000E+00 -0.36034430855E+02  0.36034572400E+02  0.10100000000E+00 0. -1.
         23    2    1    2    0    0 -0.35527136788E-14  0.71054273576E-14  0.21282598087E+02  0.93351690330E+02  0.90893284164E+02 0.  0.
    9000005    2    3    3    0    0 -0.24056016988E+02  0.35299970118E+02  0.22343996165E+02  0.50621064199E+02  0.15442089639E+02 0.  0.
         22    1    3    3    0    0  0.24056016988E+02 -0.35299970118E+02 -0.10613980785E+01  0.42730626130E+02  0.00000000000E+00 0. -1.
         22    1    4    4    0    0 -0.22845516255E+02  0.36262065879E+02  0.18890124329E+02  0.46836864028E+02  0.00000000000E+00 0.  1.
         22    1    4    4    0    0 -0.12105007325E+01 -0.96209576147E+00  0.34538718364E+01  0.37842001717E+01  0.00000000000E+00 0.  1.
<mgrwt>
<rscale>  0 0.90893284E+02</rscale>
<asrwt>0</asrwt>
<pdfrwt beam="2">  1        3 0.55437763E-02 0.90893284E+02</pdfrwt>
<pdfrwt beam="1">  1       -3 0.88180222E-02 0.90893284E+02</pdfrwt>
<totfact> 0.35472614E+04</totfact>
</mgrwt>
</event>
<event>
 7    1  0.1247599E-009  0.9480241E+02  0.7818608E-02  0.1291622E+00
         -3   -1    0    0    0  501 -0.00000000000E+00  0.00000000000E+00  0.18662907291E+03  0.18662910024E+03  0.10100000000E+00 0.  1.
          3   -1    0    0  501    0  0.00000000000E+00 -0.00000000000E+00 -0.12039011209E+02  0.12039434865E+02  0.10100000000E+00 0. -1.
         23    2    1    2    0    0 -0.35527136788E-14  0.35527136788E-14  0.17459006170E+03  0.19866853510E+03  0.94802411339E+02 0.  0.
    9000005    2    3    3    0    0  0.23580560684E+02 -0.20840675267E+02  0.16640055431E+02  0.37613944768E+02  0.12146637745E+02 0.  0.
         22    1    3    3    0    0 -0.23580560684E+02  0.20840675267E+02  0.15795000627E+03  0.16105459034E+03  0.00000000000E+00 0.  1.
         22    1    4    4    0    0  0.24739594584E+02 -0.18453383898E+02  0.16397017716E+02  0.34949064472E+02  0.00000000000E+00 0.  1.
         22    1    4    4    0    0 -0.11590339000E+01 -0.23872913689E+01  0.24303771446E+00  0.26648802960E+01  0.00000000000E+00 0.  1.
<mgrwt>
<rscale>  0 0.94802411E+02</rscale>
<asrwt>0</asrwt>
<pdfrwt beam="2">  1        3 0.18521903E-02 0.94802411E+02</pdfrwt>
<pdfrwt beam="1">  1       -3 0.28712199E-01 0.94802411E+02</pdfrwt>
<totfact> 0.25703783E+04</totfact>
</mgrwt>
</event>
<event>
 7    1  0.1247599E-009  0.9344506E+02  0.7818608E-02  0.1294717E+00
          3   -1    0    0  501    0  0.00000000000E+00  0.00000000000E+00  0.83834142921E+02  0.83834203761E+02  0.10100000000E+00 0. -1.
         -3   -1    0    0    0  501 -0.00000000000E+00 -0.00000000000E+00 -0.26039279713E+02  0.26039475590E+02  0.10100000000E+00 0.  1.
         23    2    1    2    0    0  0.00000000000E+00  0.00000000000E+00  0.57794863208E+02  0.10987367935E+03  0.93445059800E+02 0.  0.
    9000005    2    3    3    0    0  0.10272597515E+02  0.43875785672E+02  0.39925847769E+02  0.61397782858E+02  0.12041743716E+02 0.  0.
         22    1    3    3    0    0 -0.10272597515E+02 -0.43875785672E+02  0.17869015439E+02  0.48475896493E+02  0.00000000000E+00 0.  1.
         22    1    4    4    0    0  0.31801224708E+01  0.25460929784E+02  0.15425216460E+02  0.29938427268E+02  0.00000000000E+00 0.  1.
         22    1    4    4    0    0  0.70924750443E+01  0.18414855888E+02  0.24500631309E+02  0.31459355590E+02  0.00000000000E+00 0.  1.
<mgrwt>
<rscale>  0 0.93445060E+02</rscale>
<asrwt>0</asrwt>
<pdfrwt beam="1">  1        3 0.12897580E-01 0.93445060E+02</pdfrwt>
<pdfrwt beam="2">  1       -3 0.40060628E-02 0.93445060E+02</pdfrwt>
<totfact> 0.31753568E+04</totfact>
</mgrwt>
</event>
<event>
 7    1  0.1247599E-009  0.9061333E+02  0.7818608E-02  0.1301373E+00
          3   -1    0    0  501    0  0.00000000000E+00  0.00000000000E+00  0.53310900892E+02  0.53310996567E+02  0.10100000000E+00 0. -1.
         -3   -1    0    0    0  501 -0.00000000000E+00 -0.00000000000E+00 -0.38504013139E+02  0.38504145606E+02  0.10100000000E+00 0.  1.
         23    2    1    2    0    0  0.00000000000E+00  0.35527136788E-14  0.14806887753E+02  0.91815142172E+02  0.90613334599E+02 0.  0.
    9000005    2    3    3    0    0  0.10943828856E+02  0.30298823807E+02  0.38727298343E+02  0.51690683834E+02  0.11590385852E+02 0.  0.
         22    1    3    3    0    0 -0.10943828856E+02 -0.30298823807E+02 -0.23920410590E+02  0.40124458338E+02  0.00000000000E+00 0.  1.
         22    1    4    4    0    0  0.49518129762E+01  0.10231397922E+02  0.60455496792E+01  0.12874417506E+02  0.00000000000E+00 0. -1.
         22    1    4    4    0    0  0.59920158800E+01  0.20067425885E+02  0.32681748664E+02  0.38816266328E+02  0.00000000000E+00 0. -1.
<mgrwt>
<rscale>  0 0.90613335E+02</rscale>
<asrwt>0</asrwt>
<pdfrwt beam="1">  1        3 0.82016946E-02 0.90613335E+02</pdfrwt>
<pdfrwt beam="2">  1       -3 0.59237119E-02 0.90613335E+02</pdfrwt>
<totfact> 0.35890119E+04</totfact>
</mgrwt>
</event>
<event>
 7    1  0.1247599E-009  0.9177452E+02  0.7818608E-02  0.1298610E+00
          3   -1    0    0  501    0  0.00000000000E+00  0.00000000000E+00  0.15086371556E+03  0.15086374937E+03  0.10100000000E+00 0. -1.
         -3   -1    0    0    0  501 -0.00000000000E+00 -0.00000000000E+00 -0.13957018934E+02  0.13957384373E+02  0.10100000000E+00 0.  1.
         23    2    1    2    0    0  0.00000000000E+00  0.00000000000E+00  0.13690669662E+03  0.16482113374E+03  0.91774520139E+02 0.  0.
    9000005    2    3    3    0    0 -0.11492030368E+02 -0.18404252479E+02  0.14072246444E+03  0.14279062409E+03  0.10750211992E+02 0.  0.
         22    1    3    3    0    0  0.11492030368E+02  0.18404252479E+02 -0.38157678211E+01  0.22030509648E+02  0.00000000000E+00 0.  1.
         22    1    4    4    0    0  0.76003239460E+00  0.65276539170E+00  0.15703121822E+02  0.15735049630E+02  0.00000000000E+00 0. -1.
         22    1    4    4    0    0 -0.12252062762E+02 -0.19057017871E+02  0.12501934262E+03  0.12705557446E+03  0.00000000000E+00 0. -1.
<mgrwt>
<rscale>  0 0.91774520E+02</rscale>
<asrwt>0</asrwt>
<pdfrwt beam="1">  1        3 0.23209832E-01 0.91774520E+02</pdfrwt>
<pdfrwt beam="2">  1       -3 0.21472645E-02 0.91774520E+02</pdfrwt>
<totfact> 0.29890216E+04</totfact>
</mgrwt>
</event>
<event>
 7    1  0.1247599E-009  0.9184570E+02  0.7818608E-02  0.1298443E+00
          3   -1    0    0  501    0  0.00000000000E+00  0.00000000000E+00  0.14180838513E+03  0.14180842110E+03  0.10100000000E+00 0. -1.
         -3   -1    0    0    0  501 -0.00000000000E+00 -0.00000000000E+00 -0.14871324972E+02  0.14871667944E+02  0.10100000000E+00 0.  1.
         23    2    1    2    0    0  0.00000000000E+00  0.00000000000E+00  0.12693706016E+03  0.15668008904E+03  0.91845702461E+02 0.  0.
    9000005    2    3    3    0    0 -0.28292852469E+02  0.21934061206E+01  0.12434293274E+03  0.12818401864E+03  0.12832816619E+02 0.  0.
         22    1    3    3    0    0  0.28292852469E+02 -0.21934061206E+01  0.25941274227E+01  0.28496070401E+02  0.00000000000E+00 0.  1.
         22    1    4    4    0    0  0.12468050200E+01 -0.62885230238E+00  0.77053911185E+01  0.78309022638E+01  0.00000000000E+00 0.  1.
         22    1    4    4    0    0 -0.29539657489E+02  0.28222584230E+01  0.11663754162E+03  0.12035311638E+03  0.00000000000E+00 0.  1.
<mgrwt>
<rscale>  0 0.91845702E+02</rscale>
<asrwt>0</asrwt>
<pdfrwt beam="1">  1        3 0.21816704E-01 0.91845702E+02</pdfrwt>
<pdfrwt beam="2">  1       -3 0.22879253E-02 0.91845702E+02</pdfrwt>
<totfact> 0.30296748E+04</totfact>
</mgrwt>
</event>
<event>
 7    1  0.1247599E-009  0.9367438E+02  0.7818608E-02  0.1294190E+00
         -3   -1    0    0    0  501 -0.00000000000E+00  0.00000000000E+00  0.69041248153E+02  0.69041322029E+02  0.10100000000E+00 0.  1.
          3   -1    0    0  501    0  0.00000000000E+00 -0.00000000000E+00 -0.31773913568E+02  0.31774074093E+02  0.10100000000E+00 0. -1.
         23    2    1    2    0    0  0.00000000000E+00  0.44408920985E-15  0.37267334584E+02  0.10081539612E+03  0.93674382134E+02 0.  0.
    9000005    2    3    3    0    0  0.33209521205E+02 -0.17636330564E+01 -0.16129529764E+02  0.37909054450E+02  0.84232997516E+01 0.  0.
         22    1    3    3    0    0 -0.33209521205E+02  0.17636330564E+01  0.53396864349E+02  0.62906341671E+02  0.00000000000E+00 0.  1.
         22    1    4    4    0    0  0.23864019516E+02 -0.35806911676E+01 -0.14768586828E+02  0.28291764413E+02  0.00000000000E+00 0.  1.
         22    1    4    4    0    0  0.93455016885E+01  0.18170581112E+01 -0.13609429366E+01  0.96172900375E+01  0.00000000000E+00 0.  1.
<mgrwt>
<rscale>  0 0.93674382E+02</rscale>
<asrwt>0</asrwt>
<pdfrwt beam="2">  1        3 0.48883125E-02 0.93674382E+02</pdfrwt>
<pdfrwt beam="1">  1       -3 0.10621748E-01 0.93674382E+02</pdfrwt>
<totfact> 0.32150050E+04</totfact>
</mgrwt>
</event>
<event>
 7    1  0.1247599E-009  0.9314471E+02  0.7818608E-02  0.1295410E+00
         -3   -1    0    0    0  501 -0.00000000000E+00  0.00000000000E+00  0.27202444127E+03  0.27202446002E+03  0.10100000000E+00 0. -1.
          3   -1    0    0  501    0  0.00000000000E+00 -0.00000000000E+00 -0.79731514780E+01  0.79737911617E+01  0.10100000000E+00 0.  1.
         23    2    1    2    0    0  0.17763568394E-14  0.00000000000E+00  0.26405128979E+03  0.27999825118E+03  0.93144710124E+02 0.  0.
    9000005    2    3    3    0    0 -0.12873424677E+02  0.34909582671E+02  0.57674388861E+02  0.70294104196E+02  0.15182948629E+02 0.  0.
         22    1    3    3    0    0  0.12873424677E+02 -0.34909582671E+02  0.20637690093E+03  0.20970414698E+03  0.00000000000E+00 0.  1.
         22    1    4    4    0    0 -0.85756751690E+01  0.87598924394E+01  0.27660349079E+02  0.30255129009E+02  0.00000000000E+00 0.  1.
         22    1    4    4    0    0 -0.42977495079E+01  0.26149690231E+02  0.30014039781E+02  0.40038975187E+02  0.00000000000E+00 0.  1.
<mgrwt>
<rscale>  0 0.93144710E+02</rscale>
<asrwt>0</asrwt>
<pdfrwt beam="2">  1        3 0.12266892E-02 0.93144710E+02</pdfrwt>
<pdfrwt beam="1">  1       -3 0.41849969E-01 0.93144710E+02</pdfrwt>
<totfact> 0.23432866E+04</totfact>
</mgrwt>
</event>
<event>
 7    1  0.1247599E-009  0.9272547E+02  0.7818608E-02  0.1296383E+00
         -3   -1    0    0    0  501 -0.00000000000E+00  0.00000000000E+00  0.77340215868E+02  0.77340281816E+02  0.10100000000E+00 0.  1.
          3   -1    0    0  501    0  0.00000000000E+00 -0.00000000000E+00 -0.27792654345E+02  0.27792837864E+02  0.10100000000E+00 0. -1.
         23    2    1    2    0    0  0.00000000000E+00  0.00000000000E+00  0.49547561523E+02  0.10513311968E+03  0.92725465762E+02 0.  0.
    9000005    2    3    3    0    0 -0.11599578907E+02 -0.44496012214E+02  0.27573223612E+02  0.54169241685E+02  0.77187272624E+01 0.  0.
         22    1    3    3    0    0  0.11599578907E+02  0.44496012214E+02  0.21974337910E+02  0.50963877996E+02  0.00000000000E+00 0. -1.
         22    1    4    4    0    0 -0.43942563459E+01 -0.17567119295E+02  0.65589507579E+01  0.19259621082E+02  0.00000000000E+00 0.  1.
         22    1    4    4    0    0 -0.72053225616E+01 -0.26928892918E+02  0.21014272855E+02  0.34909620603E+02  0.00000000000E+00 0.  1.
<mgrwt>
<rscale>  0 0.92725466E+02</rscale>
<asrwt>0</asrwt>
<pdfrwt beam="2">  1        3 0.42758123E-02 0.92725466E+02</pdfrwt>
<pdfrwt beam="1">  1       -3 0.11898514E-01 0.92725466E+02</pdfrwt>
<totfact> 0.32756547E+04</totfact>
</mgrwt>
</event>
<event>
 7    1  0.1247599E-009  0.9044005E+02  0.7818608E-02  0.1301790E+00
         -3   -1    0    0    0  501 -0.00000000000E+00  0.00000000000E+00  0.38019393358E+01  0.38032806514E+01  0.10100000000E+00 0.  1.
          3   -1    0    0  501    0  0.00000000000E+00 -0.00000000000E+00 -0.53774795290E+03  0.53774796238E+03  0.10100000000E+00 0. -1.
         23    2    1    2    0    0  0.00000000000E+00  0.00000000000E+00 -0.53394601356E+03  0.54155124303E+03  0.90440054363E+02 0.  0.
    9000005    2    3    3    0    0 -0.36465693104E+02 -0.11443757521E+01 -0.42480534058E+03  0.42647412598E+03  0.94628948974E+01 0.  0.
         22    1    3    3    0    0  0.36465693104E+02  0.11443757521E+01 -0.10914067299E+03  0.11507711705E+03  0.00000000000E+00 0.  1.
         22    1    4    4    0    0 -0.33677594507E+02 -0.24625907565E+01 -0.40745426766E+03  0.40885110365E+03  0.00000000000E+00 0. -1.
         22    1    4    4    0    0 -0.27880985977E+01  0.13182150044E+01 -0.17351072918E+02  0.17623022328E+02  0.00000000000E+00 0. -1.
<mgrwt>
<rscale>  0 0.90440054E+02</rscale>
<asrwt>0</asrwt>
<pdfrwt beam="2">  1        3 0.82730498E-01 0.90440054E+02</pdfrwt>
<pdfrwt beam="1">  1       -3 0.58501808E-03 0.90440054E+02</pdfrwt>
<totfact> 0.17319425E+04</totfact>
</mgrwt>
</event>
<event>
 7    1  0.1247599E-009  0.9983561E+02  0.7818608E-02  0.1280642E+00
          3   -1    0    0  501    0  0.00000000000E+00  0.00000000000E+00  0.46894581556E+03  0.46894582644E+03  0.10100000000E+00 0. -1.
         -3   -1    0    0    0  501 -0.00000000000E+00 -0.00000000000E+00 -0.53131021136E+01  0.53140620122E+01  0.10100000000E+00 0.  1.
         23    2    1    2    0    0 -0.71054273576E-14  0.88817841970E-15  0.46363271345E+03  0.47425988845E+03  0.99835608946E+02 0.  0.
    9000005    2    3    3    0    0  0.44987301670E+02 -0.65463233336E+01  0.32855676863E+03  0.33173893374E+03  0.58701184834E+01 0.  0.
         22    1    3    3    0    0 -0.44987301670E+02  0.65463233336E+01  0.13507594482E+03  0.14252095471E+03  0.00000000000E+00 0.  1.
         22    1    4    4    0    0  0.10368870332E+02 -0.19835383150E+01  0.59998265738E+02  0.60919945730E+02  0.00000000000E+00 0. -1.
         22    1    4    4    0    0  0.34618431338E+02 -0.45627850186E+01  0.26855850289E+03  0.27081898801E+03  0.00000000000E+00 0. -1.
<mgrwt>
<rscale>  0 0.99835609E+02</rscale>
<asrwt>0</asrwt>
<pdfrwt beam="1">  1        3 0.72145596E-01 0.99835609E+02</pdfrwt>
<pdfrwt beam="2">  1       -3 0.81747488E-03 0.99835609E+02</pdfrwt>
<totfact> 0.14540579E+04</totfact>
</mgrwt>
</event>
<event>
 7    1  0.1247599E-009  0.8863865E+02  0.7818608E-02  0.1306182E+00
          3   -1    0    0  501    0  0.00000000000E+00  0.00000000000E+00  0.18286419038E+03  0.18286421827E+03  0.10100000000E+00 0. -1.
         -3   -1    0    0    0  501 -0.00000000000E+00 -0.00000000000E+00 -0.10741052788E+02  0.10741527638E+02  0.10100000000E+00 0.  1.
         23    2    1    2    0    0  0.00000000000E+00  0.44408920985E-15  0.17212313759E+03  0.19360574591E+03  0.88638650458E+02 0.  0.
    9000005    2    3    3    0    0  0.42500249358E+02  0.33274242453E+01  0.10362940414E+03  0.11292901773E+03  0.14020224516E+02 0.  0.
         22    1    3    3    0    0 -0.42500249358E+02 -0.33274242453E+01  0.68493733448E+02  0.80676728177E+02  0.00000000000E+00 0.  1.
         22    1    4    4    0    0 -0.64765476571E+00 -0.73734027978E+00  0.64423564629E+01  0.65166773880E+01  0.00000000000E+00 0. -1.
         22    1    4    4    0    0  0.43147904124E+02  0.40647645251E+01  0.97187047678E+02  0.10641234034E+03  0.00000000000E+00 0. -1.
<mgrwt>
<rscale>  0 0.88638650E+02</rscale>
<asrwt>0</asrwt>
<pdfrwt beam="1">  1        3 0.28132992E-01 0.88638650E+02</pdfrwt>
<pdfrwt beam="2">  1       -3 0.16525082E-02 0.88638650E+02</pdfrwt>
<totfact> 0.31108294E+04</totfact>
</mgrwt>
</event>
<event>
 7    1  0.1247599E-009  0.9180417E+02  0.7818608E-02  0.1298541E+00
          3   -1    0    0  501    0  0.00000000000E+00  0.00000000000E+00  0.17675636710E+02  0.17675925269E+02  0.10100000000E+00 0. -1.
         -3   -1    0    0    0  501 -0.00000000000E+00 -0.00000000000E+00 -0.11920241643E+03  0.11920245922E+03  0.10100000000E+00 0.  1.
         23    2    1    2    0    0  0.00000000000E+00 -0.71054273576E-14 -0.10152677972E+03  0.13687838449E+03  0.91804167335E+02 0.  0.
    9000005    2    3    3    0    0 -0.98031394245E+01 -0.32964389058E+02 -0.63385381831E+01  0.35667941275E+02  0.70194358741E+01 0.  0.
         22    1    3    3    0    0  0.98031394245E+01  0.32964389058E+02 -0.95188241540E+02  0.10121044322E+03  0.00000000000E+00 0.  1.
         22    1    4    4    0    0 -0.35752131699E+01 -0.71073551430E+01  0.11468880407E+01  0.80381589010E+01  0.00000000000E+00 0. -1.
         22    1    4    4    0    0 -0.62279262546E+01 -0.25857033915E+02 -0.74854262238E+01  0.27629782374E+02  0.00000000000E+00 0. -1.
<mgrwt>
<rscale>  0 0.91804167E+02</rscale>
<asrwt>0</asrwt>
<pdfrwt beam="1">  1        3 0.27193543E-02 0.91804167E+02</pdfrwt>
<pdfrwt beam="2">  1       -3 0.18338858E-01 0.91804167E+02</pdfrwt>
<totfact> 0.31537735E+04</totfact>
</mgrwt>
</event>
<event>
 7    1  0.1247599E-009  0.8998364E+02  0.7818608E-02  0.1302891E+00
         -3   -1    0    0    0  501 -0.00000000000E+00  0.00000000000E+00  0.26277846277E+03  0.26277848218E+03  0.10100000000E+00 0.  1.
          3   -1    0    0  501    0  0.00000000000E+00 -0.00000000000E+00 -0.77029587769E+01  0.77036208966E+01  0.10100000000E+00 0. -1.
         23    2    1    2    0    0  0.00000000000E+00  0.00000000000E+00  0.25507550400E+03  0.27048210308E+03  0.89983639332E+02 0.  0.
    9000005    2    3    3    0    0 -0.62519274098E+01  0.15131773581E+02  0.25295773268E+03  0.25397325323E+03  0.15708012777E+02 0.  0.
         22    1    3    3    0    0  0.62519274098E+01 -0.15131773581E+02  0.21177713173E+01  0.16508849851E+02  0.00000000000E+00 0. -1.
         22    1    4    4    0    0 -0.14025642942E+01  0.17308800937E+02  0.19076413398E+03  0.19155290807E+03  0.00000000000E+00 0. -1.
         22    1    4    4    0    0 -0.48493631156E+01 -0.21770273562E+01  0.62193598701E+02  0.62420345162E+02  0.00000000000E+00 0. -1.
<mgrwt>
<rscale>  0 0.89983639E+02</rscale>
<asrwt>0</asrwt>
<pdfrwt beam="2">  1        3 0.11851227E-02 0.89983639E+02</pdfrwt>
<pdfrwt beam="1">  1       -3 0.40427518E-01 0.89983639E+02</pdfrwt>
<totfact> 0.26121212E+04</totfact>
</mgrwt>
</event>
<event>
 7    1  0.1247599E-009  0.8808882E+02  0.7818608E-02  0.1307547E+00
         -3   -1    0    0    0  501 -0.00000000000E+00  0.00000000000E+00  0.41846747635E+02  0.41846869520E+02  0.10100000000E+00 0.  1.
          3   -1    0    0  501    0  0.00000000000E+00 -0.00000000000E+00 -0.46357242904E+02  0.46357352930E+02  0.10100000000E+00 0. -1.
         23    2    1    2    0    0  0.71054273576E-14  0.00000000000E+00 -0.45104952695E+01  0.88204222450E+02  0.88088820462E+02 0.  0.
    9000005    2    3    3    0    0 -0.40090885613E+02  0.13618472543E+02 -0.10366722380E+02  0.45460365585E+02  0.12900930298E+02 0.  0.
         22    1    3    3    0    0  0.40090885613E+02 -0.13618472543E+02  0.58562271107E+01  0.42743856864E+02  0.00000000000E+00 0. -1.
         22    1    4    4    0    0  0.63243009192E+00  0.16083660517E+01 -0.94654825993E+00  0.19704727316E+01  0.00000000000E+00 0.  1.
         22    1    4    4    0    0 -0.40723315705E+02  0.12010106492E+02 -0.94201741203E+01  0.43489892854E+02  0.00000000000E+00 0.  1.
<mgrwt>
<rscale>  0 0.88088820E+02</rscale>
<asrwt>0</asrwt>
<pdfrwt beam="2">  1        3 0.71319013E-02 0.88088820E+02</pdfrwt>
<pdfrwt beam="1">  1       -3 0.64379791E-02 0.88088820E+02</pdfrwt>
<totfact> 0.39058411E+04</totfact>
</mgrwt>
</event>
<event>
 7    1  0.1298534E-009  0.9255409E+02  0.7818608E-02  0.1296782E+00
         -3   -1    0    0    0  501 -0.00000000000E+00  0.00000000000E+00  0.11401452615E+03  0.11401457088E+03  0.10100000000E+00 0.  1.
          3   -1    0    0  501    0  0.00000000000E+00 -0.00000000000E+00 -0.18783077812E+02  0.18783349358E+02  0.10100000000E+00 0. -1.
         23    2    1    2    0    0  0.00000000000E+00  0.00000000000E+00  0.95231448334E+02  0.13279792024E+03  0.92554086178E+02 0.  0.
    9000005    2    3    3    0    0 -0.18251798879E+02 -0.30145550976E+02  0.89794290753E+01  0.39624462473E+02  0.15734849024E+02 0.  0.
         22    1    3    3    0    0  0.18251798879E+02  0.30145550976E+02  0.86252019259E+02  0.93173457767E+02  0.00000000000E+00 0.  1.
         22    1    4    4    0    0 -0.19401417853E+02 -0.30870035641E+02  0.68501026728E+01  0.37098490830E+02  0.00000000000E+00 0. -1.
         22    1    4    4    0    0  0.11496189743E+01  0.72448466505E+00  0.21293264025E+01  0.25259716436E+01  0.00000000000E+00 0. -1.
<mgrwt>
<rscale>  0 0.92554086E+02</rscale>
<asrwt>0</asrwt>
<pdfrwt beam="2">  1        3 0.28897287E-02 0.92554086E+02</pdfrwt>
<pdfrwt beam="1">  1       -3 0.17540720E-01 0.92554086E+02</pdfrwt>
<totfact> 0.31100440E+04</totfact>
</mgrwt>
</event>
<event>
 7    1  0.1247599E-009  0.9282178E+02  0.7818608E-02  0.1296159E+00
          3   -1    0    0  501    0  0.00000000000E+00  0.00000000000E+00  0.33949556154E+02  0.33949706391E+02  0.10100000000E+00 0. -1.
         -3   -1    0    0    0  501 -0.00000000000E+00 -0.00000000000E+00 -0.63445875189E+02  0.63445955580E+02  0.10100000000E+00 0.  1.
         23    2    1    2    0    0  0.00000000000E+00  0.00000000000E+00 -0.29496319035E+02  0.97395661971E+02  0.92821776185E+02 0.  0.
    9000005    2    3    3    0    0 -0.54390798735E+01 -0.18011728221E+02  0.29712005619E+02  0.35269728161E+02  0.26729203654E+01 0.  0.
         22    1    3    3    0    0  0.54390798735E+01  0.18011728221E+02 -0.59208324654E+02  0.62125933810E+02  0.00000000000E+00 0.  1.
         22    1    4    4    0    0  0.15080263666E-01  0.60443479542E-01 -0.64792635286E-02  0.62632335317E-01  0.00000000000E+00 0. -1.
         22    1    4    4    0    0 -0.54541601372E+01 -0.18072171701E+02  0.29718484882E+02  0.35207095826E+02  0.00000000000E+00 0. -1.
<mgrwt>
<rscale>  0 0.92821776E+02</rscale>
<asrwt>0</asrwt>
<pdfrwt beam="1">  1        3 0.52230264E-02 0.92821776E+02</pdfrwt>
<pdfrwt beam="2">  1       -3 0.97609217E-02 0.92821776E+02</pdfrwt>
<totfact> 0.33205493E+04</totfact>
</mgrwt>
</event>
<event>
 7    1  0.1247599E-009  0.9241402E+02  0.7818608E-02  0.1297109E+00
          3   -1    0    0  501    0  0.00000000000E+00  0.00000000000E+00  0.21324144796E+02  0.21324383984E+02  0.10100000000E+00 0. -1.
         -3   -1    0    0    0  501 -0.00000000000E+00 -0.00000000000E+00 -0.10012453432E+03  0.10012458526E+03  0.10100000000E+00 0.  1.
         23    2    1    2    0    0  0.00000000000E+00 -0.71054273576E-14 -0.78800389519E+02  0.12144896924E+03  0.92414018100E+02 0.  0.
    9000005    2    3    3    0    0  0.28546355860E+02  0.35769141369E+02 -0.45665008105E+02  0.64948708988E+02  0.62222123733E+01 0.  0.
         22    1    3    3    0    0 -0.28546355860E+02 -0.35769141369E+02 -0.33135381414E+02  0.56500260253E+02  0.00000000000E+00 0. -1.
         22    1    4    4    0    0 -0.97154836867E-02 -0.23209514053E+00 -0.19914688297E+00  0.30597716561E+00  0.00000000000E+00 0.  1.
         22    1    4    4    0    0  0.28556071344E+02  0.36001236510E+02 -0.45465861222E+02  0.64642731822E+02  0.00000000000E+00 0.  1.
<mgrwt>
<rscale>  0 0.92414018E+02</rscale>
<asrwt>0</asrwt>
<pdfrwt beam="1">  1        3 0.32806600E-02 0.92414018E+02</pdfrwt>
<pdfrwt beam="2">  1       -3 0.15403797E-01 0.92414018E+02</pdfrwt>
<totfact> 0.31955060E+04</totfact>
</mgrwt>
</event>
<event>
 7    1  0.1247599E-009  0.9079063E+02  0.7818608E-02  0.1300948E+00
          3   -1    0    0  501    0  0.00000000000E+00  0.00000000000E+00  0.69526261615E+03  0.69526262349E+03  0.10100000000E+00 0. -1.
         -3   -1    0    0    0  501 -0.00000000000E+00 -0.00000000000E+00 -0.29630977833E+01  0.29648186240E+01  0.10100000000E+00 0.  1.
         23    2    1    2    0    0  0.00000000000E+00  0.00000000000E+00  0.69229951837E+03  0.69822744211E+03  0.90790626085E+02 0.  0.
    9000005    2    3    3    0    0  0.31995438533E+02 -0.25369386471E+02  0.49842976741E+03  0.50010426277E+03  0.21741069438E+01 0.  0.
         22    1    3    3    0    0 -0.31995438533E+02  0.25369386471E+02  0.19386975096E+03  0.19812317935E+03  0.00000000000E+00 0.  1.
         22    1    4    4    0    0  0.27411269219E+02 -0.20739102465E+02  0.42085360201E+03  0.42225494950E+03  0.00000000000E+00 0.  1.
         22    1    4    4    0    0  0.45841693140E+01 -0.46302840059E+01  0.77576165403E+02  0.77849313272E+02  0.00000000000E+00 0.  1.
<mgrwt>
<rscale>  0 0.90790626E+02</rscale>
<asrwt>0</asrwt>
<pdfrwt beam="1">  1        3 0.10696355E+00 0.90790626E+02</pdfrwt>
<pdfrwt beam="2">  1       -3 0.45599440E-03 0.90790626E+02</pdfrwt>
<totfact> 0.14106742E+04</totfact>
</mgrwt>
</event>
<event>
 7    1  0.1247599E-009  0.9166753E+02  0.7818608E-02  0.1298863E+00
          3   -1    0    0  501    0  0.00000000000E+00  0.00000000000E+00  0.81188180894E+02  0.81188243717E+02  0.10100000000E+00 0. -1.
         -3   -1    0    0    0  501 -0.00000000000E+00 -0.00000000000E+00 -0.25874701373E+02  0.25874898495E+02  0.10100000000E+00 0.  1.
         23    2    1    2    0    0  0.00000000000E+00  0.00000000000E+00  0.55313479521E+02  0.10706314221E+03  0.91667526441E+02 0.  0.
    9000005    2    3    3    0    0  0.19523110355E+02  0.26822449766E+02 -0.77380520450E+01  0.35816449081E+02  0.11060964059E+02 0.  0.
         22    1    3    3    0    0 -0.19523110355E+02 -0.26822449766E+02  0.63051531566E+02  0.71246693132E+02  0.00000000000E+00 0. -1.
         22    1    4    4    0    0  0.10480233215E+02  0.20666704345E+02 -0.14931511184E+01  0.23220195025E+02  0.00000000000E+00 0. -1.
         22    1    4    4    0    0  0.90428771396E+01  0.61557454211E+01 -0.62449009266E+01  0.12596254056E+02  0.00000000000E+00 0. -1.
<mgrwt>
<rscale>  0 0.91667526E+02</rscale>
<asrwt>0</asrwt>
<pdfrwt beam="1">  1        3 0.12490509E-01 0.91667526E+02</pdfrwt>
<pdfrwt beam="2">  1       -3 0.39807433E-02 0.91667526E+02</pdfrwt>
<totfact> 0.33659282E+04</totfact>
</mgrwt>
</event>
<event>
 7    1  0.1247599E-009  0.9190559E+02  0.7818608E-02  0.1298302E+00
         -3   -1    0    0    0  501 -0.00000000000E+00  0.00000000000E+00  0.93495347500E+02  0.93495402053E+02  0.10100000000E+00 0.  1.
          3   -1    0    0  501    0  0.00000000000E+00 -0.00000000000E+00 -0.22585543180E+02  0.22585769010E+02  0.10100000000E+00 0. -1.
         23    2    1    2    0    0  0.00000000000E+00  0.00000000000E+00  0.70909804319E+02  0.11608117106E+03  0.91905592467E+02 0.  0.
    9000005    2    3    3    0    0  0.28203967102E+01 -0.32038869311E+02  0.76000720150E+02  0.83517983130E+02  0.12833559855E+02 0.  0.
         22    1    3    3    0    0 -0.28203967102E+01  0.32038869311E+02 -0.50909158307E+01  0.32563187932E+02  0.00000000000E+00 0. -1.
         22    1    4    4    0    0  0.56426025611E+00 -0.26706998338E+02  0.71030969983E+02  0.75887949285E+02  0.00000000000E+00 0.  1.
         22    1    4    4    0    0  0.22561364541E+01 -0.53318709727E+01  0.49697501667E+01  0.76300338459E+01  0.00000000000E+00 0.  1.
<mgrwt>
<rscale>  0 0.91905592E+02</rscale>
<asrwt>0</asrwt>
<pdfrwt beam="2">  1        3 0.34747205E-02 0.91905592E+02</pdfrwt>
<pdfrwt beam="1">  1       -3 0.14383921E-01 0.91905592E+02</pdfrwt>
<totfact> 0.32799525E+04</totfact>
</mgrwt>
</event>
<event>
 7    1  0.1247599E-009  0.9212454E+02  0.7818608E-02  0.1297787E+00
         -3   -1    0    0    0  501 -0.00000000000E+00  0.00000000000E+00  0.80250895522E+02  0.80250959079E+02  0.10100000000E+00 0.  1.
          3   -1    0    0  501    0  0.00000000000E+00 -0.00000000000E+00 -0.26438569272E+02  0.26438762190E+02  0.10100000000E+00 0. -1.
         23    2    1    2    0    0  0.35527136788E-14  0.00000000000E+00  0.53812326250E+02  0.10668972127E+03  0.92124536189E+02 0.  0.
    9000005    2    3    3    0    0 -0.26648501238E+02 -0.35700656917E+02  0.15046350572E+02  0.47634828222E+02  0.76160798063E+01 0.  0.
         22    1    3    3    0    0  0.26648501238E+02  0.35700656917E+02  0.38765975678E+02  0.59054893047E+02  0.00000000000E+00 0. -1.
         22    1    4    4    0    0 -0.31279968135E+01 -0.11416292344E+01  0.47000654874E+00  0.33628243382E+01  0.00000000000E+00 0. -1.
         22    1    4    4    0    0 -0.23520504425E+02 -0.34559027683E+02  0.14576344023E+02  0.44272003884E+02  0.00000000000E+00 0. -1.
<mgrwt>
<rscale>  0 0.92124536E+02</rscale>
<asrwt>0</asrwt>
<pdfrwt beam="2">  1        3 0.40674919E-02 0.92124536E+02</pdfrwt>
<pdfrwt beam="1">  1       -3 0.12346311E-01 0.92124536E+02</pdfrwt>
<totfact> 0.33233643E+04</totfact>
</mgrwt>
</event>
<event>
 7    1  0.1744268E-009  0.7351167E+02  0.7818608E-02  0.1348543E+00
         -3   -1    0    0    0  501 -0.00000000000E+00  0.00000000000E+00  0.10145513934E+03  0.10145518961E+03  0.10100000000E+00 0.  1.
          3   -1    0    0  501    0  0.00000000000E+00 -0.00000000000E+00 -0.13315898993E+02  0.13316282026E+02  0.10100000000E+00 0. -1.
         23    2    1    2    0    0  0.00000000000E+00  0.00000000000E+00  0.88139240346E+02  0.11477147164E+03  0.73511665831E+02 0.  0.
    9000005    2    3    3    0    0 -0.15331332059E+02 -0.26825191007E+02  0.73270577940E+02  0.80482730964E+02  0.12419813869E+02 0.  0.
         22    1    3    3    0    0  0.15331332059E+02  0.26825191007E+02  0.14868662406E+02  0.34288740674E+02  0.00000000000E+00 0. -1.
         22    1    4    4    0    0 -0.85805385210E+00 -0.88017029568E+01  0.11351614499E+02  0.14389766610E+02  0.00000000000E+00 0. -1.
         22    1    4    4    0    0 -0.14473278207E+02 -0.18023488051E+02  0.61918963441E+02  0.66092964354E+02  0.00000000000E+00 0. -1.
<mgrwt>
<rscale>  0 0.73511666E+02</rscale>
<asrwt>0</asrwt>
<pdfrwt beam="2">  1        3 0.20486331E-02 0.73511666E+02</pdfrwt>
<pdfrwt beam="1">  1       -3 0.15608517E-01 0.73511666E+02</pdfrwt>
<totfact> 0.59851827E+04</totfact>
</mgrwt>
</event>
<event>
 7    1  0.1247599E-009  0.8797950E+02  0.7818608E-02  0.1307820E+00
          3   -1    0    0  501    0  0.00000000000E+00  0.00000000000E+00  0.49420705894E+02  0.49420809100E+02  0.10100000000E+00 0. -1.
         -3   -1    0    0    0  501 -0.00000000000E+00 -0.00000000000E+00 -0.39155407054E+02  0.39155537317E+02  0.10100000000E+00 0.  1.
         23    2    1    2    0    0  0.00000000000E+00  0.00000000000E+00  0.10265298840E+02  0.88576346417E+02  0.87979502069E+02 0.  0.
    9000005    2    3    3    0    0 -0.35784950126E+02 -0.20717064680E+02  0.20090543538E+02  0.46075818681E+02  0.30970474632E+01 0.  0.
         22    1    3    3    0    0  0.35784950126E+02  0.20717064680E+02 -0.98252446972E+01  0.42500527736E+02  0.00000000000E+00 0.  1.
         22    1    4    4    0    0 -0.20072143880E+02 -0.11323576511E+02  0.12875739363E+02  0.26398844844E+02  0.00000000000E+00 0.  1.
         22    1    4    4    0    0 -0.15712806245E+02 -0.93934881695E+01  0.72148041748E+01  0.19676973837E+02  0.00000000000E+00 0.  1.
<mgrwt>
<rscale>  0 0.87979502E+02</rscale>
<asrwt>0</asrwt>
<pdfrwt beam="1">  1        3 0.76032035E-02 0.87979502E+02</pdfrwt>
<pdfrwt beam="2">  1       -3 0.60239267E-02 0.87979502E+02</pdfrwt>
<totfact> 0.39157967E+04</totfact>
</mgrwt>
</event>
<event>
 7    1  0.1247599E-009  0.9492446E+02  0.7818608E-02  0.1291346E+00
          3   -1    0    0  501    0  0.00000000000E+00  0.00000000000E+00  0.25367395420E+02  0.25367596485E+02  0.10100000000E+00 0. -1.
         -3   -1    0    0    0  501 -0.00000000000E+00 -0.00000000000E+00 -0.88800939539E+02  0.88800996977E+02  0.10100000000E+00 0.  1.
         23    2    1    2    0    0  0.00000000000E+00  0.00000000000E+00 -0.63433544119E+02  0.11416859346E+03  0.94924460565E+02 0.  0.
    9000005    2    3    3    0    0  0.33463548832E+02 -0.32514731177E+02 -0.27597840712E+02  0.55336506275E+02  0.11111762724E+02 0.  0.
         22    1    3    3    0    0 -0.33463548832E+02  0.32514731177E+02 -0.35835703407E+02  0.58832087186E+02  0.00000000000E+00 0.  1.
         22    1    4    4    0    0  0.32054448499E+02 -0.26137084585E+02 -0.24846706332E+02  0.48249286780E+02  0.00000000000E+00 0. -1.
         22    1    4    4    0    0  0.14091003330E+01 -0.63776465924E+01 -0.27511343798E+01  0.70872194958E+01  0.00000000000E+00 0. -1.
<mgrwt>
<rscale>  0 0.94924461E+02</rscale>
<asrwt>0</asrwt>
<pdfrwt beam="1">  1        3 0.39026961E-02 0.94924461E+02</pdfrwt>
<pdfrwt beam="2">  1       -3 0.13661703E-01 0.94924461E+02</pdfrwt>
<totfact> 0.30150151E+04</totfact>
</mgrwt>
</event>
<event>
 7    1  0.1247599E-009  0.9173872E+02  0.7818608E-02  0.1298695E+00
         -3   -1    0    0    0  501 -0.00000000000E+00  0.00000000000E+00  0.28488502061E+02  0.28488681097E+02  0.10100000000E+00 0.  1.
          3   -1    0    0  501    0  0.00000000000E+00 -0.00000000000E+00 -0.73853847817E+02  0.73853916879E+02  0.10100000000E+00 0. -1.
         23    2    1    2    0    0  0.00000000000E+00  0.35527136788E-14 -0.45365345756E+02  0.10234259798E+03  0.91738720096E+02 0.  0.
    9000005    2    3    3    0    0 -0.31981531752E+02  0.27185928810E+02 -0.41192451302E+02  0.60160775509E+02  0.12673111973E+02 0.  0.
         22    1    3    3    0    0  0.31981531752E+02 -0.27185928810E+02 -0.41728944547E+01  0.42181822467E+02  0.00000000000E+00 0.  1.
         22    1    4    4    0    0 -0.18430458377E+02  0.13469560074E+02 -0.30551758368E+02  0.38138180134E+02  0.00000000000E+00 0.  1.
         22    1    4    4    0    0 -0.13551073375E+02  0.13716368736E+02 -0.10640692934E+02  0.22022595375E+02  0.00000000000E+00 0.  1.
<mgrwt>
<rscale>  0 0.91738720E+02</rscale>
<asrwt>0</asrwt>
<pdfrwt beam="2">  1        3 0.11362149E-01 0.91738720E+02</pdfrwt>
<pdfrwt beam="1">  1       -3 0.43828656E-02 0.91738720E+02</pdfrwt>
<totfact> 0.33925216E+04</totfact>
</mgrwt>
</event>
<event>
 7    1  0.1247599E-009  0.9046716E+02  0.7818608E-02  0.1301724E+00
         -3   -1    0    0    0  501 -0.00000000000E+00  0.00000000000E+00  0.40303690991E+02  0.40303817542E+02  0.10100000000E+00 0.  1.
          3   -1    0    0  501    0  0.00000000000E+00 -0.00000000000E+00 -0.50766232896E+02  0.50766333366E+02  0.10100000000E+00 0. -1.
         23    2    1    2    0    0 -0.17763568394E-14  0.00000000000E+00 -0.10462541905E+02  0.91070150909E+02  0.90467163122E+02 0.  0.
    9000005    2    3    3    0    0 -0.10710059463E+02  0.20472898740E+02  0.32881503892E+02  0.41952422311E+02  0.12040244308E+02 0.  0.
         22    1    3    3    0    0  0.10710059463E+02 -0.20472898740E+02 -0.43344045797E+02  0.49117728598E+02  0.00000000000E+00 0. -1.
         22    1    4    4    0    0  0.10586234903E+01  0.10408206582E+02  0.11423298705E+02  0.15490100104E+02  0.00000000000E+00 0.  1.
         22    1    4    4    0    0 -0.11768682953E+02  0.10064692159E+02  0.21458205187E+02  0.26462322206E+02  0.00000000000E+00 0.  1.
<mgrwt>
<rscale>  0 0.90467163E+02</rscale>
<asrwt>0</asrwt>
<pdfrwt beam="2">  1        3 0.78102072E-02 0.90467163E+02</pdfrwt>
<pdfrwt beam="1">  1       -3 0.62005853E-02 0.90467163E+02</pdfrwt>
<totfact> 0.36106588E+04</totfact>
</mgrwt>
</event>
<event>
 7    1  0.1247599E-009  0.9207031E+02  0.7818608E-02  0.1297914E+00
         -3   -1    0    0    0  501 -0.00000000000E+00  0.00000000000E+00  0.52010240583E+02  0.52010338650E+02  0.10100000000E+00 0.  1.
          3   -1    0    0  501    0  0.00000000000E+00 -0.00000000000E+00 -0.40746307664E+02  0.40746432840E+02  0.10100000000E+00 0. -1.
         23    2    1    2    0    0  0.00000000000E+00  0.00000000000E+00  0.11263932919E+02  0.92756771491E+02  0.92070312656E+02 0.  0.
    9000005    2    3    3    0    0 -0.23041667833E+02  0.32713112593E+02  0.28548313213E+02  0.49169892798E+02  0.12672720051E+01 0.  0.
         22    1    3    3    0    0  0.23041667833E+02 -0.32713112593E+02 -0.17284380294E+02  0.43586878693E+02  0.00000000000E+00 0. -1.
         22    1    4    4    0    0 -0.22046277564E+02  0.30966713090E+02  0.27352847284E+02  0.46831121368E+02  0.00000000000E+00 0.  1.
         22    1    4    4    0    0 -0.99539026914E+00  0.17463995029E+01  0.11954659293E+01  0.23387714295E+01  0.00000000000E+00 0.  1.
<mgrwt>
<rscale>  0 0.92070313E+02</rscale>
<asrwt>0</asrwt>
<pdfrwt beam="2">  1        3 0.62686799E-02 0.92070313E+02</pdfrwt>
<pdfrwt beam="1">  1       -3 0.80015926E-02 0.92070313E+02</pdfrwt>
<totfact> 0.34292807E+04</totfact>
</mgrwt>
</event>
<event>
 7    1  0.1247599E-009  0.8501162E+02  0.7818608E-02  0.1315402E+00
         -3   -1    0    0    0  501 -0.00000000000E+00  0.00000000000E+00  0.12864883400E+03  0.12864887364E+03  0.10100000000E+00 0.  1.
          3   -1    0    0  501    0  0.00000000000E+00 -0.00000000000E+00 -0.14043774140E+02  0.14044137321E+02  0.10100000000E+00 0. -1.
         23    2    1    2    0    0  0.00000000000E+00  0.00000000000E+00  0.11460505986E+03  0.14269301096E+03  0.85011620578E+02 0.  0.
    9000005    2    3    3    0    0  0.16118234549E+02 -0.16306214956E+02 -0.26170529244E+01  0.23249660977E+02  0.28297770899E+01 0.  0.
         22    1    3    3    0    0 -0.16118234549E+02  0.16306214956E+02  0.11722211278E+03  0.11944334999E+03  0.00000000000E+00 0.  1.
         22    1    4    4    0    0  0.15249693459E+01 -0.12191249606E+01 -0.10099688955E+01  0.21981433859E+01  0.00000000000E+00 0.  1.
         22    1    4    4    0    0  0.14593265203E+02 -0.15087089996E+02 -0.16070840289E+01  0.21051517591E+02  0.00000000000E+00 0.  1.
<mgrwt>
<rscale>  0 0.85011621E+02</rscale>
<asrwt>0</asrwt>
<pdfrwt beam="2">  1        3 0.21606118E-02 0.85011621E+02</pdfrwt>
<pdfrwt beam="1">  1       -3 0.19792158E-01 0.85011621E+02</pdfrwt>
<totfact> 0.38357041E+04</totfact>
</mgrwt>
</event>
<event>
 7    1  0.1247599E-009  0.9146438E+02  0.7818608E-02  0.1299344E+00
          3   -1    0    0  501    0  0.00000000000E+00  0.00000000000E+00  0.97847460461E+02  0.97847512588E+02  0.10100000000E+00 0. -1.
         -3   -1    0    0    0  501 -0.00000000000E+00 -0.00000000000E+00 -0.21374247793E+02  0.21374486420E+02  0.10100000000E+00 0.  1.
         23    2    1    2    0    0  0.00000000000E+00  0.00000000000E+00  0.76473212668E+02  0.11922199901E+03  0.91464379907E+02 0.  0.
    9000005    2    3    3    0    0  0.38135678488E+02  0.74838750908E+00  0.69728419131E+02  0.80487230422E+02  0.12698494746E+02 0.  0.
         22    1    3    3    0    0 -0.38135678488E+02 -0.74838750908E+00  0.67447935366E+01  0.38734768587E+02  0.00000000000E+00 0.  1.
         22    1    4    4    0    0 -0.57439443952E+00 -0.88604038289E+00  0.44774220258E+01  0.46002504855E+01  0.00000000000E+00 0. -1.
         22    1    4    4    0    0  0.38710072928E+02  0.16344278920E+01  0.65250997105E+02  0.75886979936E+02  0.00000000000E+00 0. -1.
<mgrwt>
<rscale>  0 0.91464380E+02</rscale>
<asrwt>0</asrwt>
<pdfrwt beam="1">  1        3 0.15053478E-01 0.91464380E+02</pdfrwt>
<pdfrwt beam="2">  1       -3 0.32883682E-02 0.91464380E+02</pdfrwt>
<totfact> 0.33015482E+04</totfact>
</mgrwt>
</event>
<event>
 7    1  0.1262873E-009  0.8727968E+02  0.7818608E-02  0.1309576E+00
          3   -1    0    0  501    0  0.00000000000E+00  0.00000000000E+00  0.36804410654E+02  0.36804549237E+02  0.10100000000E+00 0. -1.
         -3   -1    0    0    0  501 -0.00000000000E+00 -0.00000000000E+00 -0.51744482556E+02  0.51744581126E+02  0.10100000000E+00 0.  1.
         23    2    1    2    0    0  0.00000000000E+00  0.00000000000E+00 -0.14940071902E+02  0.88549130364E+02  0.87279681139E+02 0.  0.
    9000005    2    3    3    0    0 -0.11531244753E+02 -0.25093165070E+02  0.25480755747E+02  0.39595276107E+02  0.12485208762E+02 0.  0.
         22    1    3    3    0    0  0.11531244753E+02  0.25093165070E+02 -0.40420827648E+02  0.48953854256E+02  0.00000000000E+00 0.  1.
         22    1    4    4    0    0  0.58222121987E+00 -0.11381377359E+02  0.60359187586E+01  0.12896008972E+02  0.00000000000E+00 0.  1.
         22    1    4    4    0    0 -0.12113465973E+02 -0.13711787711E+02  0.19444836988E+02  0.26699267136E+02  0.00000000000E+00 0.  1.
<mgrwt>
<rscale>  0 0.87279681E+02</rscale>
<asrwt>0</asrwt>
<pdfrwt beam="1">  1        3 0.56622352E-02 0.87279681E+02</pdfrwt>
<pdfrwt beam="2">  1       -3 0.79607079E-02 0.87279681E+02</pdfrwt>
<totfact> 0.40016970E+04</totfact>
</mgrwt>
</event>
<event>
 7    1  0.1247599E-009  0.1130022E+03  0.7818608E-02  0.1255109E+00
         -3   -1    0    0    0  501 -0.00000000000E+00  0.00000000000E+00  0.15765417839E+02  0.15765741360E+02  0.10100000000E+00 0.  1.
          3   -1    0    0  501    0  0.00000000000E+00 -0.00000000000E+00 -0.20248974631E+03  0.20248977149E+03  0.10100000000E+00 0. -1.
         23    2    1    2    0    0  0.17763568394E-14  0.35527136788E-14 -0.18672432847E+03  0.21825551285E+03  0.11300218604E+03 0.  0.
    9000005    2    3    3    0    0  0.14137090467E+02  0.31647643242E+02 -0.17880788589E+03  0.18270131883E+03  0.14355528369E+02 0.  0.
         22    1    3    3    0    0 -0.14137090467E+02 -0.31647643242E+02 -0.79164425725E+01  0.35554194024E+02  0.00000000000E+00 0.  1.
         22    1    4    4    0    0  0.12479928312E+02  0.22724730450E+02 -0.15624883894E+03  0.15838516867E+03  0.00000000000E+00 0.  1.
         22    1    4    4    0    0  0.16571621547E+01  0.89229127925E+01 -0.22559046952E+02  0.24316150158E+02  0.00000000000E+00 0.  1.
<mgrwt>
<rscale>  0 0.11300219E+03</rscale>
<asrwt>0</asrwt>
<pdfrwt beam="2">  1        3 0.31152294E-01 0.11300219E+03</pdfrwt>
<pdfrwt beam="1">  1       -3 0.24254759E-02 0.11300219E+03</pdfrwt>
<totfact> 0.15348902E+04</totfact>
</mgrwt>
</event>
<event>
 6    1  0.1582209E-009  0.1538381E+03  0.7818608E-02  0.1195835E+00
         -3   -1    0    0    0  501 -0.00000000000E+00  0.00000000000E+00  0.15982554734E+03  0.15982557925E+03  0.10100000000E+00 0.  1.
          3   -1    0    0  501    0  0.00000000000E+00 -0.00000000000E+00 -0.37018648262E+02  0.37018786043E+02  0.10100000000E+00 0. -1.
    9000005    2    1    2    0    0 -0.43704528718E+02 -0.60222692864E+01 -0.17669225013E+02  0.49603423308E+02  0.14210718966E+02 0.  0.
         22    1    1    2    0    0  0.43704528718E+02  0.60222692864E+01  0.14047612409E+03  0.14724094199E+03  0.00000000000E+00 0.  1.
         22    1    3    3    0    0 -0.77022719083E+01  0.43645469341E+01 -0.40385574593E+01  0.97305811153E+01  0.00000000000E+00 0.  1.
         22    1    3    3    0    0 -0.36002256809E+02 -0.10386816221E+02 -0.13630667553E+02  0.39872842193E+02  0.00000000000E+00 0.  1.
<mgrwt>
<rscale>  0 0.15383813E+03</rscale>
<asrwt>0</asrwt>
<pdfrwt beam="2">  1        3 0.56951897E-02 0.15383813E+03</pdfrwt>
<pdfrwt beam="1">  1       -3 0.24588559E-01 0.15383813E+03</pdfrwt>
<totfact> 0.66700859E+03</totfact>
</mgrwt>
</event>
<event>
 7    1  0.1247599E-009  0.8906508E+02  0.7818608E-02  0.1305132E+00
         -3   -1    0    0    0  501 -0.00000000000E+00  0.00000000000E+00  0.29068839516E+02  0.29069014978E+02  0.10100000000E+00 0.  1.
          3   -1    0    0  501    0  0.00000000000E+00 -0.00000000000E+00 -0.68222022635E+02  0.68222097398E+02  0.10100000000E+00 0. -1.
         23    2    1    2    0    0 -0.88817841970E-15  0.00000000000E+00 -0.39153183119E+02  0.97291112377E+02  0.89065081817E+02 0.  0.
    9000005    2    3    3    0    0  0.65154068821E+01  0.11079254008E+02 -0.65159798137E+02  0.68281727329E+02  0.15855428015E+02 0.  0.
         22    1    3    3    0    0 -0.65154068821E+01 -0.11079254008E+02  0.26006615017E+02  0.29009385048E+02  0.00000000000E+00 0.  1.
         22    1    4    4    0    0  0.20712862202E+01  0.14578643069E+02 -0.48667765093E+02  0.50846616598E+02  0.00000000000E+00 0.  1.
         22    1    4    4    0    0  0.44441206619E+01 -0.34993890614E+01 -0.16492033044E+02  0.17435110731E+02  0.00000000000E+00 0.  1.
<mgrwt>
<rscale>  0 0.89065082E+02</rscale>
<asrwt>0</asrwt>
<pdfrwt beam="2">  1        3 0.10495715E-01 0.89065082E+02</pdfrwt>
<pdfrwt beam="1">  1       -3 0.44721484E-02 0.89065082E+02</pdfrwt>
<totfact> 0.37163758E+04</totfact>
</mgrwt>
</event>
<event>
 7    1  0.1247599E-009  0.8720094E+02  0.7818608E-02  0.1309775E+00
         -3   -1    0    0    0  501 -0.00000000000E+00  0.00000000000E+00  0.17871894280E+02  0.17872179670E+02  0.10100000000E+00 0.  1.
          3   -1    0    0  501    0  0.00000000000E+00 -0.00000000000E+00 -0.10636701871E+03  0.10636706666E+03  0.10100000000E+00 0. -1.
         23    2    1    2    0    0 -0.71054273576E-14  0.00000000000E+00 -0.88495124428E+02  0.12423924633E+03  0.87200936241E+02 0.  0.
    9000005    2    3    3    0    0  0.40653345253E+02  0.28078781542E+01 -0.61522744858E+02  0.75371179869E+02  0.15335839072E+02 0.  0.
         22    1    3    3    0    0 -0.40653345253E+02 -0.28078781542E+01 -0.26972379570E+02  0.48868066462E+02  0.00000000000E+00 0.  1.
         22    1    4    4    0    0  0.20426060583E+02 -0.60313424268E+01 -0.26906312680E+02  0.34315458680E+02  0.00000000000E+00 0. -1.
         22    1    4    4    0    0  0.20227284670E+02  0.88392205811E+01 -0.34616432178E+02  0.41055721189E+02  0.00000000000E+00 0. -1.
<mgrwt>
<rscale>  0 0.87200936E+02</rscale>
<asrwt>0</asrwt>
<pdfrwt beam="2">  1        3 0.16364182E-01 0.87200936E+02</pdfrwt>
<pdfrwt beam="1">  1       -3 0.27495479E-02 0.87200936E+02</pdfrwt>
<totfact> 0.37180789E+04</totfact>
</mgrwt>
</event>
<event>
 7    1  0.1247599E-009  0.9213874E+02  0.7818608E-02  0.1297754E+00
         -3   -1    0    0    0  501 -0.00000000000E+00  0.00000000000E+00  0.11172024665E+02  0.11172481198E+02  0.10100000000E+00 0.  1.
          3   -1    0    0  501    0  0.00000000000E+00 -0.00000000000E+00 -0.18996898745E+03  0.18996901429E+03  0.10100000000E+00 0. -1.
         23    2    1    2    0    0 -0.71054273576E-14  0.00000000000E+00 -0.17879696278E+03  0.20114149549E+03  0.92138739462E+02 0.  0.
    9000005    2    3    3    0    0 -0.37935682307E+02 -0.83830455429E+01 -0.14330370793E+03  0.14851866219E+03  0.35282953552E+01 0.  0.
         22    1    3    3    0    0  0.37935682307E+02  0.83830455429E+01 -0.35493254848E+02  0.52622833299E+02  0.00000000000E+00 0.  1.
         22    1    4    4    0    0 -0.11099251045E+02 -0.38314980964E+01 -0.39839416856E+02  0.41533755992E+02  0.00000000000E+00 0.  1.
         22    1    4    4    0    0 -0.26836431263E+02 -0.45515474465E+01 -0.10346429108E+03  0.10698490620E+03  0.00000000000E+00 0.  1.
<mgrwt>
<rscale>  0 0.92138739E+02</rscale>
<asrwt>0</asrwt>
<pdfrwt beam="2">  1        3 0.29226033E-01 0.92138739E+02</pdfrwt>
<pdfrwt beam="1">  1       -3 0.17188103E-02 0.92138739E+02</pdfrwt>
<totfact> 0.27644134E+04</totfact>
</mgrwt>
</event>
<event>
 7    1  0.1247599E-009  0.9076628E+02  0.7818608E-02  0.1301007E+00
          3   -1    0    0  501    0  0.00000000000E+00  0.00000000000E+00  0.68656646427E+02  0.68656720716E+02  0.10100000000E+00 0. -1.
         -3   -1    0    0    0  501 -0.00000000000E+00 -0.00000000000E+00 -0.29998804427E+02  0.29998974450E+02  0.10100000000E+00 0.  1.
         23    2    1    2    0    0 -0.44408920985E-15  0.71054273576E-14  0.38657842000E+02  0.98655695166E+02  0.90766279205E+02 0.  0.
    9000005    2    3    3    0    0  0.30140266121E+01 -0.37493508574E+02  0.46202804868E+02  0.60291988277E+02  0.92507908377E+01 0.  0.
         22    1    3    3    0    0 -0.30140266121E+01  0.37493508574E+02 -0.75449628681E+01  0.38363706889E+02  0.00000000000E+00 0.  1.
         22    1    4    4    0    0  0.19560326859E+01 -0.34965215671E+02  0.45582747436E+02  0.57481990524E+02  0.00000000000E+00 0. -1.
         22    1    4    4    0    0  0.10579939262E+01 -0.25282929033E+01  0.62005743159E+00  0.28099977529E+01  0.00000000000E+00 0. -1.
<mgrwt>
<rscale>  0 0.90766279E+02</rscale>
<asrwt>0</asrwt>
<pdfrwt beam="1">  1        3 0.10562580E-01 0.90766279E+02</pdfrwt>
<pdfrwt beam="2">  1       -3 0.46152195E-02 0.90766279E+02</pdfrwt>
<totfact> 0.35200437E+04</totfact>
</mgrwt>
</event>
<event>
 7    1  0.1247599E-009  0.9110021E+02  0.7818608E-02  0.1300209E+00
          3   -1    0    0  501    0  0.00000000000E+00  0.00000000000E+00  0.49088801091E+01  0.49099190345E+01  0.10100000000E+00 0. -1.
         -3   -1    0    0    0  501 -0.00000000000E+00 -0.00000000000E+00 -0.42261927266E+03  0.42261928473E+03  0.10100000000E+00 0.  1.
         23    2    1    2    0    0  0.00000000000E+00  0.00000000000E+00 -0.41771039255E+03  0.42752920377E+03  0.91100208702E+02 0.  0.
    9000005    2    3    3    0    0 -0.27389507443E+02 -0.93364107035E+01 -0.37323331119E+03  0.37446731114E+03  0.92362787356E+01 0.  0.
         22    1    3    3    0    0  0.27389507443E+02  0.93364107035E+01 -0.44477081360E+02  0.53061892627E+02  0.00000000000E+00 0. -1.
         22    1    4    4    0    0 -0.91839812055E+01 -0.21003164709E+01 -0.17920542474E+03  0.17945289381E+03  0.00000000000E+00 0.  1.
         22    1    4    4    0    0 -0.18205526237E+02 -0.72360942325E+01 -0.19402788646E+03  0.19501441734E+03  0.00000000000E+00 0.  1.
<mgrwt>
<rscale>  0 0.91100209E+02</rscale>
<asrwt>0</asrwt>
<pdfrwt beam="1">  1        3 0.75529350E-03 0.91100209E+02</pdfrwt>
<pdfrwt beam="2">  1       -3 0.65018402E-01 0.91100209E+02</pdfrwt>
<totfact> 0.19837835E+04</totfact>
</mgrwt>
</event>
<event>
 7    1  0.1247599E-009  0.9237401E+02  0.7818608E-02  0.1297202E+00
         -3   -1    0    0    0  501 -0.00000000000E+00  0.00000000000E+00  0.92676903384E+02  0.92676958419E+02  0.10100000000E+00 0.  1.
          3   -1    0    0  501    0  0.00000000000E+00 -0.00000000000E+00 -0.23017852800E+02  0.23018074387E+02  0.10100000000E+00 0. -1.
         23    2    1    2    0    0 -0.35527136788E-14 -0.88817841970E-15  0.69659050584E+02  0.11569503281E+03  0.92374007642E+02 0.  0.
    9000005    2    3    3    0    0  0.31367008663E+02  0.69566287574E+01 -0.42599525823E+01  0.35095386745E+02  0.13463099890E+02 0.  0.
         22    1    3    3    0    0 -0.31367008663E+02 -0.69566287574E+01  0.73919003166E+02  0.80599646061E+02  0.00000000000E+00 0.  1.
         22    1    4    4    0    0  0.24407456124E+02  0.72856035505E+01 -0.86030740358E+01  0.26885252768E+02  0.00000000000E+00 0. -1.
         22    1    4    4    0    0  0.69595525386E+01 -0.32897479315E+00  0.43431214535E+01  0.82101339765E+01  0.00000000000E+00 0. -1.
<mgrwt>
<rscale>  0 0.92374008E+02</rscale>
<asrwt>0</asrwt>
<pdfrwt beam="2">  1        3 0.35412294E-02 0.92374008E+02</pdfrwt>
<pdfrwt beam="1">  1       -3 0.14258006E-01 0.92374008E+02</pdfrwt>
<totfact> 0.32374248E+04</totfact>
</mgrwt>
</event>
<event>
 7    1  0.1247599E-009  0.9900689E+02  0.7818608E-02  0.1282398E+00
         -3   -1    0    0    0  501 -0.00000000000E+00  0.00000000000E+00  0.24240447671E+02  0.24240658083E+02  0.10100000000E+00 0.  1.
          3   -1    0    0  501    0  0.00000000000E+00 -0.00000000000E+00 -0.10109445295E+03  0.10109450340E+03  0.10100000000E+00 0. -1.
         23    2    1    2    0    0  0.35527136788E-14  0.00000000000E+00 -0.76854005280E+02  0.12533516149E+03  0.99006891564E+02 0.  0.
    9000005    2    3    3    0    0  0.19132806296E+02  0.81548478972E+01 -0.95277569169E+02  0.97550389986E+02  0.23869601446E+01 0.  0.
         22    1    3    3    0    0 -0.19132806296E+02 -0.81548478972E+01  0.18423563888E+02  0.27784771500E+02  0.00000000000E+00 0.  1.
         22    1    4    4    0    0  0.72925862731E+01  0.32296739881E+01 -0.42063087098E+02  0.42812567137E+02  0.00000000000E+00 0.  1.
         22    1    4    4    0    0  0.11840220023E+02  0.49251739091E+01 -0.53214482070E+02  0.54737822849E+02  0.00000000000E+00 0.  1.
<mgrwt>
<rscale>  0 0.99006892E+02</rscale>
<asrwt>0</asrwt>
<pdfrwt beam="2">  1        3 0.15553013E-01 0.99006892E+02</pdfrwt>
<pdfrwt beam="1">  1       -3 0.37293198E-02 0.99006892E+02</pdfrwt>
<totfact> 0.26259480E+04</totfact>
</mgrwt>
</event>
<event>
 7    1  0.1247599E-009  0.9377298E+02  0.7818608E-02  0.1293964E+00
          3   -1    0    0  501    0  0.00000000000E+00  0.00000000000E+00  0.12433131760E+02  0.12433541987E+02  0.10100000000E+00 0. -1.
         -3   -1    0    0    0  501 -0.00000000000E+00 -0.00000000000E+00 -0.17680995506E+03  0.17680998391E+03  0.10100000000E+00 0.  1.
         23    2    1    2    0    0  0.00000000000E+00  0.00000000000E+00 -0.16437682330E+03  0.18924352590E+03  0.93772981476E+02 0.  0.
    9000005    2    3    3    0    0  0.20220279345E+02 -0.41824521069E+02 -0.82016698022E+02  0.94684864233E+02  0.89629515738E+01 0.  0.
         22    1    3    3    0    0 -0.20220279345E+02  0.41824521069E+02 -0.82360125282E+02  0.94558661665E+02  0.00000000000E+00 0. -1.
         22    1    4    4    0    0 -0.85281249770E+00 -0.17957869043E+01 -0.24231864229E+01  0.31343216494E+01  0.00000000000E+00 0. -1.
         22    1    4    4    0    0  0.21073091843E+02 -0.40028734165E+02 -0.79593511599E+02  0.91550542583E+02  0.00000000000E+00 0. -1.
<mgrwt>
<rscale>  0 0.93772981E+02</rscale>
<asrwt>0</asrwt>
<pdfrwt beam="1">  1        3 0.19128234E-02 0.93772981E+02</pdfrwt>
<pdfrwt beam="2">  1       -3 0.27201563E-01 0.93772981E+02</pdfrwt>
<totfact> 0.26935997E+04</totfact>
</mgrwt>
</event>
<event>
 7    1  0.1247599E-009  0.9207107E+02  0.7818608E-02  0.1297912E+00
         -3   -1    0    0    0  501 -0.00000000000E+00  0.00000000000E+00  0.25997251675E+02  0.25997447868E+02  0.10100000000E+00 0.  1.
          3   -1    0    0  501    0  0.00000000000E+00 -0.00000000000E+00 -0.81518486752E+02  0.81518549321E+02  0.10100000000E+00 0. -1.
         23    2    1    2    0    0  0.00000000000E+00  0.00000000000E+00 -0.55521235077E+02  0.10751599719E+03  0.92071070957E+02 0.  0.
    9000005    2    3    3    0    0  0.20771198574E+02 -0.16357204080E+02  0.15444235759E+02  0.31785561653E+02  0.85320979770E+01 0.  0.
         22    1    3    3    0    0 -0.20771198574E+02  0.16357204080E+02 -0.70965470836E+02  0.75730435536E+02  0.00000000000E+00 0. -1.
         22    1    4    4    0    0  0.63426092289E+01 -0.46686943270E+01  0.93879647652E+01  0.12253949607E+02  0.00000000000E+00 0.  1.
         22    1    4    4    0    0  0.14428589345E+02 -0.11688509753E+02  0.60562709936E+01  0.19531612046E+02  0.00000000000E+00 0.  1.
<mgrwt>
<rscale>  0 0.92071071E+02</rscale>
<asrwt>0</asrwt>
<pdfrwt beam="2">  1        3 0.12541325E-01 0.92071071E+02</pdfrwt>
<pdfrwt beam="1">  1       -3 0.39995971E-02 0.92071071E+02</pdfrwt>
<totfact> 0.33226955E+04</totfact>
</mgrwt>
</event>
<event>
 7    1  0.1247599E-009  0.9105823E+02  0.7818608E-02  0.1300309E+00
          3   -1    0    0  501    0  0.00000000000E+00  0.00000000000E+00  0.14932264069E+03  0.14932267485E+03  0.10100000000E+00 0. -1.
         -3   -1    0    0    0  501 -0.00000000000E+00 -0.00000000000E+00 -0.13881801974E+02  0.13882169392E+02  0.10100000000E+00 0.  1.
         23    2    1    2    0    0  0.00000000000E+00  0.00000000000E+00  0.13544083872E+03  0.16320484424E+03  0.91058225280E+02 0.  0.
    9000005    2    3    3    0    0  0.11971616982E+02  0.28911570900E+02  0.12658922995E+03  0.13068485773E+03  0.86313587504E+01 0.  0.
         22    1    3    3    0    0 -0.11971616982E+02 -0.28911570900E+02  0.88516087634E+01  0.32519986513E+02  0.00000000000E+00 0.  1.
         22    1    4    4    0    0  0.46407988207E+01  0.95856946982E+01  0.28109679039E+02  0.30059551098E+02  0.00000000000E+00 0.  1.
         22    1    4    4    0    0  0.73308181617E+01  0.19325876202E+02  0.98479550913E+02  0.10062530663E+03  0.00000000000E+00 0.  1.
<mgrwt>
<rscale>  0 0.91058225E+02</rscale>
<asrwt>0</asrwt>
<pdfrwt beam="1">  1        3 0.22972744E-01 0.91058225E+02</pdfrwt>
<pdfrwt beam="2">  1       -3 0.21356928E-02 0.91058225E+02</pdfrwt>
<totfact> 0.30626072E+04</totfact>
</mgrwt>
</event>
<event>
 7    1  0.1247599E-009  0.9060676E+02  0.7818608E-02  0.1301389E+00
         -3   -1    0    0    0  501 -0.00000000000E+00  0.00000000000E+00  0.42129401392E+01  0.42141506400E+01  0.10100000000E+00 0.  1.
          3   -1    0    0  501    0  0.00000000000E+00 -0.00000000000E+00 -0.48709360402E+03  0.48709361449E+03  0.10100000000E+00 0. -1.
         23    2    1    2    0    0 -0.35527136788E-14 -0.35527136788E-14 -0.48288066388E+03  0.49130776513E+03  0.90606757630E+02 0.  0.
    9000005    2    3    3    0    0 -0.18065715716E+02 -0.25140826098E+02 -0.41926706222E+03  0.42056088155E+03  0.11320530017E+02 0.  0.
         22    1    3    3    0    0  0.18065715716E+02  0.25140826098E+02 -0.63613601657E+02  0.70746883585E+02  0.00000000000E+00 0.  1.
         22    1    4    4    0    0 -0.17962256825E+02 -0.18037405177E+02 -0.35216235908E+03  0.35308117736E+03  0.00000000000E+00 0. -1.
         22    1    4    4    0    0 -0.10345889081E+00 -0.71034209214E+01 -0.67104703142E+02  0.67479704181E+02  0.00000000000E+00 0. -1.
<mgrwt>
<rscale>  0 0.90606758E+02</rscale>
<asrwt>0</asrwt>
<pdfrwt beam="2">  1        3 0.74937527E-01 0.90606758E+02</pdfrwt>
<pdfrwt beam="1">  1       -3 0.64823894E-03 0.90606758E+02</pdfrwt>
<totfact> 0.18429988E+04</totfact>
</mgrwt>
</event>
<event>
 7    1  0.1247599E-009  0.9551795E+02  0.7818608E-02  0.1290014E+00
         -3   -1    0    0    0  501 -0.00000000000E+00  0.00000000000E+00  0.19287177325E+03  0.19287179969E+03  0.10100000000E+00 0.  1.
          3   -1    0    0  501    0  0.00000000000E+00 -0.00000000000E+00 -0.11825851457E+02  0.11826282750E+02  0.10100000000E+00 0. -1.
         23    2    1    2    0    0  0.00000000000E+00  0.00000000000E+00  0.18104592179E+03  0.20469808244E+03  0.95517952024E+02 0.  0.
    9000005    2    3    3    0    0 -0.19545254222E+02 -0.22804204516E+02  0.13369324329E+02  0.34352873991E+02  0.99665647155E+01 0.  0.
         22    1    3    3    0    0  0.19545254222E+02  0.22804204516E+02  0.16767659746E+03  0.17034520845E+03  0.00000000000E+00 0.  1.
         22    1    4    4    0    0 -0.64425645416E+01 -0.37222741866E+01 -0.34363235448E+00  0.74484928802E+01  0.00000000000E+00 0.  1.
         22    1    4    4    0    0 -0.13102689681E+02 -0.19081930329E+02  0.13712956684E+02  0.26904381111E+02  0.00000000000E+00 0.  1.
<mgrwt>
<rscale>  0 0.95517952E+02</rscale>
<asrwt>0</asrwt>
<pdfrwt beam="2">  1        3 0.18193970E-02 0.95517952E+02</pdfrwt>
<pdfrwt beam="1">  1       -3 0.29672615E-01 0.95517952E+02</pdfrwt>
<totfact> 0.24911973E+04</totfact>
</mgrwt>
</event>
<event>
 7    1  0.1247599E-009  0.9000133E+02  0.7818608E-02  0.1302848E+00
          3   -1    0    0  501    0  0.00000000000E+00  0.00000000000E+00  0.12751497621E+03  0.12751501621E+03  0.10100000000E+00 0. -1.
         -3   -1    0    0    0  501 -0.00000000000E+00 -0.00000000000E+00 -0.15880753585E+02  0.15881074757E+02  0.10100000000E+00 0.  1.
         23    2    1    2    0    0 -0.17763568394E-14  0.71054273576E-14  0.11163422263E+03  0.14339609097E+03  0.90001329120E+02 0.  0.
    9000005    2    3    3    0    0 -0.15272862079E+02  0.35980205675E+02  0.21785826837E+02  0.45413593844E+02  0.77418820939E+01 0.  0.
         22    1    3    3    0    0  0.15272862079E+02 -0.35980205675E+02  0.89848395790E+02  0.97982497124E+02  0.00000000000E+00 0. -1.
         22    1    4    4    0    0 -0.15511009008E+02  0.36264344605E+02  0.21748453673E+02  0.45040973871E+02  0.00000000000E+00 0. -1.
         22    1    4    4    0    0  0.23814692869E+00 -0.28413892976E+00  0.37373163699E-01  0.37261997319E+00  0.00000000000E+00 0. -1.
<mgrwt>
<rscale>  0 0.90001329E+02</rscale>
<asrwt>0</asrwt>
<pdfrwt beam="1">  1        3 0.19617716E-01 0.90001329E+02</pdfrwt>
<pdfrwt beam="2">  1       -3 0.24432207E-02 0.90001329E+02</pdfrwt>
<totfact> 0.32848515E+04</totfact>
</mgrwt>
</event>
<event>
 7    1  0.1247599E-009  0.8217327E+02  0.7818608E-02  0.1322995E+00
          3   -1    0    0  501    0  0.00000000000E+00  0.00000000000E+00  0.56702906948E+02  0.56702996899E+02  0.10100000000E+00 0. -1.
         -3   -1    0    0    0  501 -0.00000000000E+00 -0.00000000000E+00 -0.29770963565E+02  0.29771134889E+02  0.10100000000E+00 0.  1.
         23    2    1    2    0    0  0.00000000000E+00  0.00000000000E+00  0.26931943383E+02  0.86474131788E+02  0.82173267515E+02 0.  0.
    9000005    2    3    3    0    0 -0.16901543171E+02 -0.12199250765E+02  0.50302778848E+02  0.55158323781E+02  0.88083620338E+01 0.  0.
         22    1    3    3    0    0  0.16901543171E+02  0.12199250765E+02 -0.23370835465E+02  0.31315808007E+02  0.00000000000E+00 0.  1.
         22    1    4    4    0    0 -0.12401461846E+02 -0.36478775727E+01  0.27171403759E+02  0.30089673460E+02  0.00000000000E+00 0.  1.
         22    1    4    4    0    0 -0.45000813250E+01 -0.85513731921E+01  0.23131375090E+02  0.25068650322E+02  0.00000000000E+00 0.  1.
<mgrwt>
<rscale>  0 0.82173268E+02</rscale>
<asrwt>0</asrwt>
<pdfrwt beam="1">  1        3 0.87235442E-02 0.82173268E+02</pdfrwt>
<pdfrwt beam="2">  1       -3 0.45801684E-02 0.82173268E+02</pdfrwt>
<totfact> 0.47305288E+04</totfact>
</mgrwt>
</event>
<event>
 7    1  0.1247599E-009  0.9349044E+02  0.7818608E-02  0.1294613E+00
          3   -1    0    0  501    0  0.00000000000E+00  0.00000000000E+00  0.25913653228E+02  0.25913850054E+02  0.10100000000E+00 0. -1.
         -3   -1    0    0    0  501 -0.00000000000E+00 -0.00000000000E+00 -0.84322399149E+02  0.84322459637E+02  0.10100000000E+00 0.  1.
         23    2    1    2    0    0  0.00000000000E+00  0.00000000000E+00 -0.58408745921E+02  0.11023630969E+03  0.93490440015E+02 0.  0.
    9000005    2    3    3    0    0  0.17183138173E+02  0.36448851669E+02 -0.57102833039E+02  0.69919012734E+02  0.20385718357E+01 0.  0.
         22    1    3    3    0    0 -0.17183138173E+02 -0.36448851669E+02 -0.13059128821E+01  0.40317296957E+02  0.00000000000E+00 0. -1.
         22    1    4    4    0    0  0.81184518292E+01  0.15688617539E+02 -0.26362185664E+02  0.31733370659E+02  0.00000000000E+00 0.  1.
         22    1    4    4    0    0  0.90646863442E+01  0.20760234130E+02 -0.30740647375E+02  0.38185642075E+02  0.00000000000E+00 0.  1.
<mgrwt>
<rscale>  0 0.93490440E+02</rscale>
<asrwt>0</asrwt>
<pdfrwt beam="1">  1        3 0.39867357E-02 0.93490440E+02</pdfrwt>
<pdfrwt beam="2">  1       -3 0.12972696E-01 0.93490440E+02</pdfrwt>
<totfact> 0.31688887E+04</totfact>
</mgrwt>
</event>
<event>
 7    1  0.1422102E-009  0.9352598E+02  0.7818608E-02  0.1294531E+00
         -3   -1    0    0    0  501 -0.00000000000E+00  0.00000000000E+00  0.37216489836E+02  0.37216626885E+02  0.10100000000E+00 0.  1.
          3   -1    0    0  501    0  0.00000000000E+00 -0.00000000000E+00 -0.58758003797E+02  0.58758090602E+02  0.10100000000E+00 0. -1.
         23    2    1    2    0    0  0.00000000000E+00  0.71054273576E-14 -0.21541513961E+02  0.95974717487E+02  0.93525983411E+02 0.  0.
    9000005    2    3    3    0    0  0.28363530739E+02  0.34534630537E+02 -0.14807788158E+01  0.46989376038E+02  0.14445697361E+02 0.  0.
         22    1    3    3    0    0 -0.28363530739E+02 -0.34534630537E+02 -0.20060735145E+02  0.48985341449E+02  0.00000000000E+00 0. -1.
         22    1    4    4    0    0  0.22232159797E+02  0.18712555124E+02  0.35885099125E+01  0.29279789136E+02  0.00000000000E+00 0.  1.
         22    1    4    4    0    0  0.61313709423E+01  0.15822075413E+02 -0.50692887283E+01  0.17709586902E+02  0.00000000000E+00 0.  1.
<mgrwt>
<rscale>  0 0.93525983E+02</rscale>
<asrwt>0</asrwt>
<pdfrwt beam="2">  1        3 0.90397101E-02 0.93525983E+02</pdfrwt>
<pdfrwt beam="1">  1       -3 0.57256310E-02 0.93525983E+02</pdfrwt>
<totfact> 0.32625738E+04</totfact>
</mgrwt>
</event>
<event>
 7    1  0.1247599E-009  0.9189355E+02  0.7818608E-02  0.1298330E+00
          3   -1    0    0  501    0  0.00000000000E+00  0.00000000000E+00  0.34128399147E+03  0.34128400642E+03  0.10100000000E+00 0. -1.
         -3   -1    0    0    0  501 -0.00000000000E+00 -0.00000000000E+00 -0.61853474882E+01  0.61861720433E+01  0.10100000000E+00 0.  1.
         23    2    1    2    0    0  0.00000000000E+00  0.35527136788E-14  0.33509864399E+03  0.34747017846E+03  0.91893545581E+02 0.  0.
    9000005    2    3    3    0    0  0.14290131167E+02  0.17686444145E+02  0.31810791960E+03  0.31908527278E+03  0.10283221267E+02 0.  0.
         22    1    3    3    0    0 -0.14290131167E+02 -0.17686444145E+02  0.16990724386E+02  0.28384905679E+02  0.00000000000E+00 0.  1.
         22    1    4    4    0    0  0.65002357796E+01  0.15418924071E+02  0.19978026314E+03  0.20047979904E+03  0.00000000000E+00 0. -1.
         22    1    4    4    0    0  0.77898953873E+01  0.22675200742E+01  0.11832765646E+03  0.11860547374E+03  0.00000000000E+00 0. -1.
<mgrwt>
<rscale>  0 0.91893546E+02</rscale>
<asrwt>0</asrwt>
<pdfrwt beam="1">  1        3 0.52505315E-01 0.91893546E+02</pdfrwt>
<pdfrwt beam="2">  1       -3 0.95165613E-03 0.91893546E+02</pdfrwt>
<totfact> 0.21839894E+04</totfact>
</mgrwt>
</event>
<event>
 7    1  0.1247599E-009  0.9429346E+02  0.7818608E-02  0.1292775E+00
         -3   -1    0    0    0  501 -0.00000000000E+00  0.00000000000E+00  0.59692540247E+02  0.59692625693E+02  0.10100000000E+00 0.  1.
          3   -1    0    0  501    0  0.00000000000E+00 -0.00000000000E+00 -0.37237542964E+02  0.37237679935E+02  0.10100000000E+00 0. -1.
         23    2    1    2    0    0  0.00000000000E+00  0.00000000000E+00  0.22454997284E+02  0.96930305629E+02  0.94293463434E+02 0.  0.
    9000005    2    3    3    0    0 -0.26661689016E+02  0.38004573822E+02  0.91987489237E+01  0.48650688675E+02  0.11272942572E+02 0.  0.
         22    1    3    3    0    0  0.26661689016E+02 -0.38004573822E+02  0.13256248360E+02  0.48279616954E+02  0.00000000000E+00 0.  1.
         22    1    4    4    0    0 -0.21520848690E+02  0.36135594853E+02  0.96842168398E+01  0.43159149662E+02  0.00000000000E+00 0.  1.
         22    1    4    4    0    0 -0.51408403258E+01  0.18689789696E+01 -0.48546791607E+00  0.54915390139E+01  0.00000000000E+00 0.  1.
<mgrwt>
<rscale>  0 0.94293463E+02</rscale>
<asrwt>0</asrwt>
<pdfrwt beam="2">  1        3 0.57288699E-02 0.94293463E+02</pdfrwt>
<pdfrwt beam="1">  1       -3 0.91834848E-02 0.94293463E+02</pdfrwt>
<totfact> 0.31839490E+04</totfact>
</mgrwt>
</event>
<event>
 7    1  0.1247599E-009  0.9131860E+02  0.7818608E-02  0.1299690E+00
         -3   -1    0    0    0  501 -0.00000000000E+00  0.00000000000E+00  0.20252879880E+03  0.20252882398E+03  0.10100000000E+00 0.  1.
          3   -1    0    0  501    0  0.00000000000E+00 -0.00000000000E+00 -0.10293432385E+02  0.10293927883E+02  0.10100000000E+00 0. -1.
         23    2    1    2    0    0  0.00000000000E+00  0.00000000000E+00  0.19223536641E+03  0.21282275186E+03  0.91318604959E+02 0.  0.
    9000005    2    3    3    0    0 -0.22954264957E+02 -0.33551557128E+02  0.14276959513E+03  0.14879566545E+03  0.10217020097E+02 0.  0.
         22    1    3    3    0    0  0.22954264957E+02  0.33551557128E+02  0.49465771284E+02  0.64027086410E+02  0.00000000000E+00 0. -1.
         22    1    4    4    0    0 -0.14000496390E+02 -0.11553254943E+02  0.59954157016E+02  0.62641779528E+02  0.00000000000E+00 0.  1.
         22    1    4    4    0    0 -0.89537685672E+01 -0.21998302185E+02  0.82815438111E+02  0.86153885925E+02  0.00000000000E+00 0.  1.
<mgrwt>
<rscale>  0 0.91318605E+02</rscale>
<asrwt>0</asrwt>
<pdfrwt beam="2">  1        3 0.15836450E-02 0.91318605E+02</pdfrwt>
<pdfrwt beam="1">  1       -3 0.31158318E-01 0.91318605E+02</pdfrwt>
<totfact> 0.27730386E+04</totfact>
</mgrwt>
</event>
<event>
 7    1  0.1247599E-009  0.8930574E+02  0.7818608E-02  0.1304542E+00
          3   -1    0    0  501    0  0.00000000000E+00  0.00000000000E+00  0.28941510861E+02  0.28941687095E+02  0.10100000000E+00 0. -1.
         -3   -1    0    0    0  501 -0.00000000000E+00 -0.00000000000E+00 -0.68892965017E+02  0.68893039052E+02  0.10100000000E+00 0.  1.
         23    2    1    2    0    0  0.00000000000E+00  0.00000000000E+00 -0.39951454156E+02  0.97834726147E+02  0.89305738624E+02 0.  0.
    9000005    2    3    3    0    0 -0.86495104345E+01 -0.40571773377E+02 -0.31056840884E+01  0.42350551849E+02  0.79398452440E+01 0.  0.
         22    1    3    3    0    0  0.86495104345E+01  0.40571773377E+02 -0.36845770068E+02  0.55484174299E+02  0.00000000000E+00 0.  1.
         22    1    4    4    0    0 -0.43014654014E+01 -0.20037712852E+02  0.24452986744E+01  0.20639574282E+02  0.00000000000E+00 0.  1.
         22    1    4    4    0    0 -0.43480450331E+01 -0.20534060525E+02 -0.55509827628E+01  0.21710977567E+02  0.00000000000E+00 0.  1.
<mgrwt>
<rscale>  0 0.89305739E+02</rscale>
<asrwt>0</asrwt>
<pdfrwt beam="1">  1        3 0.44525594E-02 0.89305739E+02</pdfrwt>
<pdfrwt beam="2">  1       -3 0.10598937E-01 0.89305739E+02</pdfrwt>
<totfact> 0.36851103E+04</totfact>
</mgrwt>
</event>
<event>
 7    1  0.1707982E-009  0.9081838E+02  0.7818608E-02  0.1300882E+00
          3   -1    0    0  501    0  0.00000000000E+00  0.00000000000E+00  0.60953619576E+03  0.60953620412E+03  0.10100000000E+00 0. -1.
         -3   -1    0    0    0  501 -0.00000000000E+00 -0.00000000000E+00 -0.33821287091E+01  0.33836364469E+01  0.10100000000E+00 0.  1.
         23    2    1    2    0    0  0.22204460493E-15  0.00000000000E+00  0.60615406705E+03  0.61291984057E+03  0.90818379020E+02 0.  0.
    9000005    2    3    3    0    0 -0.17559462699E+01  0.12719962863E+02  0.59661854843E+03  0.59692587553E+03  0.14210128140E+02 0.  0.
         22    1    3    3    0    0  0.17559462699E+01 -0.12719962863E+02  0.95355186200E+01  0.15993965046E+02  0.00000000000E+00 0.  1.
         22    1    4    4    0    0 -0.79631093109E+01  0.84683020201E+01  0.36836453623E+03  0.36854790028E+03  0.00000000000E+00 0. -1.
         22    1    4    4    0    0  0.62071630410E+01  0.42516608427E+01  0.22825401220E+03  0.22837797525E+03  0.00000000000E+00 0. -1.
<mgrwt>
<rscale>  0 0.90818379E+02</rscale>
<asrwt>0</asrwt>
<pdfrwt beam="1">  1        3 0.93774958E-01 0.90818379E+02</pdfrwt>
<pdfrwt beam="2">  1       -3 0.52044388E-03 0.90818379E+02</pdfrwt>
<totfact> 0.15638293E+04</totfact>
</mgrwt>
</event>
<event>
 7    1  0.1247599E-009  0.9300364E+02  0.7818608E-02  0.1295737E+00
          3   -1    0    0  501    0  0.00000000000E+00  0.00000000000E+00  0.13497691278E+02  0.13498069152E+02  0.10100000000E+00 0. -1.
         -3   -1    0    0    0  501 -0.00000000000E+00 -0.00000000000E+00 -0.16020396695E+03  0.16020399878E+03  0.10100000000E+00 0.  1.
         23    2    1    2    0    0  0.00000000000E+00  0.35527136788E-14 -0.14670627567E+03  0.17370206794E+03  0.93003640169E+02 0.  0.
    9000005    2    3    3    0    0  0.36678375350E+01  0.19273319580E+02 -0.15197093560E+03  0.15338875890E+03  0.69305274894E+01 0.  0.
         22    1    3    3    0    0 -0.36678375350E+01 -0.19273319580E+02  0.52646599272E+01  0.20313309036E+02  0.00000000000E+00 0. -1.
         22    1    4    4    0    0  0.35983234829E+01  0.91647297680E+01 -0.53335380196E+02  0.54236546574E+02  0.00000000000E+00 0.  1.
         22    1    4    4    0    0  0.69514052125E-01  0.10108589812E+02 -0.98635555400E+02  0.99152212327E+02  0.00000000000E+00 0.  1.
<mgrwt>
<rscale>  0 0.93003640E+02</rscale>
<asrwt>0</asrwt>
<pdfrwt beam="1">  1        3 0.20765995E-02 0.93003640E+02</pdfrwt>
<pdfrwt beam="2">  1       -3 0.24646794E-01 0.93003640E+02</pdfrwt>
<totfact> 0.28350990E+04</totfact>
</mgrwt>
</event>
<event>
 7    1  0.1247599E-009  0.9184627E+02  0.7818608E-02  0.1298441E+00
         -3   -1    0    0    0  501 -0.00000000000E+00  0.00000000000E+00  0.17609751313E+02  0.17610040952E+02  0.10100000000E+00 0.  1.
          3   -1    0    0  501    0  0.00000000000E+00 -0.00000000000E+00 -0.11975815420E+03  0.11975819679E+03  0.10100000000E+00 0. -1.
         23    2    1    2    0    0 -0.71054273576E-14  0.00000000000E+00 -0.10214840288E+03  0.13736823774E+03  0.91846265725E+02 0.  0.
    9000005    2    3    3    0    0  0.40915109547E+02  0.10955309451E+02 -0.28474831489E+02  0.52386709649E+02  0.11810432894E+02 0.  0.
         22    1    3    3    0    0 -0.40915109547E+02 -0.10955309451E+02 -0.73673571394E+02  0.84981528089E+02  0.00000000000E+00 0. -1.
         22    1    4    4    0    0  0.40187229282E+02  0.83538139050E+01 -0.27883162520E+02  0.49621269192E+02  0.00000000000E+00 0.  1.
         22    1    4    4    0    0  0.72788026493E+00  0.26014955455E+01 -0.59166896963E+00  0.27654404573E+01  0.00000000000E+00 0.  1.
<mgrwt>
<rscale>  0 0.91846266E+02</rscale>
<asrwt>0</asrwt>
<pdfrwt beam="2">  1        3 0.18424356E-01 0.91846266E+02</pdfrwt>
<pdfrwt beam="1">  1       -3 0.27092181E-02 0.91846266E+02</pdfrwt>
<totfact> 0.31466313E+04</totfact>
</mgrwt>
</event>
<event>
 7    1  0.1247599E-009  0.9093384E+02  0.7818608E-02  0.1300606E+00
         -3   -1    0    0    0  501 -0.00000000000E+00  0.00000000000E+00  0.10275693354E+03  0.10275698318E+03  0.10100000000E+00 0.  1.
          3   -1    0    0  501    0  0.00000000000E+00 -0.00000000000E+00 -0.20117591173E+02  0.20117844706E+02  0.10100000000E+00 0. -1.
         23    2    1    2    0    0  0.00000000000E+00  0.35527136788E-14  0.82639342367E+02  0.12287482788E+03  0.90933835399E+02 0.  0.
    9000005    2    3    3    0    0  0.10329884129E+02 -0.27368315659E+02  0.87640995082E+02  0.93197433489E+02  0.12210093437E+02 0.  0.
         22    1    3    3    0    0 -0.10329884129E+02  0.27368315659E+02 -0.50016527155E+01  0.29677394394E+02  0.00000000000E+00 0. -1.
         22    1    4    4    0    0 -0.24786622992E+01 -0.73147179860E+01  0.26009700960E+02  0.27132147169E+02  0.00000000000E+00 0.  1.
         22    1    4    4    0    0  0.12808546428E+02 -0.20053597673E+02  0.61631294122E+02  0.66065286319E+02  0.00000000000E+00 0.  1.
<mgrwt>
<rscale>  0 0.90933835E+02</rscale>
<asrwt>0</asrwt>
<pdfrwt beam="2">  1        3 0.30950374E-02 0.90933835E+02</pdfrwt>
<pdfrwt beam="1">  1       -3 0.15808782E-01 0.90933835E+02</pdfrwt>
<totfact> 0.33292939E+04</totfact>
</mgrwt>
</event>
<event>
 7    1  0.1247599E-009  0.9164092E+02  0.7818608E-02  0.1298926E+00
          3   -1    0    0  501    0  0.00000000000E+00  0.00000000000E+00  0.72735403532E+02  0.72735473656E+02  0.10100000000E+00 0. -1.
         -3   -1    0    0    0  501 -0.00000000000E+00 -0.00000000000E+00 -0.28864927521E+02  0.28865104223E+02  0.10100000000E+00 0.  1.
         23    2    1    2    0    0  0.00000000000E+00  0.00000000000E+00  0.43870476010E+02  0.10160057788E+03  0.91640922954E+02 0.  0.
    9000005    2    3    3    0    0  0.19083417114E+02  0.25953433890E+02  0.57924726563E+02  0.66454034691E+02  0.48069990587E+01 0.  0.
         22    1    3    3    0    0 -0.19083417114E+02 -0.25953433890E+02 -0.14054250552E+02  0.35146543187E+02  0.00000000000E+00 0.  1.
         22    1    4    4    0    0  0.21293973882E+01  0.98008897587E+00  0.51166473509E+01  0.56280536378E+01  0.00000000000E+00 0. -1.
         22    1    4    4    0    0  0.16954019726E+02  0.24973344914E+02  0.52808079212E+02  0.60825981053E+02  0.00000000000E+00 0. -1.
<mgrwt>
<rscale>  0 0.91640923E+02</rscale>
<asrwt>0</asrwt>
<pdfrwt beam="1">  1        3 0.11190081E-01 0.91640923E+02</pdfrwt>
<pdfrwt beam="2">  1       -3 0.44407771E-02 0.91640923E+02</pdfrwt>
<totfact> 0.34077763E+04</totfact>
</mgrwt>
</event>
<event>
 7    1  0.1247599E-009  0.9493579E+02  0.7818608E-02  0.1291321E+00
          3   -1    0    0  501    0  0.00000000000E+00  0.00000000000E+00  0.33779835024E+02  0.33779986016E+02  0.10100000000E+00 0. -1.
         -3   -1    0    0    0  501 -0.00000000000E+00 -0.00000000000E+00 -0.66702208258E+02  0.66702284725E+02  0.10100000000E+00 0.  1.
         23    2    1    2    0    0  0.00000000000E+00  0.00000000000E+00 -0.32922373234E+02  0.10048227074E+03  0.94935789216E+02 0.  0.
    9000005    2    3    3    0    0  0.37184074408E+02  0.13513139926E+02  0.94222353996E+01  0.42531203274E+02  0.12444452251E+02 0.  0.
         22    1    3    3    0    0 -0.37184074408E+02 -0.13513139926E+02 -0.42344608634E+02  0.57951067467E+02  0.00000000000E+00 0.  1.
         22    1    4    4    0    0 -0.41913987742E+00 -0.44871765264E+00 -0.92159944252E+00  0.11074164985E+01  0.00000000000E+00 0.  1.
         22    1    4    4    0    0  0.37603214285E+02  0.13961857578E+02  0.10343834842E+02  0.41423786776E+02  0.00000000000E+00 0.  1.
<mgrwt>
<rscale>  0 0.94935789E+02</rscale>
<asrwt>0</asrwt>
<pdfrwt beam="1">  1        3 0.51969152E-02 0.94935789E+02</pdfrwt>
<pdfrwt beam="2">  1       -3 0.10261896E-01 0.94935789E+02</pdfrwt>
<totfact> 0.31016627E+04</totfact>
</mgrwt>
</event>
<event>
 7    1  0.1247599E-009  0.8770450E+02  0.7818608E-02  0.1308508E+00
          3   -1    0    0  501    0  0.00000000000E+00  0.00000000000E+00  0.28975881925E+02  0.28976057950E+02  0.10100000000E+00 0. -1.
         -3   -1    0    0    0  501 -0.00000000000E+00 -0.00000000000E+00 -0.66365801475E+02  0.66365878329E+02  0.10100000000E+00 0.  1.
         23    2    1    2    0    0  0.00000000000E+00  0.44408920985E-15 -0.37389919550E+02  0.95341936280E+02  0.87704496633E+02 0.  0.
    9000005    2    3    3    0    0 -0.39282590033E+02  0.14900042705E+01 -0.37302171016E+02  0.56031000241E+02  0.14236538659E+02 0.  0.
         22    1    3    3    0    0  0.39282590033E+02 -0.14900042705E+01 -0.87748533647E-01  0.39310936039E+02  0.00000000000E+00 0.  1.
         22    1    4    4    0    0 -0.75866470835E+01 -0.47520738469E+01 -0.46057016642E+01  0.10067368456E+02  0.00000000000E+00 0.  1.
         22    1    4    4    0    0 -0.31695942950E+02  0.62420781174E+01 -0.32696469352E+02  0.45963631784E+02  0.00000000000E+00 0.  1.
<mgrwt>
<rscale>  0 0.87704497E+02</rscale>
<asrwt>0</asrwt>
<pdfrwt beam="1">  1        3 0.44578474E-02 0.87704497E+02</pdfrwt>
<pdfrwt beam="2">  1       -3 0.10210143E-01 0.87704497E+02</pdfrwt>
<totfact> 0.38911698E+04</totfact>
</mgrwt>
</event>
<event>
 7    1  0.1410550E-009  0.9273693E+02  0.7818608E-02  0.1296356E+00
          3   -1    0    0  501    0  0.00000000000E+00  0.00000000000E+00  0.40220770349E+02  0.40220897161E+02  0.10100000000E+00 0. -1.
         -3   -1    0    0    0  501 -0.00000000000E+00 -0.00000000000E+00 -0.53455570860E+02  0.53455666276E+02  0.10100000000E+00 0.  1.
         23    2    1    2    0    0 -0.35527136788E-14  0.35527136788E-14 -0.13234800511E+02  0.93676563437E+02  0.92736932194E+02 0.  0.
    9000005    2    3    3    0    0  0.26072616840E+02  0.27131757483E+02 -0.31926899216E+02  0.51660992906E+02  0.15284556958E+02 0.  0.
         22    1    3    3    0    0 -0.26072616840E+02 -0.27131757483E+02  0.18692098705E+02  0.42015570531E+02  0.00000000000E+00 0. -1.
         22    1    4    4    0    0  0.17517271230E+02  0.19861502521E+02 -0.12640631012E+02  0.29344839855E+02  0.00000000000E+00 0.  1.
         22    1    4    4    0    0  0.85553456104E+01  0.72702549622E+01 -0.19286268204E+02  0.22316153050E+02  0.00000000000E+00 0.  1.
<mgrwt>
<rscale>  0 0.92736932E+02</rscale>
<asrwt>0</asrwt>
<pdfrwt beam="1">  1        3 0.61878279E-02 0.92736932E+02</pdfrwt>
<pdfrwt beam="2">  1       -3 0.82239511E-02 0.92736932E+02</pdfrwt>
<totfact> 0.33556727E+04</totfact>
</mgrwt>
</event>
<event>
 7    1  0.1247599E-009  0.9036475E+02  0.7818608E-02  0.1301971E+00
          3   -1    0    0  501    0  0.00000000000E+00  0.00000000000E+00  0.24894957594E+03  0.24894959643E+03  0.10100000000E+00 0. -1.
         -3   -1    0    0    0  501 -0.00000000000E+00 -0.00000000000E+00 -0.81999105042E+01  0.82005324995E+01  0.10100000000E+00 0.  1.
         23    2    1    2    0    0  0.00000000000E+00  0.17763568394E-14  0.24074966543E+03  0.25715012893E+03  0.90364746444E+02 0.  0.
    9000005    2    3    3    0    0  0.67999494622E+01  0.13322972397E+02  0.24152589899E+03  0.24217203009E+03  0.94229173415E+01 0.  0.
         22    1    3    3    0    0 -0.67999494622E+01 -0.13322972397E+02 -0.77623355158E+00  0.14978098835E+02  0.00000000000E+00 0.  1.
         22    1    4    4    0    0  0.73711868080E+01  0.41321595661E+01  0.10988864999E+03  0.11021308695E+03  0.00000000000E+00 0. -1.
         22    1    4    4    0    0 -0.57123734572E+00  0.91908128312E+01  0.13163724899E+03  0.13195894314E+03  0.00000000000E+00 0. -1.
<mgrwt>
<rscale>  0 0.90364746E+02</rscale>
<asrwt>0</asrwt>
<pdfrwt beam="1">  1        3 0.38299986E-01 0.90364746E+02</pdfrwt>
<pdfrwt beam="2">  1       -3 0.12615741E-02 0.90364746E+02</pdfrwt>
<totfact> 0.26416484E+04</totfact>
</mgrwt>
</event>
<event>
 7    1  0.1247599E-009  0.9137527E+02  0.7818608E-02  0.1299555E+00
         -3   -1    0    0    0  501 -0.00000000000E+00  0.00000000000E+00  0.38436019485E+02  0.38436152186E+02  0.10100000000E+00 0.  1.
          3   -1    0    0  501    0  0.00000000000E+00 -0.00000000000E+00 -0.54307113767E+02  0.54307207687E+02  0.10100000000E+00 0. -1.
         23    2    1    2    0    0  0.00000000000E+00  0.35527136788E-14 -0.15871094282E+02  0.92743359873E+02  0.91375265618E+02 0.  0.
    9000005    2    3    3    0    0  0.31281764918E+02  0.25623846520E+02 -0.27244237343E+02  0.50737661331E+02  0.14033227785E+02 0.  0.
         22    1    3    3    0    0 -0.31281764918E+02 -0.25623846520E+02  0.11373143061E+02  0.42005698542E+02  0.00000000000E+00 0. -1.
         22    1    4    4    0    0  0.26468038928E+02  0.13504226818E+02 -0.17816270466E+02  0.34645933671E+02  0.00000000000E+00 0.  1.
         22    1    4    4    0    0  0.48137259904E+01  0.12119619703E+02 -0.94279668766E+01  0.16091727660E+02  0.00000000000E+00 0.  1.
<mgrwt>
<rscale>  0 0.91375266E+02</rscale>
<asrwt>0</asrwt>
<pdfrwt beam="2">  1        3 0.83549581E-02 0.91375266E+02</pdfrwt>
<pdfrwt beam="1">  1       -3 0.59132512E-02 0.91375266E+02</pdfrwt>
<totfact> 0.35010383E+04</totfact>
</mgrwt>
</event>
<event>
 7    1  0.1247599E-009  0.9068845E+02  0.7818608E-02  0.1301193E+00
          3   -1    0    0  501    0  0.00000000000E+00  0.00000000000E+00  0.90618322894E+02  0.90618379179E+02  0.10100000000E+00 0. -1.
         -3   -1    0    0    0  501 -0.00000000000E+00 -0.00000000000E+00 -0.22689483752E+02  0.22689708547E+02  0.10100000000E+00 0.  1.
         23    2    1    2    0    0  0.00000000000E+00  0.00000000000E+00  0.67928839141E+02  0.11330808773E+03  0.90688453272E+02 0.  0.
    9000005    2    3    3    0    0 -0.35377803582E+02 -0.27854002768E+02  0.28862313225E+02  0.53695774370E+02  0.47716458382E+01 0.  0.
         22    1    3    3    0    0  0.35377803582E+02  0.27854002768E+02  0.39066525917E+02  0.59612313356E+02  0.00000000000E+00 0.  1.
         22    1    4    4    0    0 -0.62220144848E+01 -0.71997318206E+01  0.69184785618E+01  0.11764988234E+02  0.00000000000E+00 0.  1.
         22    1    4    4    0    0 -0.29155789097E+02 -0.20654270947E+02  0.21943834663E+02  0.41930786136E+02  0.00000000000E+00 0.  1.
<mgrwt>
<rscale>  0 0.90688453E+02</rscale>
<asrwt>0</asrwt>
<pdfrwt beam="1">  1        3 0.13941302E-01 0.90688453E+02</pdfrwt>
<pdfrwt beam="2">  1       -3 0.34907114E-02 0.90688453E+02</pdfrwt>
<totfact> 0.34205469E+04</totfact>
</mgrwt>
</event>
<event>
 7    1  0.1247599E-009  0.9182390E+02  0.7818608E-02  0.1298494E+00
          3   -1    0    0  501    0  0.00000000000E+00  0.00000000000E+00  0.10791762917E+03  0.10791767643E+03  0.10100000000E+00 0. -1.
         -3   -1    0    0    0  501 -0.00000000000E+00 -0.00000000000E+00 -0.19532374250E+02  0.19532635379E+02  0.10100000000E+00 0.  1.
         23    2    1    2    0    0  0.00000000000E+00  0.00000000000E+00  0.88385254920E+02  0.12745031181E+03  0.91823900450E+02 0.  0.
    9000005    2    3    3    0    0  0.30223031336E+01 -0.37942236885E+02  0.99893817044E+01  0.40302961920E+02  0.87059368579E+01 0.  0.
         22    1    3    3    0    0 -0.30223031336E+01  0.37942236885E+02  0.78395873215E+02  0.87147349892E+02  0.00000000000E+00 0.  1.
         22    1    4    4    0    0  0.69316701611E+00 -0.28077603531E+02  0.35867993769E+01  0.28314261960E+02  0.00000000000E+00 0.  1.
         22    1    4    4    0    0  0.23291361175E+01 -0.98646333542E+01  0.64025823275E+01  0.11988699960E+02  0.00000000000E+00 0.  1.
<mgrwt>
<rscale>  0 0.91823900E+02</rscale>
<asrwt>0</asrwt>
<pdfrwt beam="1">  1        3 0.16602736E-01 0.91823900E+02</pdfrwt>
<pdfrwt beam="2">  1       -3 0.30050044E-02 0.91823900E+02</pdfrwt>
<totfact> 0.32120642E+04</totfact>
</mgrwt>
</event>
<event>
 7    1  0.1247599E-009  0.1058004E+03  0.7818608E-02  0.1268551E+00
          3   -1    0    0  501    0  0.00000000000E+00  0.00000000000E+00  0.13382818842E+02  0.13383199960E+02  0.10100000000E+00 0. -1.
         -3   -1    0    0    0  501 -0.00000000000E+00 -0.00000000000E+00 -0.20910279722E+03  0.20910282161E+03  0.10100000000E+00 0.  1.
         23    2    1    2    0    0  0.00000000000E+00  0.35527136788E-14 -0.19571997838E+03  0.22248602157E+03  0.10580037740E+03 0.  0.
    9000005    2    3    3    0    0  0.17100411627E+02  0.24465256992E+02 -0.18912322575E+03  0.19191659203E+03  0.13168557199E+02 0.  0.
         22    1    3    3    0    0 -0.17100411627E+02 -0.24465256992E+02 -0.65967526256E+01  0.30569429545E+02  0.00000000000E+00 0. -1.
         22    1    4    4    0    0  0.49140048071E-01 -0.95162702975E+00 -0.12774074583E+01  0.15936682724E+01  0.00000000000E+00 0. -1.
         22    1    4    4    0    0  0.17051271579E+02  0.25416884022E+02 -0.18784581829E+03  0.19032292375E+03  0.00000000000E+00 0. -1.
<mgrwt>
<rscale>  0 0.10580038E+03</rscale>
<asrwt>0</asrwt>
<pdfrwt beam="1">  1        3 0.20589266E-02 0.10580038E+03</pdfrwt>
<pdfrwt beam="2">  1       -3 0.32169690E-01 0.10580038E+03</pdfrwt>
<totfact> 0.18265590E+04</totfact>
</mgrwt>
</event>
<event>
 7    1  0.1247599E-009  0.9158748E+02  0.7818608E-02  0.1299052E+00
         -3   -1    0    0    0  501 -0.00000000000E+00  0.00000000000E+00  0.24564671484E+01  0.24585426275E+01  0.10100000000E+00 0.  1.
          3   -1    0    0  501    0  0.00000000000E+00 -0.00000000000E+00 -0.85332953603E+03  0.85332954201E+03  0.10100000000E+00 0. -1.
         23    2    1    2    0    0 -0.88817841970E-15  0.17763568394E-14 -0.85087306888E+03  0.85578808464E+03  0.91587479793E+02 0.  0.
    9000005    2    3    3    0    0 -0.57043860855E+01  0.82185578387E+01 -0.84280526860E+03  0.84293607643E+03  0.10973761964E+02 0.  0.
         22    1    3    3    0    0  0.57043860855E+01 -0.82185578387E+01 -0.80678002835E+01  0.12852008208E+02  0.00000000000E+00 0.  1.
         22    1    4    4    0    0 -0.89514538164E+01  0.53121452069E+01 -0.63272719885E+03  0.63281281243E+03  0.00000000000E+00 0.  1.
         22    1    4    4    0    0  0.32470677310E+01  0.29064126318E+01 -0.21007806975E+03  0.21012326400E+03  0.00000000000E+00 0.  1.
<mgrwt>
<rscale>  0 0.91587480E+02</rscale>
<asrwt>0</asrwt>
<pdfrwt beam="2">  1        3 0.13128139E+00 0.91587480E+02</pdfrwt>
<pdfrwt beam="1">  1       -3 0.37807882E-03 0.91587480E+02</pdfrwt>
<totfact> 0.11530338E+04</totfact>
</mgrwt>
</event>
<event>
 7    1  0.1247599E-009  0.9121713E+02  0.7818608E-02  0.1299931E+00
         -3   -1    0    0    0  501 -0.00000000000E+00  0.00000000000E+00  0.34723512915E+01  0.34738198703E+01  0.10100000000E+00 0.  1.
          3   -1    0    0  501    0  0.00000000000E+00 -0.00000000000E+00 -0.59893027779E+03  0.59893028631E+03  0.10100000000E+00 0. -1.
         23    2    1    2    0    0  0.00000000000E+00  0.00000000000E+00 -0.59545792650E+03  0.60240410618E+03  0.91217130564E+02 0.  0.
    9000005    2    3    3    0    0  0.12594474012E+02 -0.34864192923E+02 -0.46969986119E+03  0.47129642634E+03  0.11323830997E+02 0.  0.
         22    1    3    3    0    0 -0.12594474012E+02  0.34864192923E+02 -0.12575806531E+03  0.13110767984E+03  0.00000000000E+00 0.  1.
         22    1    4    4    0    0 -0.25021304121E+00 -0.13258608422E+02 -0.19424662802E+03  0.19469875654E+03  0.00000000000E+00 0.  1.
         22    1    4    4    0    0  0.12844687053E+02 -0.21605584501E+02 -0.27545323318E+03  0.27659766979E+03  0.00000000000E+00 0.  1.
<mgrwt>
<rscale>  0 0.91217131E+02</rscale>
<asrwt>0</asrwt>
<pdfrwt beam="2">  1        3 0.92143151E-01 0.91217131E+02</pdfrwt>
<pdfrwt beam="1">  1       -3 0.53432199E-03 0.91217131E+02</pdfrwt>
<totfact> 0.15661334E+04</totfact>
</mgrwt>
</event>
<event>
 7    1  0.1247599E-009  0.8959446E+02  0.7818608E-02  0.1303837E+00
         -3   -1    0    0    0  501 -0.00000000000E+00  0.00000000000E+00  0.50104975108E+02  0.50105076904E+02  0.10100000000E+00 0.  1.
          3   -1    0    0  501    0  0.00000000000E+00 -0.00000000000E+00 -0.40051543566E+02  0.40051670914E+02  0.10100000000E+00 0. -1.
         23    2    1    2    0    0  0.00000000000E+00  0.00000000000E+00  0.10053431542E+02  0.90156747818E+02  0.89594462393E+02 0.  0.
    9000005    2    3    3    0    0 -0.52851407349E+01 -0.34496952354E+02 -0.21359097223E+02  0.43202308223E+02  0.13865639810E+02 0.  0.
         22    1    3    3    0    0  0.52851407349E+01  0.34496952354E+02  0.31412528765E+02  0.46954439595E+02  0.00000000000E+00 0.  1.
         22    1    4    4    0    0  0.15931518651E+01 -0.14374239676E+02 -0.22968107080E+01  0.14643504996E+02  0.00000000000E+00 0. -1.
         22    1    4    4    0    0 -0.68782926000E+01 -0.20122712678E+02 -0.19062286515E+02  0.28558803227E+02  0.00000000000E+00 0. -1.
<mgrwt>
<rscale>  0 0.89594462E+02</rscale>
<asrwt>0</asrwt>
<pdfrwt beam="2">  1        3 0.61617936E-02 0.89594462E+02</pdfrwt>
<pdfrwt beam="1">  1       -3 0.77084753E-02 0.89594462E+02</pdfrwt>
<totfact> 0.37144322E+04</totfact>
</mgrwt>
</event>
<event>
 7    1  0.1247599E-009  0.9103055E+02  0.7818608E-02  0.1300375E+00
          3   -1    0    0  501    0  0.00000000000E+00  0.00000000000E+00  0.69246066761E+01  0.69253432130E+01  0.10100000000E+00 0. -1.
         -3   -1    0    0    0  501 -0.00000000000E+00 -0.00000000000E+00 -0.29915418836E+03  0.29915420541E+03  0.10100000000E+00 0.  1.
         23    2    1    2    0    0  0.00000000000E+00  0.00000000000E+00 -0.29222958169E+03  0.30607954862E+03  0.91030553519E+02 0.  0.
    9000005    2    3    3    0    0  0.91632051980E+01 -0.41918999609E+02 -0.19502101064E+03  0.19982196940E+03  0.73795668235E+01 0.  0.
         22    1    3    3    0    0 -0.91632051980E+01  0.41918999609E+02 -0.97208571042E+02  0.10625757922E+03  0.00000000000E+00 0.  1.
         22    1    4    4    0    0  0.19794253165E+01 -0.21664000837E+02 -0.10967354091E+03  0.11181025281E+03  0.00000000000E+00 0. -1.
         22    1    4    4    0    0  0.71837798815E+01 -0.20254998772E+02 -0.85347469731E+02  0.88011716596E+02  0.00000000000E+00 0. -1.
<mgrwt>
<rscale>  0 0.91030554E+02</rscale>
<asrwt>0</asrwt>
<pdfrwt beam="1">  1        3 0.10653823E-02 0.91030554E+02</pdfrwt>
<pdfrwt beam="2">  1       -3 0.46023769E-01 0.91030554E+02</pdfrwt>
<totfact> 0.23892633E+04</totfact>
</mgrwt>
</event>
<event>
 7    1  0.1247599E-009  0.9058836E+02  0.7818608E-02  0.1301433E+00
          3   -1    0    0  501    0  0.00000000000E+00  0.00000000000E+00  0.32828296956E+03  0.32828298509E+03  0.10100000000E+00 0. -1.
         -3   -1    0    0    0  501 -0.00000000000E+00 -0.00000000000E+00 -0.62489498102E+01  0.62497659741E+01  0.10100000000E+00 0.  1.
         23    2    1    2    0    0  0.00000000000E+00 -0.35527136788E-14  0.32203401975E+03  0.33453275107E+03  0.90588363838E+02 0.  0.
    9000005    2    3    3    0    0  0.28127661933E+02  0.27249028659E+02  0.24272822861E+03  0.24608455473E+03  0.10341188562E+02 0.  0.
         22    1    3    3    0    0 -0.28127661933E+02 -0.27249028659E+02  0.79305791134E+02  0.88448196341E+02  0.00000000000E+00 0.  1.
         22    1    4    4    0    0  0.34595587890E+01  0.85847859680E+01  0.69865769173E+02  0.70476186044E+02  0.00000000000E+00 0.  1.
         22    1    4    4    0    0  0.24668103143E+02  0.18664242691E+02  0.17286245944E+03  0.17560836868E+03  0.00000000000E+00 0.  1.
<mgrwt>
<rscale>  0 0.90588364E+02</rscale>
<asrwt>0</asrwt>
<pdfrwt beam="1">  1        3 0.50505121E-01 0.90588364E+02</pdfrwt>
<pdfrwt beam="2">  1       -3 0.96144117E-03 0.90588364E+02</pdfrwt>
<totfact> 0.23151852E+04</totfact>
</mgrwt>
</event>
<event>
 7    1  0.1247599E-009  0.8680087E+02  0.7818608E-02  0.1310789E+00
          3   -1    0    0  501    0  0.00000000000E+00  0.00000000000E+00  0.17699860903E+03  0.17699863784E+03  0.10100000000E+00 0. -1.
         -3   -1    0    0    0  501 -0.00000000000E+00 -0.00000000000E+00 -0.10641609615E+02  0.10642088902E+02  0.10100000000E+00 0.  1.
         23    2    1    2    0    0  0.00000000000E+00  0.00000000000E+00  0.16635699941E+03  0.18764072674E+03  0.86800870272E+02 0.  0.
    9000005    2    3    3    0    0  0.76081156608E+01  0.18627997789E+02  0.16555346859E+03  0.16750291685E+03  0.15632992864E+02 0.  0.
         22    1    3    3    0    0 -0.76081156608E+01 -0.18627997789E+02  0.80353082164E+00  0.20137809894E+02  0.00000000000E+00 0.  1.
         22    1    4    4    0    0  0.79617308560E+01  0.64190433225E+01  0.11664119896E+03  0.11708869532E+03  0.00000000000E+00 0. -1.
         22    1    4    4    0    0 -0.35361519511E+00  0.12208954466E+02  0.48912269627E+02  0.50414221535E+02  0.00000000000E+00 0. -1.
<mgrwt>
<rscale>  0 0.86800870E+02</rscale>
<asrwt>0</asrwt>
<pdfrwt beam="1">  1        3 0.27230594E-01 0.86800870E+02</pdfrwt>
<pdfrwt beam="2">  1       -3 0.16372098E-02 0.86800870E+02</pdfrwt>
<totfact> 0.33271742E+04</totfact>
</mgrwt>
</event>
<event>
 7    1  0.1247599E-009  0.9206645E+02  0.7818608E-02  0.1297923E+00
         -3   -1    0    0    0  501 -0.00000000000E+00  0.00000000000E+00  0.15609267249E+03  0.15609270517E+03  0.10100000000E+00 0.  1.
          3   -1    0    0  501    0  0.00000000000E+00 -0.00000000000E+00 -0.13575418409E+02  0.13575794120E+02  0.10100000000E+00 0. -1.
         23    2    1    2    0    0  0.00000000000E+00  0.35527136788E-14  0.14251725408E+03  0.16966849929E+03  0.92066453931E+02 0.  0.
    9000005    2    3    3    0    0 -0.16258358187E+02  0.31315727619E+02  0.21113078483E+02  0.43240722038E+02  0.13378675275E+02 0.  0.
         22    1    3    3    0    0  0.16258358187E+02 -0.31315727619E+02  0.12140417560E+03  0.12642777725E+03  0.00000000000E+00 0.  1.
         22    1    4    4    0    0 -0.99432373419E+01  0.26709381990E+02  0.21037677956E+02  0.35423762490E+02  0.00000000000E+00 0. -1.
         22    1    4    4    0    0 -0.63151208454E+01  0.46063456285E+01  0.75400526435E-01  0.78169595484E+01  0.00000000000E+00 0. -1.
<mgrwt>
<rscale>  0 0.92066454E+02</rscale>
<asrwt>0</asrwt>
<pdfrwt beam="2">  1        3 0.20885573E-02 0.92066454E+02</pdfrwt>
<pdfrwt beam="1">  1       -3 0.24014289E-01 0.92066454E+02</pdfrwt>
<totfact> 0.29362919E+04</totfact>
</mgrwt>
</event>
<event>
 7    1  0.1247599E-009  0.1024563E+03  0.7818608E-02  0.1275214E+00
          3   -1    0    0  501    0  0.00000000000E+00  0.00000000000E+00  0.43620085170E+01  0.43631776611E+01  0.10100000000E+00 0. -1.
         -3   -1    0    0    0  501 -0.00000000000E+00 -0.00000000000E+00 -0.60154972769E+03  0.60154973617E+03  0.10100000000E+00 0.  1.
         23    2    1    2    0    0  0.00000000000E+00  0.00000000000E+00 -0.59718771917E+03  0.60591291383E+03  0.10245626977E+03 0.  0.
    9000005    2    3    3    0    0 -0.62426574583E+00 -0.50826009409E+02 -0.32035429086E+03  0.32445169098E+03  0.76390551310E+01 0.  0.
         22    1    3    3    0    0  0.62426574583E+00  0.50826009409E+02 -0.27683342831E+03  0.28146122285E+03  0.00000000000E+00 0.  1.
         22    1    4    4    0    0 -0.17322198024E+01 -0.47812400315E+02 -0.30764898270E+03  0.31134694919E+03  0.00000000000E+00 0.  1.
         22    1    4    4    0    0  0.11079540565E+01 -0.30136090940E+01 -0.12705308160E+02  0.13104741791E+02  0.00000000000E+00 0.  1.
<mgrwt>
<rscale>  0 0.10245627E+03</rscale>
<asrwt>0</asrwt>
<pdfrwt beam="1">  1        3 0.67116930E-03 0.10245627E+03</pdfrwt>
<pdfrwt beam="2">  1       -3 0.92546137E-01 0.10245627E+03</pdfrwt>
<totfact> 0.11397957E+04</totfact>
</mgrwt>
</event>
<event>
 7    1  0.1247599E-009  0.9161271E+02  0.7818608E-02  0.1298993E+00
         -3   -1    0    0    0  501 -0.00000000000E+00  0.00000000000E+00  0.24582799114E+03  0.24582801189E+03  0.10100000000E+00 0. -1.
          3   -1    0    0  501    0  0.00000000000E+00 -0.00000000000E+00 -0.85350066540E+01  0.85356042307E+01  0.10100000000E+00 0.  1.
         23    2    1    2    0    0  0.00000000000E+00  0.00000000000E+00  0.23729298449E+03  0.25436361612E+03  0.91612710466E+02 0.  0.
    9000005    2    3    3    0    0  0.16238855587E+02  0.36023589783E+02  0.60676812893E+02  0.73381098953E+02  0.11904226522E+02 0.  0.
         22    1    3    3    0    0 -0.16238855587E+02 -0.36023589783E+02  0.17661617159E+03  0.18098251717E+03  0.00000000000E+00 0.  1.
         22    1    4    4    0    0 -0.16211209745E+01  0.51564860735E+01  0.10668584393E+02  0.11959769011E+02  0.00000000000E+00 0. -1.
         22    1    4    4    0    0  0.17859976561E+02  0.30867103709E+02  0.50008228501E+02  0.61421329943E+02  0.00000000000E+00 0. -1.
<mgrwt>
<rscale>  0 0.91612710E+02</rscale>
<asrwt>0</asrwt>
<pdfrwt beam="2">  1        3 0.13131257E-02 0.91612710E+02</pdfrwt>
<pdfrwt beam="1">  1       -3 0.37819734E-01 0.91612710E+02</pdfrwt>
<totfact> 0.25575888E+04</totfact>
</mgrwt>
</event>
<event>
 7    1  0.1247599E-009  0.8875219E+02  0.7818608E-02  0.1305902E+00
         -3   -1    0    0    0  501 -0.00000000000E+00  0.00000000000E+00  0.11933518125E+02  0.11933945527E+02  0.10100000000E+00 0.  1.
          3   -1    0    0  501    0  0.00000000000E+00 -0.00000000000E+00 -0.16501398765E+03  0.16501401856E+03  0.10100000000E+00 0. -1.
         23    2    1    2    0    0  0.00000000000E+00 -0.35527136788E-14 -0.15308046953E+03  0.17694796409E+03  0.88752193462E+02 0.  0.
    9000005    2    3    3    0    0 -0.27395860278E+02  0.27328272530E+02 -0.40189298268E+02  0.57609017436E+02  0.14361460746E+02 0.  0.
         22    1    3    3    0    0  0.27395860278E+02 -0.27328272530E+02 -0.11289117126E+03  0.11933894665E+03  0.00000000000E+00 0. -1.
         22    1    4    4    0    0 -0.17002663091E+02  0.17754086417E+02 -0.34530925584E+02  0.42387297135E+02  0.00000000000E+00 0.  1.
         22    1    4    4    0    0 -0.10393197187E+02  0.95741861130E+01 -0.56583726841E+01  0.15221720301E+02  0.00000000000E+00 0.  1.
<mgrwt>
<rscale>  0 0.88752193E+02</rscale>
<asrwt>0</asrwt>
<pdfrwt beam="2">  1        3 0.25386801E-01 0.88752193E+02</pdfrwt>
<pdfrwt beam="1">  1       -3 0.18359612E-02 0.88752193E+02</pdfrwt>
<totfact> 0.31974571E+04</totfact>
</mgrwt>
</event>
<event>
 7    1  0.1247599E-009  0.9519944E+02  0.7818608E-02  0.1290728E+00
          3   -1    0    0  501    0  0.00000000000E+00  0.00000000000E+00  0.16215081468E+02  0.16215396018E+02  0.10100000000E+00 0. -1.
         -3   -1    0    0    0  501 -0.00000000000E+00 -0.00000000000E+00 -0.13972831105E+03  0.13972834755E+03  0.10100000000E+00 0.  1.
         23    2    1    2    0    0  0.00000000000E+00  0.00000000000E+00 -0.12351322958E+03  0.15594374357E+03  0.95199439478E+02 0.  0.
    9000005    2    3    3    0    0  0.39755847839E+02 -0.54589499180E+01 -0.22121661893E+02  0.46899818613E+02  0.99948731596E+01 0.  0.
         22    1    3    3    0    0 -0.39755847839E+02  0.54589499180E+01 -0.10139156769E+03  0.10904392496E+03  0.00000000000E+00 0.  1.
         22    1    4    4    0    0  0.64044428408E+01 -0.28041029557E+01 -0.78897108589E+01  0.10541699053E+02  0.00000000000E+00 0.  1.
         22    1    4    4    0    0  0.33351404998E+02 -0.26548469623E+01 -0.14231951034E+02  0.36358119560E+02  0.00000000000E+00 0.  1.
<mgrwt>
<rscale>  0 0.95199439E+02</rscale>
<asrwt>0</asrwt>
<pdfrwt beam="1">  1        3 0.24946550E-02 0.95199439E+02</pdfrwt>
<pdfrwt beam="2">  1       -3 0.21496690E-01 0.95199439E+02</pdfrwt>
<totfact> 0.27522235E+04</totfact>
</mgrwt>
</event>
<event>
 7    1  0.1247599E-009  0.9252930E+02  0.7818608E-02  0.1296840E+00
         -3   -1    0    0    0  501 -0.00000000000E+00  0.00000000000E+00  0.19262354395E+02  0.19262619185E+02  0.10100000000E+00 0.  1.
          3   -1    0    0  501    0  0.00000000000E+00 -0.00000000000E+00 -0.11111816066E+03  0.11111820657E+03  0.10100000000E+00 0. -1.
         23    2    1    2    0    0 -0.44408920985E-15  0.17763568394E-14 -0.91855806269E+02  0.13038082575E+03  0.92529295783E+02 0.  0.
    9000005    2    3    3    0    0 -0.28723998521E+01 -0.14952905411E+02 -0.10716784529E+03  0.10878687752E+03  0.10853459997E+02 0.  0.
         22    1    3    3    0    0  0.28723998521E+01  0.14952905411E+02  0.15312039026E+02  0.21593948233E+02  0.00000000000E+00 0.  1.
         22    1    4    4    0    0  0.13061212283E+01  0.11698358515E+01 -0.57797941413E+01  0.60399080207E+01  0.00000000000E+00 0. -1.
         22    1    4    4    0    0 -0.41785210803E+01 -0.16122741263E+02 -0.10138805115E+03  0.10274696950E+03  0.00000000000E+00 0. -1.
<mgrwt>
<rscale>  0 0.92529296E+02</rscale>
<asrwt>0</asrwt>
<pdfrwt beam="2">  1        3 0.17095125E-01 0.92529296E+02</pdfrwt>
<pdfrwt beam="1">  1       -3 0.29634631E-02 0.92529296E+02</pdfrwt>
<totfact> 0.31273102E+04</totfact>
</mgrwt>
</event>
<event>
 7    1  0.1247599E-009  0.9118736E+02  0.7818608E-02  0.1300002E+00
          3   -1    0    0  501    0  0.00000000000E+00  0.00000000000E+00  0.21062602548E+02  0.21062844705E+02  0.10100000000E+00 0. -1.
         -3   -1    0    0    0  501 -0.00000000000E+00 -0.00000000000E+00 -0.98694642971E+02  0.98694694651E+02  0.10100000000E+00 0.  1.
         23    2    1    2    0    0  0.00000000000E+00  0.00000000000E+00 -0.77632040424E+02  0.11975753936E+03  0.91187359499E+02 0.  0.
    9000005    2    3    3    0    0 -0.17862033610E+02  0.40883684307E+02 -0.35510993150E+02  0.58400302533E+02  0.12610979906E+02 0.  0.
         22    1    3    3    0    0  0.17862033610E+02 -0.40883684307E+02 -0.42121047274E+02  0.61357236824E+02  0.00000000000E+00 0.  1.
         22    1    4    4    0    0 -0.96598444186E+01  0.34721868955E+02 -0.28890167183E+02  0.46190502680E+02  0.00000000000E+00 0. -1.
         22    1    4    4    0    0 -0.82021891913E+01  0.61618153519E+01 -0.66208259667E+01  0.12209799853E+02  0.00000000000E+00 0. -1.
<mgrwt>
<rscale>  0 0.91187359E+02</rscale>
<asrwt>0</asrwt>
<pdfrwt beam="1">  1        3 0.32404231E-02 0.91187359E+02</pdfrwt>
<pdfrwt beam="2">  1       -3 0.15183814E-01 0.91187359E+02</pdfrwt>
<totfact> 0.33254153E+04</totfact>
</mgrwt>
</event>
<event>
 7    1  0.1247599E-009  0.9032310E+02  0.7818608E-02  0.1302071E+00
         -3   -1    0    0    0  501 -0.00000000000E+00  0.00000000000E+00  0.68597160560E+02  0.68597234915E+02  0.10100000000E+00 0.  1.
          3   -1    0    0  501    0  0.00000000000E+00 -0.00000000000E+00 -0.29732330158E+02  0.29732501705E+02  0.10100000000E+00 0. -1.
         23    2    1    2    0    0  0.00000000000E+00  0.00000000000E+00  0.38864830402E+02  0.98329736619E+02  0.90323098161E+02 0.  0.
    9000005    2    3    3    0    0 -0.90270811849E+01 -0.34519264227E+02 -0.10699227162E+02  0.37258764794E+02  0.82115445203E+00 0.  0.
         22    1    3    3    0    0  0.90270811849E+01  0.34519264227E+02  0.49564057564E+02  0.61070971825E+02  0.00000000000E+00 0.  1.
         22    1    4    4    0    0 -0.38525684348E+01 -0.15785738087E+02 -0.45483827721E+01  0.16873636132E+02  0.00000000000E+00 0.  1.
         22    1    4    4    0    0 -0.51745127501E+01 -0.18733526140E+02 -0.61508443897E+01  0.20385128661E+02  0.00000000000E+00 0.  1.
<mgrwt>
<rscale>  0 0.90323098E+02</rscale>
<asrwt>0</asrwt>
<pdfrwt beam="2">  1        3 0.45742236E-02 0.90323098E+02</pdfrwt>
<pdfrwt beam="1">  1       -3 0.10553428E-01 0.90323098E+02</pdfrwt>
<totfact> 0.35697710E+04</totfact>
</mgrwt>
</event>
<event>
 7    1  0.1247599E-009  0.8340974E+02  0.7818608E-02  0.1319644E+00
         -3   -1    0    0    0  501 -0.00000000000E+00  0.00000000000E+00  0.11301998445E+03  0.11302002958E+03  0.10100000000E+00 0.  1.
          3   -1    0    0  501    0  0.00000000000E+00 -0.00000000000E+00 -0.15389064363E+02  0.15389395796E+02  0.10100000000E+00 0. -1.
         23    2    1    2    0    0  0.00000000000E+00  0.00000000000E+00  0.97630920089E+02  0.12840942538E+03  0.83409735453E+02 0.  0.
    9000005    2    3    3    0    0 -0.38633379461E+02 -0.87383206061E+01  0.61512703122E+02  0.74805117226E+02  0.15591557402E+02 0.  0.
         22    1    3    3    0    0  0.38633379461E+02  0.87383206061E+01  0.36118216967E+02  0.53604308152E+02  0.00000000000E+00 0. -1.
         22    1    4    4    0    0 -0.13761454159E+02 -0.65320465766E+01  0.12144909788E+02  0.19481891253E+02  0.00000000000E+00 0. -1.
         22    1    4    4    0    0 -0.24871925302E+02 -0.22062740294E+01  0.49367793334E+02  0.55323225972E+02  0.00000000000E+00 0. -1.
<mgrwt>
<rscale>  0 0.83409735E+02</rscale>
<asrwt>0</asrwt>
<pdfrwt beam="2">  1        3 0.23675773E-02 0.83409735E+02</pdfrwt>
<pdfrwt beam="1">  1       -3 0.17387719E-01 0.83409735E+02</pdfrwt>
<totfact> 0.41547882E+04</totfact>
</mgrwt>
</event>
<event>
 7    1  0.1247599E-009  0.9054521E+02  0.7818608E-02  0.1301537E+00
         -3   -1    0    0    0  501 -0.00000000000E+00  0.00000000000E+00  0.22332464848E+02  0.22332693236E+02  0.10100000000E+00 0.  1.
          3   -1    0    0  501    0  0.00000000000E+00 -0.00000000000E+00 -0.91776366242E+02  0.91776421817E+02  0.10100000000E+00 0. -1.
         23    2    1    2    0    0  0.00000000000E+00  0.00000000000E+00 -0.69443901394E+02  0.11410911505E+03  0.90545208031E+02 0.  0.
    9000005    2    3    3    0    0 -0.17414604923E+02  0.28794265830E+02  0.23929695558E+01  0.34781224389E+02  0.84633951457E+01 0.  0.
         22    1    3    3    0    0  0.17414604923E+02 -0.28794265830E+02 -0.71836870950E+02  0.79327890664E+02  0.00000000000E+00 0. -1.
         22    1    4    4    0    0 -0.11488104094E+02  0.11538035470E+02  0.28520304033E+01  0.16529878269E+02  0.00000000000E+00 0. -1.
         22    1    4    4    0    0 -0.59265008292E+01  0.17256230360E+02 -0.45906084746E+00  0.18251346120E+02  0.00000000000E+00 0. -1.
<mgrwt>
<rscale>  0 0.90545208E+02</rscale>
<asrwt>0</asrwt>
<pdfrwt beam="2">  1        3 0.14119463E-01 0.90545208E+02</pdfrwt>
<pdfrwt beam="1">  1       -3 0.34357857E-02 0.90545208E+02</pdfrwt>
<totfact> 0.34294991E+04</totfact>
</mgrwt>
</event>
<event>
 7    1  0.1247599E-009  0.9070339E+02  0.7818608E-02  0.1301157E+00
          3   -1    0    0  501    0  0.00000000000E+00  0.00000000000E+00  0.31615133785E+03  0.31615135398E+03  0.10100000000E+00 0. -1.
         -3   -1    0    0    0  501 -0.00000000000E+00 -0.00000000000E+00 -0.65052611791E+01  0.65060451895E+01  0.10100000000E+00 0.  1.
         23    2    1    2    0    0 -0.22204460493E-15 -0.35527136788E-14  0.30964607667E+03  0.32265739917E+03  0.90703387164E+02 0.  0.
    9000005    2    3    3    0    0 -0.13103118964E+01 -0.27990289302E+02  0.28118756742E+03  0.28271919740E+03  0.88613368207E+01 0.  0.
         22    1    3    3    0    0  0.13103118964E+01  0.27990289302E+02  0.28458509243E+02  0.39938201772E+02  0.00000000000E+00 0.  1.
         22    1    4    4    0    0  0.99335012359E+00 -0.20012728176E+02  0.22902542321E+03  0.22990028384E+03  0.00000000000E+00 0. -1.
         22    1    4    4    0    0 -0.23036620200E+01 -0.79775611257E+01  0.52162144215E+02  0.52818913557E+02  0.00000000000E+00 0. -1.
<mgrwt>
<rscale>  0 0.90703387E+02</rscale>
<asrwt>0</asrwt>
<pdfrwt beam="1">  1        3 0.48638718E-01 0.90703387E+02</pdfrwt>
<pdfrwt beam="2">  1       -3 0.10008712E-02 0.90703387E+02</pdfrwt>
<totfact> 0.23505945E+04</totfact>
</mgrwt>
</event>
<event>
 7    1  0.1247599E-009  0.9201192E+02  0.7818608E-02  0.1298051E+00
         -3   -1    0    0    0  501 -0.00000000000E+00  0.00000000000E+00  0.52925621452E+02  0.52925717823E+02  0.10100000000E+00 0.  1.
          3   -1    0    0  501    0  0.00000000000E+00 -0.00000000000E+00 -0.39990804316E+02  0.39990931858E+02  0.10100000000E+00 0. -1.
         23    2    1    2    0    0 -0.71054273576E-14  0.00000000000E+00  0.12934817136E+02  0.92916649681E+02  0.92011924736E+02 0.  0.
    9000005    2    3    3    0    0 -0.41685856958E+02  0.99122772074E+01 -0.95602179741E+01  0.44522533155E+02  0.74090674869E+01 0.  0.
         22    1    3    3    0    0  0.41685856958E+02 -0.99122772074E+01  0.22495035110E+02  0.48394116527E+02  0.00000000000E+00 0.  1.
         22    1    4    4    0    0 -0.78951870800E+01 -0.10380595732E+01 -0.17019301961E+01  0.81429793748E+01  0.00000000000E+00 0. -1.
         22    1    4    4    0    0 -0.33790669878E+02  0.10950336781E+02 -0.78582877781E+01  0.36379553780E+02  0.00000000000E+00 0. -1.
<mgrwt>
<rscale>  0 0.92011925E+02</rscale>
<asrwt>0</asrwt>
<pdfrwt beam="2">  1        3 0.61524487E-02 0.92011925E+02</pdfrwt>
<pdfrwt beam="1">  1       -3 0.81424205E-02 0.92011925E+02</pdfrwt>
<totfact> 0.34340594E+04</totfact>
</mgrwt>
</event>
<event>
 7    1  0.1247599E-009  0.9865203E+02  0.7818608E-02  0.1283156E+00
         -3   -1    0    0    0  501 -0.00000000000E+00  0.00000000000E+00  0.23745177209E+03  0.23745179357E+03  0.10100000000E+00 0.  1.
          3   -1    0    0  501    0  0.00000000000E+00 -0.00000000000E+00 -0.10246255115E+02  0.10246752894E+02  0.10100000000E+00 0. -1.
         23    2    1    2    0    0  0.00000000000E+00  0.88817841970E-15  0.22720551698E+03  0.24769854647E+03  0.98652029765E+02 0.  0.
    9000005    2    3    3    0    0  0.32514836362E+02 -0.61128731630E+01  0.20490006388E+03  0.20779723020E+03  0.10053402352E+02 0.  0.
         22    1    3    3    0    0 -0.32514836362E+02  0.61128731630E+01  0.22305453099E+02  0.39901316268E+02  0.00000000000E+00 0. -1.
         22    1    4    4    0    0  0.22782453374E+02 -0.70049549612E+01  0.16526902500E+03  0.16697892143E+03  0.00000000000E+00 0. -1.
         22    1    4    4    0    0  0.97323829882E+01  0.89208179819E+00  0.39631038878E+02  0.40818308774E+02  0.00000000000E+00 0. -1.
<mgrwt>
<rscale>  0 0.98652030E+02</rscale>
<asrwt>0</asrwt>
<pdfrwt beam="2">  1        3 0.15763870E-02 0.98652030E+02</pdfrwt>
<pdfrwt beam="1">  1       -3 0.36531080E-01 0.98652030E+02</pdfrwt>
<totfact> 0.21170866E+04</totfact>
</mgrwt>
</event>
<event>
 7    1  0.1247599E-009  0.6289261E+02  0.7818608E-02  0.1386079E+00
          3   -1    0    0  501    0  0.00000000000E+00  0.00000000000E+00  0.18282812097E+01  0.18310688632E+01  0.10100000000E+00 0. -1.
         -3   -1    0    0    0  501 -0.00000000000E+00 -0.00000000000E+00 -0.54045932268E+03  0.54045933212E+03  0.10100000000E+00 0.  1.
         23    2    1    2    0    0  0.35527136788E-14  0.17763568394E-14 -0.53863104147E+03  0.54229040098E+03  0.62892608153E+02 0.  0.
    9000005    2    3    3    0    0 -0.23124502960E+02 -0.15780486116E+02 -0.38651946336E+03  0.38762399036E+03  0.84436939140E+01 0.  0.
         22    1    3    3    0    0  0.23124502960E+02  0.15780486116E+02 -0.15211157811E+03  0.15466641062E+03  0.00000000000E+00 0. -1.
         22    1    4    4    0    0 -0.99542910773E+01 -0.78778990481E+01 -0.23081350780E+03  0.23116233384E+03  0.00000000000E+00 0. -1.
         22    1    4    4    0    0 -0.13170211883E+02 -0.79025870681E+01 -0.15570595556E+03  0.15646165652E+03  0.00000000000E+00 0. -1.
<mgrwt>
<rscale>  0 0.62892608E+02</rscale>
<asrwt>0</asrwt>
<pdfrwt beam="1">  1        3 0.28148962E-03 0.62892608E+02</pdfrwt>
<pdfrwt beam="2">  1       -3 0.83147676E-01 0.62892608E+02</pdfrwt>
<totfact> 0.44537965E+04</totfact>
</mgrwt>
</event>
<event>
 7    1  0.1247599E-009  0.9077084E+02  0.7818608E-02  0.1300996E+00
         -3   -1    0    0    0  501 -0.00000000000E+00  0.00000000000E+00  0.29107466752E+03  0.29107468504E+03  0.10100000000E+00 0.  1.
          3   -1    0    0  501    0  0.00000000000E+00 -0.00000000000E+00 -0.70762822960E+01  0.70770030474E+01  0.10100000000E+00 0. -1.
         23    2    1    2    0    0  0.00000000000E+00  0.00000000000E+00  0.28399838523E+03  0.29815168809E+03  0.90770844996E+02 0.  0.
    9000005    2    3    3    0    0 -0.10960161646E+02  0.39190083037E+02  0.79203067126E+02  0.89352478162E+02  0.73994432101E+01 0.  0.
         22    1    3    3    0    0  0.10960161646E+02 -0.39190083037E+02  0.20479531810E+03  0.20879920993E+03  0.00000000000E+00 0.  1.
         22    1    4    4    0    0  0.91625278856E+00  0.12631750708E+01  0.40011528250E+01  0.42946890878E+01  0.00000000000E+00 0. -1.
         22    1    4    4    0    0 -0.11876414434E+02  0.37926907966E+02  0.75201914301E+02  0.85057789074E+02  0.00000000000E+00 0. -1.
<mgrwt>
<rscale>  0 0.90770845E+02</rscale>
<asrwt>0</asrwt>
<pdfrwt beam="2">  1        3 0.10887156E-02 0.90770845E+02</pdfrwt>
<pdfrwt beam="1">  1       -3 0.44780777E-01 0.90770845E+02</pdfrwt>
<totfact> 0.24385476E+04</totfact>
</mgrwt>
</event>
<event>
 7    1  0.1247599E-009  0.9165247E+02  0.7818608E-02  0.1298899E+00
          3   -1    0    0  501    0  0.00000000000E+00  0.00000000000E+00  0.64274880651E+01  0.64282815609E+01  0.10100000000E+00 0.  1.
         -3   -1    0    0    0  501 -0.00000000000E+00 -0.00000000000E+00 -0.32670760433E+03  0.32670761994E+03  0.10100000000E+00 0. -1.
         23    2    1    2    0    0  0.00000000000E+00 -0.35527136788E-14 -0.32028011626E+03  0.33313590150E+03  0.91652474027E+02 0.  0.
    9000005    2    3    3    0    0  0.37867378405E+02 -0.22154907127E+02 -0.20415340943E+03  0.20899811396E+03  0.87646333325E+01 0.  0.
         22    1    3    3    0    0 -0.37867378405E+02  0.22154907127E+02 -0.11612670683E+03  0.12413778755E+03  0.00000000000E+00 0.  1.
         22    1    4    4    0    0  0.13756448651E+02 -0.66700727953E+01 -0.53394941236E+02  0.55540521245E+02  0.00000000000E+00 0. -1.
         22    1    4    4    0    0  0.24110929755E+02 -0.15484834331E+02 -0.15075846820E+03  0.15345759271E+03  0.00000000000E+00 0. -1.
<mgrwt>
<rscale>  0 0.91652474E+02</rscale>
<asrwt>0</asrwt>
<pdfrwt beam="1">  1        3 0.98890681E-03 0.91652474E+02</pdfrwt>
<pdfrwt beam="2">  1       -3 0.50262758E-01 0.91652474E+02</pdfrwt>
<totfact> 0.22477176E+04</totfact>
</mgrwt>
</event>
<event>
 7    1  0.1247599E-009  0.9214223E+02  0.7818608E-02  0.1297745E+00
          3   -1    0    0  501    0  0.00000000000E+00  0.00000000000E+00  0.17711317823E+03  0.17711320703E+03  0.10100000000E+00 0. -1.
         -3   -1    0    0    0  501 -0.00000000000E+00 -0.00000000000E+00 -0.11983889464E+02  0.11984315070E+02  0.10100000000E+00 0.  1.
         23    2    1    2    0    0 -0.44408920985E-15 -0.35527136788E-14  0.16512928876E+03  0.18909752210E+03  0.92142231660E+02 0.  0.
    9000005    2    3    3    0    0  0.31042036522E+01  0.29846603259E+02  0.15988456539E+02  0.36967828600E+02  0.14509782994E+02 0.  0.
         22    1    3    3    0    0 -0.31042036522E+01 -0.29846603259E+02  0.14914083222E+03  0.15212969350E+03  0.00000000000E+00 0. -1.
         22    1    4    4    0    0  0.23827170429E+01  0.56508625309E+01 -0.23828777290E+01  0.65793384258E+01  0.00000000000E+00 0. -1.
         22    1    4    4    0    0  0.72148660927E+00  0.24195740728E+02  0.18371334268E+02  0.30388490174E+02  0.00000000000E+00 0. -1.
<mgrwt>
<rscale>  0 0.92142232E+02</rscale>
<asrwt>0</asrwt>
<pdfrwt beam="1">  1        3 0.27248214E-01 0.92142232E+02</pdfrwt>
<pdfrwt beam="2">  1       -3 0.18437104E-02 0.92142232E+02</pdfrwt>
<totfact> 0.28255531E+04</totfact>
</mgrwt>
</event>
<event>
 7    1  0.1247599E-009  0.9065558E+02  0.7818608E-02  0.1301272E+00
          3   -1    0    0  501    0  0.00000000000E+00  0.00000000000E+00  0.46178850992E+02  0.46178961443E+02  0.10100000000E+00 0. -1.
         -3   -1    0    0    0  501 -0.00000000000E+00 -0.00000000000E+00 -0.44492196027E+02  0.44492310665E+02  0.10100000000E+00 0.  1.
         23    2    1    2    0    0  0.00000000000E+00  0.00000000000E+00  0.16866549649E+01  0.90671272108E+02  0.90655583285E+02 0.  0.
    9000005    2    3    3    0    0  0.99038519249E+01  0.40233248866E+02  0.18711828899E+02  0.45875545250E+02  0.61345345422E+01 0.  0.
         22    1    3    3    0    0 -0.99038519249E+01 -0.40233248866E+02 -0.17025173934E+02  0.44795726858E+02  0.00000000000E+00 0.  1.
         22    1    4    4    0    0  0.10476805406E+02  0.32900060559E+02  0.15234462996E+02  0.37739452819E+02  0.00000000000E+00 0. -1.
         22    1    4    4    0    0 -0.57295348078E+00  0.73331883067E+01  0.34773659029E+01  0.81360924316E+01  0.00000000000E+00 0. -1.
<mgrwt>
<rscale>  0 0.90655583E+02</rscale>
<asrwt>0</asrwt>
<pdfrwt beam="1">  1        3 0.71044559E-02 0.90655583E+02</pdfrwt>
<pdfrwt beam="2">  1       -3 0.68449705E-02 0.90655583E+02</pdfrwt>
<totfact> 0.35933908E+04</totfact>
</mgrwt>
</event>
<event>
 7    1  0.1247599E-009  0.9097095E+02  0.7818608E-02  0.1300517E+00
          3   -1    0    0  501    0  0.00000000000E+00  0.00000000000E+00  0.71829807976E+02  0.71829878984E+02  0.10100000000E+00 0. -1.
         -3   -1    0    0    0  501 -0.00000000000E+00 -0.00000000000E+00 -0.28803027721E+02  0.28803204803E+02  0.10100000000E+00 0.  1.
         23    2    1    2    0    0  0.00000000000E+00 -0.35527136788E-14  0.43026780255E+02  0.10063308379E+03  0.90970949942E+02 0.  0.
    9000005    2    3    3    0    0 -0.11062729228E+02  0.24255484463E+02 -0.18068411587E+02  0.33974738692E+02  0.10821407829E+02 0.  0.
         22    1    3    3    0    0  0.11062729228E+02 -0.24255484463E+02  0.61095191842E+02  0.66658345094E+02  0.00000000000E+00 0. -1.
         22    1    4    4    0    0 -0.21560370002E+01 -0.70520972345E+00 -0.13428645888E+01  0.26361148693E+01  0.00000000000E+00 0. -1.
         22    1    4    4    0    0 -0.89066922280E+01  0.24960694187E+02 -0.16725546998E+02  0.31338623823E+02  0.00000000000E+00 0. -1.
<mgrwt>
<rscale>  0 0.90970950E+02</rscale>
<asrwt>0</asrwt>
<pdfrwt beam="1">  1        3 0.11050759E-01 0.90970950E+02</pdfrwt>
<pdfrwt beam="2">  1       -3 0.44312542E-02 0.90970950E+02</pdfrwt>
<totfact> 0.34838005E+04</totfact>
</mgrwt>
</event>
<event>
 7    1  0.1247599E-009  0.9227419E+02  0.7818608E-02  0.1297436E+00
         -3   -1    0    0    0  501 -0.00000000000E+00  0.00000000000E+00  0.29965805207E+02  0.29965975418E+02  0.10100000000E+00 0.  1.
          3   -1    0    0  501    0  0.00000000000E+00 -0.00000000000E+00 -0.71034950782E+02  0.71035022585E+02  0.10100000000E+00 0. -1.
         23    2    1    2    0    0  0.00000000000E+00  0.00000000000E+00 -0.41069145575E+02  0.10100099800E+03  0.92274194005E+02 0.  0.
    9000005    2    3    3    0    0  0.23684603917E+02  0.27063784279E+02 -0.51819509678E+02  0.63464626167E+02  0.70063049506E+01 0.  0.
         22    1    3    3    0    0 -0.23684603917E+02 -0.27063784279E+02  0.10750364103E+02  0.37536371835E+02  0.00000000000E+00 0.  1.
         22    1    4    4    0    0  0.15799248453E+02  0.19976343522E+02 -0.41349522382E+02  0.48563912048E+02  0.00000000000E+00 0. -1.
         22    1    4    4    0    0  0.78853554646E+01  0.70874407569E+01 -0.10469987296E+02  0.14900714119E+02  0.00000000000E+00 0. -1.
<mgrwt>
<rscale>  0 0.92274194E+02</rscale>
<asrwt>0</asrwt>
<pdfrwt beam="2">  1        3 0.10928473E-01 0.92274194E+02</pdfrwt>
<pdfrwt beam="1">  1       -3 0.46101425E-02 0.92274194E+02</pdfrwt>
<totfact> 0.33486054E+04</totfact>
</mgrwt>
</event>
<event>
 7    1  0.1247599E-009  0.8929242E+02  0.7818608E-02  0.1304574E+00
         -3   -1    0    0    0  501 -0.00000000000E+00  0.00000000000E+00  0.83546794234E+02  0.83546855283E+02  0.10100000000E+00 0.  1.
          3   -1    0    0  501    0  0.00000000000E+00 -0.00000000000E+00 -0.23858117037E+02  0.23858330821E+02  0.10100000000E+00 0. -1.
         23    2    1    2    0    0  0.35527136788E-14  0.00000000000E+00  0.59688677197E+02  0.10740518610E+03  0.89292417464E+02 0.  0.
    9000005    2    3    3    0    0  0.31000690891E+02 -0.94607673805E+01 -0.52092217115E+01  0.34863568823E+02  0.11738121019E+02 0.  0.
         22    1    3    3    0    0 -0.31000690891E+02  0.94607673805E+01  0.64897898908E+02  0.72541617281E+02  0.00000000000E+00 0.  1.
         22    1    4    4    0    0  0.69097305547E+01 -0.57651881305E+00  0.34776730688E+01  0.77569942796E+01  0.00000000000E+00 0.  1.
         22    1    4    4    0    0  0.24090960336E+02 -0.88842485675E+01 -0.86868947803E+01  0.27106574543E+02  0.00000000000E+00 0.  1.
<mgrwt>
<rscale>  0 0.89292417E+02</rscale>
<asrwt>0</asrwt>
<pdfrwt beam="2">  1        3 0.36705007E-02 0.89292417E+02</pdfrwt>
<pdfrwt beam="1">  1       -3 0.12853374E-01 0.89292417E+02</pdfrwt>
<totfact> 0.36121260E+04</totfact>
</mgrwt>
</event>
<event>
 7    1  0.1348037E-009  0.1033695E+03  0.7818608E-02  0.1273366E+00
          3   -1    0    0  501    0  0.00000000000E+00  0.00000000000E+00  0.40457239693E+02  0.40457365765E+02  0.10100000000E+00 0. -1.
         -3   -1    0    0    0  501 -0.00000000000E+00 -0.00000000000E+00 -0.66027795519E+02  0.66027872767E+02  0.10100000000E+00 0.  1.
         23    2    1    2    0    0  0.00000000000E+00  0.00000000000E+00 -0.25570555826E+02  0.10648523853E+03  0.10336949598E+03 0.  0.
    9000005    2    3    3    0    0 -0.62579085444E+01  0.33922399666E+02 -0.51466347355E+02  0.63351926146E+02  0.13220855415E+02 0.  0.
         22    1    3    3    0    0  0.62579085444E+01 -0.33922399666E+02  0.25895791529E+02  0.43133312386E+02  0.00000000000E+00 0. -1.
         22    1    4    4    0    0  0.34739954528E+01  0.15249011824E+02 -0.18384062317E+02  0.24136585369E+02  0.00000000000E+00 0.  1.
         22    1    4    4    0    0 -0.97319039972E+01  0.18673387842E+02 -0.33082285038E+02  0.39215340777E+02  0.00000000000E+00 0.  1.
<mgrwt>
<rscale>  0 0.10336950E+03</rscale>
<asrwt>0</asrwt>
<pdfrwt beam="1">  1        3 0.62242064E-02 0.10336950E+03</pdfrwt>
<pdfrwt beam="2">  1       -3 0.10158138E-01 0.10336950E+03</pdfrwt>
<totfact> 0.24237926E+04</totfact>
</mgrwt>
</event>
<event>
 7    1  0.1247599E-009  0.8959232E+02  0.7818608E-02  0.1303842E+00
         -3   -1    0    0    0  501 -0.00000000000E+00  0.00000000000E+00  0.42607630483E+03  0.42607631680E+03  0.10100000000E+00 0.  1.
          3   -1    0    0  501    0  0.00000000000E+00 -0.00000000000E+00 -0.47091569154E+01  0.47102398934E+01  0.10100000000E+00 0. -1.
         23    2    1    2    0    0  0.00000000000E+00  0.00000000000E+00  0.42136714792E+03  0.43078655670E+03  0.89592321584E+02 0.  0.
    9000005    2    3    3    0    0 -0.24745603237E+02  0.12556162034E+02  0.37937074059E+03  0.38045068169E+03  0.71105763372E+01 0.  0.
         22    1    3    3    0    0  0.24745603237E+02 -0.12556162034E+02  0.41996407327E+02  0.50335875009E+02  0.00000000000E+00 0. -1.
         22    1    4    4    0    0 -0.20780919549E+02  0.10573651362E+02  0.27531102735E+03  0.27629659879E+03  0.00000000000E+00 0.  1.
         22    1    4    4    0    0 -0.39646836879E+01  0.19825106723E+01  0.10405971324E+03  0.10415408290E+03  0.00000000000E+00 0.  1.
<mgrwt>
<rscale>  0 0.89592322E+02</rscale>
<asrwt>0</asrwt>
<pdfrwt beam="2">  1        3 0.72457014E-03 0.89592322E+02</pdfrwt>
<pdfrwt beam="1">  1       -3 0.65550263E-01 0.89592322E+02</pdfrwt>
<totfact> 0.20644071E+04</totfact>
</mgrwt>
</event>
<event>
 7    1  0.1247599E-009  0.9196518E+02  0.7818608E-02  0.1298161E+00
         -3   -1    0    0    0  501 -0.00000000000E+00  0.00000000000E+00  0.73597510266E+02  0.73597579568E+02  0.10100000000E+00 0.  1.
          3   -1    0    0  501    0  0.00000000000E+00 -0.00000000000E+00 -0.28729041816E+02  0.28729219354E+02  0.10100000000E+00 0. -1.
         23    2    1    2    0    0 -0.35527136788E-14  0.22204460493E-15  0.44868468449E+02  0.10232679892E+03  0.91965179914E+02 0.  0.
    9000005    2    3    3    0    0 -0.19207619582E+02 -0.13434733232E+01  0.68421320473E+02  0.71905188034E+02  0.10869287023E+02 0.  0.
         22    1    3    3    0    0  0.19207619582E+02  0.13434733232E+01 -0.23552852023E+02  0.30421610888E+02  0.00000000000E+00 0. -1.
         22    1    4    4    0    0 -0.13123449956E+02  0.39723435882E+01  0.36906932181E+02  0.39371640750E+02  0.00000000000E+00 0.  1.
         22    1    4    4    0    0 -0.60841696258E+01 -0.53158169115E+01  0.31514388291E+02  0.32533547283E+02  0.00000000000E+00 0.  1.
<mgrwt>
<rscale>  0 0.91965180E+02</rscale>
<asrwt>0</asrwt>
<pdfrwt beam="2">  1        3 0.44198716E-02 0.91965180E+02</pdfrwt>
<pdfrwt beam="1">  1       -3 0.11322713E-01 0.91965180E+02</pdfrwt>
<totfact> 0.33700282E+04</totfact>
</mgrwt>
</event>
<event>
 7    1  0.1247599E-009  0.9184137E+02  0.7818608E-02  0.1298453E+00
          3   -1    0    0  501    0  0.00000000000E+00  0.00000000000E+00  0.21264813318E+02  0.21265053173E+02  0.10100000000E+00 0. -1.
         -3   -1    0    0    0  501 -0.00000000000E+00 -0.00000000000E+00 -0.99163435063E+02  0.99163486498E+02  0.10100000000E+00 0.  1.
         23    2    1    2    0    0  0.00000000000E+00  0.00000000000E+00 -0.77898621745E+02  0.12042853967E+03  0.91841373561E+02 0.  0.
    9000005    2    3    3    0    0 -0.43359585433E+02 -0.91235280101E+01 -0.28892533997E+02  0.54361232714E+02  0.12532864363E+02 0.  0.
         22    1    3    3    0    0  0.43359585433E+02  0.91235280101E+01 -0.49006087748E+02  0.66067306957E+02  0.00000000000E+00 0. -1.
         22    1    4    4    0    0 -0.27884229113E+02 -0.51553848406E+01 -0.11108317701E+02  0.30454933069E+02  0.00000000000E+00 0.  1.
         22    1    4    4    0    0 -0.15475356319E+02 -0.39681431695E+01 -0.17784216296E+02  0.23906299645E+02  0.00000000000E+00 0.  1.
<mgrwt>
<rscale>  0 0.91841374E+02</rscale>
<asrwt>0</asrwt>
<pdfrwt beam="1">  1        3 0.32715322E-02 0.91841374E+02</pdfrwt>
<pdfrwt beam="2">  1       -3 0.15255935E-01 0.91841374E+02</pdfrwt>
<totfact> 0.32568656E+04</totfact>
</mgrwt>
</event>
<event>
 7    1  0.1247599E-009  0.1007972E+03  0.7818608E-02  0.1278628E+00
         -3   -1    0    0    0  501 -0.00000000000E+00  0.00000000000E+00  0.44229956569E+03  0.44229957722E+03  0.10100000000E+00 0.  1.
          3   -1    0    0  501    0  0.00000000000E+00 -0.00000000000E+00 -0.57423045011E+01  0.57431926646E+01  0.10100000000E+00 0. -1.
         23    2    1    2    0    0  0.00000000000E+00  0.00000000000E+00  0.43655726119E+03  0.44804276989E+03  0.10079722888E+03 0.  0.
    9000005    2    3    3    0    0 -0.47250870196E+02  0.19518500945E+01  0.29251773428E+03  0.29643854908E+03  0.85284266654E+01 0.  0.
         22    1    3    3    0    0  0.47250870196E+02 -0.19518500945E+01  0.14403952691E+03  0.15160422080E+03  0.00000000000E+00 0.  1.
         22    1    4    4    0    0 -0.32629696277E+02  0.48580477080E+01  0.19000628758E+03  0.19284887095E+03  0.00000000000E+00 0. -1.
         22    1    4    4    0    0 -0.14621173919E+02 -0.29061976135E+01  0.10251144670E+03  0.10358967813E+03  0.00000000000E+00 0. -1.
<mgrwt>
<rscale>  0 0.10079723E+03</rscale>
<asrwt>0</asrwt>
<pdfrwt beam="2">  1        3 0.88350054E-03 0.10079723E+03</pdfrwt>
<pdfrwt beam="1">  1       -3 0.68046166E-01 0.10079723E+03</pdfrwt>
<totfact> 0.14679636E+04</totfact>
</mgrwt>
</event>
<event>
 7    1  0.1247599E-009  0.8625107E+02  0.7818608E-02  0.1312193E+00
          3   -1    0    0  501    0  0.00000000000E+00  0.00000000000E+00  0.11405640484E+04  0.11405640529E+04  0.10100000000E+00 0. -1.
         -3   -1    0    0    0  501 -0.00000000000E+00 -0.00000000000E+00 -0.16290383890E+01  0.16321663741E+01  0.10100000000E+00 0.  1.
         23    2    1    2    0    0  0.88817841970E-15  0.35527136788E-14  0.11389350100E+04  0.11421962193E+04  0.86251065101E+02 0.  0.
    9000005    2    3    3    0    0 -0.57354025894E+01 -0.19784222900E+02  0.10691774795E+04  0.10694609226E+04  0.13485990189E+02 0.  0.
         22    1    3    3    0    0  0.57354025894E+01  0.19784222900E+02  0.69757530532E+02  0.72735296690E+02  0.00000000000E+00 0.  1.
         22    1    4    4    0    0 -0.10820483244E+01 -0.19733013015E+02  0.80562481665E+03  0.80586717754E+03  0.00000000000E+00 0. -1.
         22    1    4    4    0    0 -0.46533542650E+01 -0.51209884835E-01  0.26355266285E+03  0.26359374504E+03  0.00000000000E+00 0. -1.
<mgrwt>
<rscale>  0 0.86251065E+02</rscale>
<asrwt>0</asrwt>
<pdfrwt beam="1">  1        3 0.17547174E+00 0.86251065E+02</pdfrwt>
<pdfrwt beam="2">  1       -3 0.25086210E-03 0.86251065E+02</pdfrwt>
<totfact> 0.10052533E+04</totfact>
</mgrwt>
</event>
<event>
 7    1  0.1247599E-009  0.1010815E+03  0.7818608E-02  0.1278038E+00
         -3   -1    0    0    0  501 -0.00000000000E+00  0.00000000000E+00  0.10466576715E+03  0.10466581588E+03  0.10100000000E+00 0.  1.
          3   -1    0    0  501    0  0.00000000000E+00 -0.00000000000E+00 -0.24404830274E+02  0.24405039268E+02  0.10100000000E+00 0. -1.
         23    2    1    2    0    0  0.00000000000E+00  0.00000000000E+00  0.80260936878E+02  0.12907085515E+03  0.10108149020E+03 0.  0.
    9000005    2    3    3    0    0 -0.12693829122E+02 -0.47989896599E+02  0.28710871425E+02  0.57505690989E+02  0.42926547397E+01 0.  0.
         22    1    3    3    0    0  0.12693829122E+02  0.47989896599E+02  0.51550065454E+02  0.71565164163E+02  0.00000000000E+00 0.  1.
         22    1    4    4    0    0 -0.91319316521E+01 -0.31855517612E+02  0.21325323144E+02  0.39407303704E+02  0.00000000000E+00 0.  1.
         22    1    4    4    0    0 -0.35618974699E+01 -0.16134378987E+02  0.73855482806E+01  0.18098387285E+02  0.00000000000E+00 0.  1.
<mgrwt>
<rscale>  0 0.10108149E+03</rscale>
<asrwt>0</asrwt>
<pdfrwt beam="2">  1        3 0.37546092E-02 0.10108149E+03</pdfrwt>
<pdfrwt beam="1">  1       -3 0.16102445E-01 0.10108149E+03</pdfrwt>
<totfact> 0.24622044E+04</totfact>
</mgrwt>
</event>
<event>
 7    1  0.1247599E-009  0.9048135E+02  0.7818608E-02  0.1301690E+00
          3   -1    0    0  501    0  0.00000000000E+00  0.00000000000E+00  0.24859579044E+02  0.24859784215E+02  0.10100000000E+00 0. -1.
         -3   -1    0    0    0  501 -0.00000000000E+00 -0.00000000000E+00 -0.82330618331E+02  0.82330680283E+02  0.10100000000E+00 0.  1.
         23    2    1    2    0    0  0.00000000000E+00 -0.22204460493E-15 -0.57471039287E+02  0.10719046450E+03  0.90481353452E+02 0.  0.
    9000005    2    3    3    0    0 -0.33948056182E+02  0.15918634298E+01 -0.62519285192E+02  0.72832214624E+02  0.15519855617E+02 0.  0.
         22    1    3    3    0    0  0.33948056182E+02 -0.15918634298E+01  0.50482459043E+01  0.34358249875E+02  0.00000000000E+00 0. -1.
         22    1    4    4    0    0 -0.29894825508E+02 -0.10031093794E+01 -0.60731715694E+02  0.67698213505E+02  0.00000000000E+00 0.  1.
         22    1    4    4    0    0 -0.40532306741E+01  0.25949728092E+01 -0.17875694974E+01  0.51340011186E+01  0.00000000000E+00 0.  1.
<mgrwt>
<rscale>  0 0.90481353E+02</rscale>
<asrwt>0</asrwt>
<pdfrwt beam="1">  1        3 0.38245712E-02 0.90481353E+02</pdfrwt>
<pdfrwt beam="2">  1       -3 0.12666269E-01 0.90481353E+02</pdfrwt>
<totfact> 0.34865024E+04</totfact>
</mgrwt>
</event>
<event>
 7    1  0.1247599E-009  0.9035519E+02  0.7818608E-02  0.1301994E+00
          3   -1    0    0  501    0  0.00000000000E+00  0.00000000000E+00  0.33073358212E+02  0.33073512429E+02  0.10100000000E+00 0. -1.
         -3   -1    0    0    0  501 -0.00000000000E+00 -0.00000000000E+00 -0.61711425107E+02  0.61711507757E+02  0.10100000000E+00 0.  1.
         23    2    1    2    0    0  0.11102230246E-15  0.00000000000E+00 -0.28638066895E+02  0.94785020186E+02  0.90355194517E+02 0.  0.
    9000005    2    3    3    0    0  0.72559103558E+00  0.28737641068E+02  0.21434573460E+02  0.37047269896E+02  0.93102508485E+01 0.  0.
         22    1    3    3    0    0 -0.72559103558E+00 -0.28737641068E+02 -0.50072640355E+02  0.57737750290E+02  0.00000000000E+00 0.  1.
         22    1    4    4    0    0 -0.31432962815E+01  0.18470895986E+02  0.16696577553E+02  0.25096414326E+02  0.00000000000E+00 0.  1.
         22    1    4    4    0    0  0.38688873170E+01  0.10266745082E+02  0.47379959068E+01  0.11950855570E+02  0.00000000000E+00 0.  1.
<mgrwt>
<rscale>  0 0.90355195E+02</rscale>
<asrwt>0</asrwt>
<pdfrwt beam="1">  1        3 0.50882272E-02 0.90355195E+02</pdfrwt>
<pdfrwt beam="2">  1       -3 0.94940836E-02 0.90355195E+02</pdfrwt>
<totfact> 0.35937186E+04</totfact>
</mgrwt>
</event>
<event>
 7    1  0.1247599E-009  0.9165763E+02  0.7818608E-02  0.1298886E+00
          3   -1    0    0  501    0  0.00000000000E+00  0.00000000000E+00  0.86165300845E+02  0.86165360039E+02  0.10100000000E+00 0. -1.
         -3   -1    0    0    0  501 -0.00000000000E+00 -0.00000000000E+00 -0.24374839612E+02  0.24375048864E+02  0.10100000000E+00 0.  1.
         23    2    1    2    0    0  0.00000000000E+00  0.00000000000E+00  0.61790461233E+02  0.11054040890E+03  0.91657628712E+02 0.  0.
    9000005    2    3    3    0    0  0.38950836398E+02  0.22962607438E+02  0.25969339531E+02  0.52855040252E+02  0.86486812827E+01 0.  0.
         22    1    3    3    0    0 -0.38950836398E+02 -0.22962607438E+02  0.35821121702E+02  0.57685368651E+02  0.00000000000E+00 0. -1.
         22    1    4    4    0    0  0.27004176638E+02  0.20167192196E+02  0.20237819689E+02  0.39312981860E+02  0.00000000000E+00 0.  1.
         22    1    4    4    0    0  0.11946659760E+02  0.27954152421E+01  0.57315198420E+01  0.13542058392E+02  0.00000000000E+00 0.  1.
<mgrwt>
<rscale>  0 0.91657629E+02</rscale>
<asrwt>0</asrwt>
<pdfrwt beam="1">  1        3 0.13256221E-01 0.91657629E+02</pdfrwt>
<pdfrwt beam="2">  1       -3 0.37499959E-02 0.91657629E+02</pdfrwt>
<totfact> 0.33424035E+04</totfact>
</mgrwt>
</event>
<event>
 7    1  0.1247599E-009  0.9177697E+02  0.7818608E-02  0.1298605E+00
         -3   -1    0    0    0  501 -0.00000000000E+00  0.00000000000E+00  0.44706005167E+02  0.44706119257E+02  0.10100000000E+00 0.  1.
          3   -1    0    0  501    0  0.00000000000E+00 -0.00000000000E+00 -0.47102014948E+02  0.47102123234E+02  0.10100000000E+00 0. -1.
         23    2    1    2    0    0  0.88817841970E-15  0.35527136788E-14 -0.23960097808E+01  0.91808242491E+02  0.91776971656E+02 0.  0.
    9000005    2    3    3    0    0 -0.72957745096E+01 -0.28723244344E+02  0.33710377692E+02  0.45097169846E+02  0.43717356584E+01 0.  0.
         22    1    3    3    0    0  0.72957745096E+01  0.28723244344E+02 -0.36106387472E+02  0.46711072645E+02  0.00000000000E+00 0. -1.
         22    1    4    4    0    0 -0.23211311794E+01 -0.14355875067E+02  0.19146936233E+02  0.24043376760E+02  0.00000000000E+00 0.  1.
         22    1    4    4    0    0 -0.49746433302E+01 -0.14367369277E+02  0.14563441458E+02  0.21053793086E+02  0.00000000000E+00 0.  1.
<mgrwt>
<rscale>  0 0.91776972E+02</rscale>
<asrwt>0</asrwt>
<pdfrwt beam="2">  1        3 0.72464810E-02 0.91776972E+02</pdfrwt>
<pdfrwt beam="1">  1       -3 0.68778640E-02 0.91776972E+02</pdfrwt>
<totfact> 0.34663502E+04</totfact>
</mgrwt>
</event>
<event>
 7    1  0.1247599E-009  0.9192743E+02  0.7818608E-02  0.1298250E+00
          3   -1    0    0  501    0  0.00000000000E+00  0.00000000000E+00  0.14070181326E+02  0.14070543826E+02  0.10100000000E+00 0. -1.
         -3   -1    0    0    0  501 -0.00000000000E+00 -0.00000000000E+00 -0.15014949034E+03  0.15014952431E+03  0.10100000000E+00 0.  1.
         23    2    1    2    0    0  0.00000000000E+00  0.00000000000E+00 -0.13607930901E+03  0.16422006813E+03  0.91927430272E+02 0.  0.
    9000005    2    3    3    0    0  0.19054170509E+02  0.11748368633E+02 -0.13920199785E+03  0.14161836986E+03  0.13322195677E+02 0.  0.
         22    1    3    3    0    0 -0.19054170509E+02 -0.11748368633E+02  0.31226888352E+01  0.22601698274E+02  0.00000000000E+00 0. -1.
         22    1    4    4    0    0  0.12187604676E+02  0.54905099984E+01 -0.11358320443E+03  0.11436707453E+03  0.00000000000E+00 0.  1.
         22    1    4    4    0    0  0.68665658323E+01  0.62578586341E+01 -0.25618793417E+02  0.27251295330E+02  0.00000000000E+00 0.  1.
<mgrwt>
<rscale>  0 0.91927430E+02</rscale>
<asrwt>0</asrwt>
<pdfrwt beam="1">  1        3 0.21646739E-02 0.91927430E+02</pdfrwt>
<pdfrwt beam="2">  1       -3 0.23099951E-01 0.91927430E+02</pdfrwt>
<totfact> 0.29790224E+04</totfact>
</mgrwt>
</event>
<event>
 7    1  0.1247599E-009  0.9292223E+02  0.7818608E-02  0.1295925E+00
          3   -1    0    0  501    0  0.00000000000E+00  0.00000000000E+00  0.29566882598E+03  0.29566884324E+03  0.10100000000E+00 0. -1.
         -3   -1    0    0    0  501 -0.00000000000E+00 -0.00000000000E+00 -0.73004888169E+01  0.73011874353E+01  0.10100000000E+00 0.  1.
         23    2    1    2    0    0  0.00000000000E+00  0.00000000000E+00  0.28836833717E+03  0.30297003067E+03  0.92922234173E+02 0.  0.
    9000005    2    3    3    0    0  0.12975356403E+02  0.39890493292E+02  0.87787704364E+02  0.98050042420E+02  0.12145717442E+02 0.  0.
         22    1    3    3    0    0 -0.12975356403E+02 -0.39890493292E+02  0.20058063280E+03  0.20491998825E+03  0.00000000000E+00 0. -1.
         22    1    4    4    0    0  0.48968274424E+01  0.69264835067E+01  0.95814275723E+01  0.12796829572E+02  0.00000000000E+00 0. -1.
         22    1    4    4    0    0  0.80785289603E+01  0.32964009785E+02  0.78206276792E+02  0.85253212848E+02  0.00000000000E+00 0. -1.
<mgrwt>
<rscale>  0 0.92922234E+02</rscale>
<asrwt>0</asrwt>
<pdfrwt beam="1">  1        3 0.45487567E-01 0.92922234E+02</pdfrwt>
<pdfrwt beam="2">  1       -3 0.11232072E-02 0.92922234E+02</pdfrwt>
<totfact> 0.22727377E+04</totfact>
</mgrwt>
</event>
<event>
 7    1  0.1247599E-009  0.8936207E+02  0.7818608E-02  0.1304404E+00
         -3   -1    0    0    0  501 -0.00000000000E+00  0.00000000000E+00  0.76570570773E+01  0.76577231659E+01  0.10100000000E+00 0.  1.
          3   -1    0    0  501    0  0.00000000000E+00 -0.00000000000E+00 -0.26071414609E+03  0.26071416565E+03  0.10100000000E+00 0. -1.
         23    2    1    2    0    0  0.00000000000E+00  0.00000000000E+00 -0.25305708901E+03  0.26837188882E+03  0.89362074780E+02 0.  0.
    9000005    2    3    3    0    0 -0.14170104420E+02  0.19678111967E+02 -0.23920688715E+03  0.24044612936E+03  0.25271155710E+01 0.  0.
         22    1    3    3    0    0  0.14170104420E+02 -0.19678111967E+02 -0.13850201862E+02  0.27925759461E+02  0.00000000000E+00 0.  1.
         22    1    4    4    0    0 -0.12134737911E+02  0.15269628286E+02 -0.18745461441E+03  0.18846656434E+03  0.00000000000E+00 0. -1.
         22    1    4    4    0    0 -0.20353665092E+01  0.44084836811E+01 -0.51752272746E+02  0.51979565019E+02  0.00000000000E+00 0. -1.
<mgrwt>
<rscale>  0 0.89362075E+02</rscale>
<asrwt>0</asrwt>
<pdfrwt beam="2">  1        3 0.40109914E-01 0.89362075E+02</pdfrwt>
<pdfrwt beam="1">  1       -3 0.11780617E-02 0.89362075E+02</pdfrwt>
<totfact> 0.26710473E+04</totfact>
</mgrwt>
</event>
<event>
 7    1  0.1247599E-009  0.9390426E+02  0.7818608E-02  0.1293663E+00
          3   -1    0    0  501    0  0.00000000000E+00  0.00000000000E+00  0.43216367242E+03  0.43216368423E+03  0.10100000000E+00 0. -1.
         -3   -1    0    0    0  501 -0.00000000000E+00 -0.00000000000E+00 -0.51005708042E+01  0.51015706924E+01  0.10100000000E+00 0.  1.
         23    2    1    2    0    0  0.35527136788E-14  0.00000000000E+00  0.42706310162E+03  0.43726525492E+03  0.93904261852E+02 0.  0.
    9000005    2    3    3    0    0  0.24320529966E+02  0.35431848333E+01  0.39940121734E+03  0.40026225263E+03  0.91921777075E+01 0.  0.
         22    1    3    3    0    0 -0.24320529966E+02 -0.35431848333E+01  0.27661884285E+02  0.37003002294E+02  0.00000000000E+00 0.  1.
         22    1    4    4    0    0  0.11092889065E+01 -0.20732592690E+01  0.33147966467E+02  0.33231259482E+02  0.00000000000E+00 0.  1.
         22    1    4    4    0    0  0.23211241059E+02  0.56164441023E+01  0.36625325087E+03  0.36703099314E+03  0.00000000000E+00 0.  1.
<mgrwt>
<rscale>  0 0.93904262E+02</rscale>
<asrwt>0</asrwt>
<pdfrwt beam="1">  1        3 0.66486789E-01 0.93904262E+02</pdfrwt>
<pdfrwt beam="2">  1       -3 0.78478111E-03 0.93904262E+02</pdfrwt>
<totfact> 0.18053201E+04</totfact>
</mgrwt>
</event>
<event>
 7    1  0.1247599E-009  0.9062966E+02  0.7818608E-02  0.1301334E+00
         -3   -1    0    0    0  501 -0.00000000000E+00  0.00000000000E+00  0.74342159229E+02  0.74342227837E+02  0.10100000000E+00 0.  1.
          3   -1    0    0  501    0  0.00000000000E+00 -0.00000000000E+00 -0.27621218559E+02  0.27621403218E+02  0.10100000000E+00 0. -1.
         23    2    1    2    0    0 -0.71054273576E-14  0.88817841970E-15  0.46720940669E+02  0.10196363105E+03  0.90629662699E+02 0.  0.
    9000005    2    3    3    0    0  0.40636090558E+02 -0.53900008095E+01  0.61306101989E+01  0.44275513628E+02  0.15568967888E+02 0.  0.
         22    1    3    3    0    0 -0.40636090558E+02  0.53900008095E+01  0.40590330470E+02  0.57688117427E+02  0.00000000000E+00 0.  1.
         22    1    4    4    0    0  0.21067995807E+02  0.25273548577E+01  0.88525213027E+01  0.22991631158E+02  0.00000000000E+00 0. -1.
         22    1    4    4    0    0  0.19568094751E+02 -0.79173556672E+01 -0.27219111039E+01  0.21283882470E+02  0.00000000000E+00 0. -1.
<mgrwt>
<rscale>  0 0.90629663E+02</rscale>
<asrwt>0</asrwt>
<pdfrwt beam="2">  1        3 0.42494377E-02 0.90629663E+02</pdfrwt>
<pdfrwt beam="1">  1       -3 0.11437275E-01 0.90629663E+02</pdfrwt>
<totfact> 0.35097242E+04</totfact>
</mgrwt>
</event>
<event>
 7    1  0.1247599E-009  0.9292711E+02  0.7818608E-02  0.1295914E+00
          3   -1    0    0  501    0  0.00000000000E+00  0.00000000000E+00  0.55942939961E+02  0.55943031135E+02  0.10100000000E+00 0. -1.
         -3   -1    0    0    0  501 -0.00000000000E+00 -0.00000000000E+00 -0.38590239679E+02  0.38590371850E+02  0.10100000000E+00 0.  1.
         23    2    1    2    0    0  0.17763568394E-14  0.00000000000E+00  0.17352700282E+02  0.94533402984E+02  0.92927111613E+02 0.  0.
    9000005    2    3    3    0    0 -0.14696338670E+02  0.37033449948E+02  0.32969408316E+02  0.51739240355E+02  0.15837684177E+01 0.  0.
         22    1    3    3    0    0  0.14696338670E+02 -0.37033449948E+02 -0.15616708034E+02  0.42794162630E+02  0.00000000000E+00 0.  1.
         22    1    4    4    0    0 -0.12964111612E+02  0.31331169596E+02  0.27680405222E+02  0.43771168723E+02  0.00000000000E+00 0.  1.
         22    1    4    4    0    0 -0.17322270578E+01  0.57022803522E+01  0.52890030937E+01  0.79680716312E+01  0.00000000000E+00 0.  1.
<mgrwt>
<rscale>  0 0.92927112E+02</rscale>
<asrwt>0</asrwt>
<pdfrwt beam="1">  1        3 0.86066233E-02 0.92927112E+02</pdfrwt>
<pdfrwt beam="2">  1       -3 0.59369772E-02 0.92927112E+02</pdfrwt>
<totfact> 0.33307224E+04</totfact>
</mgrwt>
</event>
<event>
 7    1  0.1247599E-009  0.9081603E+02  0.7818608E-02  0.1300888E+00
          3   -1    0    0  501    0  0.00000000000E+00  0.00000000000E+00  0.11755742783E+02  0.11756176648E+02  0.10100000000E+00 0. -1.
         -3   -1    0    0    0  501 -0.00000000000E+00 -0.00000000000E+00 -0.17539041303E+03  0.17539044211E+03  0.10100000000E+00 0.  1.
         23    2    1    2    0    0  0.00000000000E+00  0.00000000000E+00 -0.16363467025E+03  0.18714661876E+03  0.90816031657E+02 0.  0.
    9000005    2    3    3    0    0 -0.25077621444E+01 -0.41387892823E+02 -0.46332328742E+02  0.62731644315E+02  0.83263418428E+01 0.  0.
         22    1    3    3    0    0  0.25077621444E+01  0.41387892823E+02 -0.11730234150E+03  0.12441497444E+03  0.00000000000E+00 0.  1.
         22    1    4    4    0    0 -0.19192370625E+01 -0.17340544189E+02 -0.13651881962E+02  0.22152919103E+02  0.00000000000E+00 0. -1.
         22    1    4    4    0    0 -0.58852508195E+00 -0.24047348634E+02 -0.32680446780E+02  0.40578725212E+02  0.00000000000E+00 0. -1.
<mgrwt>
<rscale>  0 0.90816032E+02</rscale>
<asrwt>0</asrwt>
<pdfrwt beam="1">  1        3 0.18086116E-02 0.90816032E+02</pdfrwt>
<pdfrwt beam="2">  1       -3 0.26983174E-01 0.90816032E+02</pdfrwt>
<totfact> 0.29490278E+04</totfact>
</mgrwt>
</event>
<event>
 7    1  0.1247599E-009  0.9264534E+02  0.7818608E-02  0.1296569E+00
         -3   -1    0    0    0  501 -0.00000000000E+00  0.00000000000E+00  0.86099598407E+02  0.86099657647E+02  0.10100000000E+00 0.  1.
          3   -1    0    0  501    0  0.00000000000E+00 -0.00000000000E+00 -0.24922013170E+02  0.24922217827E+02  0.10100000000E+00 0. -1.
         23    2    1    2    0    0  0.00000000000E+00  0.00000000000E+00  0.61177585238E+02  0.11102187547E+03  0.92645344720E+02 0.  0.
    9000005    2    3    3    0    0  0.11206906732E+02 -0.37071281489E+02  0.79854437340E+00  0.39289712217E+02  0.65703229172E+01 0.  0.
         22    1    3    3    0    0 -0.11206906732E+02  0.37071281489E+02  0.60379040864E+02  0.71732163257E+02  0.00000000000E+00 0.  1.
         22    1    4    4    0    0  0.56632697630E+01 -0.92969795083E+01  0.12979173957E+01  0.10963167515E+02  0.00000000000E+00 0.  1.
         22    1    4    4    0    0  0.55436369690E+01 -0.27774301981E+02 -0.49937302228E+00  0.28326544703E+02  0.00000000000E+00 0.  1.
<mgrwt>
<rscale>  0 0.92645345E+02</rscale>
<asrwt>0</asrwt>
<pdfrwt beam="2">  1        3 0.38341762E-02 0.92645345E+02</pdfrwt>
<pdfrwt beam="1">  1       -3 0.13246112E-01 0.92645345E+02</pdfrwt>
<totfact> 0.32430487E+04</totfact>
</mgrwt>
</event>
<event>
 7    1  0.1247599E-009  0.9083882E+02  0.7818608E-02  0.1300833E+00
         -3   -1    0    0    0  501 -0.00000000000E+00  0.00000000000E+00  0.12357954237E+02  0.12358366960E+02  0.10100000000E+00 0.  1.
          3   -1    0    0  501    0  0.00000000000E+00 -0.00000000000E+00 -0.16692755508E+03  0.16692758564E+03  0.10100000000E+00 0. -1.
         23    2    1    2    0    0  0.00000000000E+00  0.00000000000E+00 -0.15456960085E+03  0.17928595260E+03  0.90838820410E+02 0.  0.
    9000005    2    3    3    0    0  0.12263400452E+02  0.40436976063E+02 -0.10660455055E+03  0.11536266988E+03  0.12588700494E+02 0.  0.
         22    1    3    3    0    0 -0.12263400452E+02 -0.40436976063E+02 -0.47965050301E+02  0.63923282724E+02  0.00000000000E+00 0. -1.
         22    1    4    4    0    0 -0.25967608735E+01  0.46004673459E+01 -0.13706184532E+02  0.14689008179E+02  0.00000000000E+00 0.  1.
         22    1    4    4    0    0  0.14860161325E+02  0.35836508717E+02 -0.92898366013E+02  0.10067366170E+03  0.00000000000E+00 0.  1.
<mgrwt>
<rscale>  0 0.90838820E+02</rscale>
<asrwt>0</asrwt>
<pdfrwt beam="2">  1        3 0.25681195E-01 0.90838820E+02</pdfrwt>
<pdfrwt beam="1">  1       -3 0.19012579E-02 0.90838820E+02</pdfrwt>
<totfact> 0.29903912E+04</totfact>
</mgrwt>
</event>
<event>
 7    1  0.1247599E-009  0.9057189E+02  0.7818608E-02  0.1301473E+00
          3   -1    0    0  501    0  0.00000000000E+00  0.00000000000E+00  0.62271103344E+01  0.62279293603E+01  0.10100000000E+00 0. -1.
         -3   -1    0    0    0  501 -0.00000000000E+00 -0.00000000000E+00 -0.32931433217E+03  0.32931434766E+03  0.10100000000E+00 0.  1.
         23    2    1    2    0    0 -0.11102230246E-15  0.00000000000E+00 -0.32308722184E+03  0.33554227702E+03  0.90571887214E+02 0.  0.
    9000005    2    3    3    0    0  0.99013758884E+00  0.43654892663E+02 -0.13752354341E+03  0.14491014758E+03  0.13397606200E+02 0.  0.
         22    1    3    3    0    0 -0.99013758884E+00 -0.43654892663E+02 -0.18556367843E+03  0.19063212945E+03  0.00000000000E+00 0.  1.
         22    1    4    4    0    0  0.98876830853E+00  0.30572759016E+01 -0.30067096651E+01  0.44005569781E+01  0.00000000000E+00 0. -1.
         22    1    4    4    0    0  0.13692803086E-02  0.40597616762E+02 -0.13451683375E+03  0.14050959060E+03  0.00000000000E+00 0. -1.
<mgrwt>
<rscale>  0 0.90571887E+02</rscale>
<asrwt>0</asrwt>
<pdfrwt beam="1">  1        3 0.95808142E-03 0.90571887E+02</pdfrwt>
<pdfrwt beam="2">  1       -3 0.50663794E-01 0.90571887E+02</pdfrwt>
<totfact> 0.23116436E+04</totfact>
</mgrwt>
</event>
<event>
 7    1  0.1247599E-009  0.9145390E+02  0.7818608E-02  0.1299369E+00
          3   -1    0    0  501    0  0.00000000000E+00  0.00000000000E+00  0.73333504067E+02  0.73333573619E+02  0.10100000000E+00 0. -1.
         -3   -1    0    0    0  501 -0.00000000000E+00 -0.00000000000E+00 -0.28512766976E+02  0.28512945860E+02  0.10100000000E+00 0.  1.
         23    2    1    2    0    0  0.00000000000E+00 -0.35527136788E-14  0.44820737091E+02  0.10184651948E+03  0.91453895798E+02 0.  0.
    9000005    2    3    3    0    0 -0.66847235566E+01  0.22596916816E+02  0.65525897438E+02  0.70477588296E+02  0.10869270369E+02 0.  0.
         22    1    3    3    0    0  0.66847235566E+01 -0.22596916816E+02 -0.20705160347E+02  0.31368931184E+02  0.00000000000E+00 0.  1.
         22    1    4    4    0    0 -0.73703177036E+01  0.23381006440E+02  0.59339464040E+02  0.64204088948E+02  0.00000000000E+00 0. -1.
         22    1    4    4    0    0  0.68559414694E+00 -0.78408962380E+00  0.61864333980E+01  0.62734993473E+01  0.00000000000E+00 0. -1.
<mgrwt>
<rscale>  0 0.91453896E+02</rscale>
<asrwt>0</asrwt>
<pdfrwt beam="1">  1        3 0.11282097E-01 0.91453896E+02</pdfrwt>
<pdfrwt beam="2">  1       -3 0.43865987E-02 0.91453896E+02</pdfrwt>
<totfact> 0.34250253E+04</totfact>
</mgrwt>
</event>
<event>
 7    1  0.1247599E-009  0.9203753E+02  0.7818608E-02  0.1297991E+00
          3   -1    0    0  501    0  0.00000000000E+00  0.00000000000E+00  0.44249995061E+02  0.44250110326E+02  0.10100000000E+00 0. -1.
         -3   -1    0    0    0  501 -0.00000000000E+00 -0.00000000000E+00 -0.47858008209E+02  0.47858114785E+02  0.10100000000E+00 0.  1.
         23    2    1    2    0    0  0.00000000000E+00 -0.35527136788E-14 -0.36080131482E+01  0.92108225111E+02  0.92037532422E+02 0.  0.
    9000005    2    3    3    0    0  0.12932006535E+02  0.27048910551E+02 -0.36510799794E+02  0.47594477526E+02  0.57719523870E+01 0.  0.
         22    1    3    3    0    0 -0.12932006535E+02 -0.27048910551E+02  0.32902786646E+02  0.44513747585E+02  0.00000000000E+00 0. -1.
         22    1    4    4    0    0  0.11501299223E+02  0.20391144585E+02 -0.30923979060E+02  0.38786223614E+02  0.00000000000E+00 0.  1.
         22    1    4    4    0    0  0.14307073116E+01  0.66577659659E+01 -0.55868207343E+01  0.88082539124E+01  0.00000000000E+00 0.  1.
<mgrwt>
<rscale>  0 0.92037532E+02</rscale>
<asrwt>0</asrwt>
<pdfrwt beam="1">  1        3 0.68077086E-02 0.92037532E+02</pdfrwt>
<pdfrwt beam="2">  1       -3 0.73627876E-02 0.92037532E+02</pdfrwt>
<totfact> 0.34373834E+04</totfact>
</mgrwt>
</event>
<event>
 7    1  0.1247599E-009  0.9167321E+02  0.7818608E-02  0.1298850E+00
         -3   -1    0    0    0  501 -0.00000000000E+00  0.00000000000E+00  0.16569519959E+03  0.16569523037E+03  0.10100000000E+00 0.  1.
          3   -1    0    0  501    0  0.00000000000E+00 -0.00000000000E+00 -0.12679641669E+02  0.12680043922E+02  0.10100000000E+00 0. -1.
         23    2    1    2    0    0  0.00000000000E+00  0.00000000000E+00  0.15301555792E+03  0.17837527429E+03  0.91673210448E+02 0.  0.
    9000005    2    3    3    0    0 -0.48187247745E+01  0.45529001089E+02  0.79668216117E+02  0.91911740951E+02  0.21525372689E+01 0.  0.
         22    1    3    3    0    0  0.48187247745E+01 -0.45529001089E+02  0.73347341803E+02  0.86463533343E+02  0.00000000000E+00 0. -1.
         22    1    4    4    0    0 -0.22479341991E+01  0.12609456965E+02  0.22928562089E+02  0.26263483634E+02  0.00000000000E+00 0. -1.
         22    1    4    4    0    0 -0.25707905754E+01  0.32919544124E+02  0.56739654028E+02  0.65648257317E+02  0.00000000000E+00 0. -1.
<mgrwt>
<rscale>  0 0.91673210E+02</rscale>
<asrwt>0</asrwt>
<pdfrwt beam="2">  1        3 0.19507475E-02 0.91673210E+02</pdfrwt>
<pdfrwt beam="1">  1       -3 0.25491601E-01 0.91673210E+02</pdfrwt>
<totfact> 0.29223144E+04</totfact>
</mgrwt>
</event>
<event>
 7    1  0.1247599E-009  0.9281946E+02  0.7818608E-02  0.1296164E+00
          3   -1    0    0  501    0  0.00000000000E+00  0.00000000000E+00  0.24936955340E+01  0.24957400539E+01  0.10100000000E+00 0. -1.
         -3   -1    0    0    0  501 -0.00000000000E+00 -0.00000000000E+00 -0.86336740493E+03  0.86336741084E+03  0.10100000000E+00 0.  1.
         23    2    1    2    0    0  0.00000000000E+00  0.00000000000E+00 -0.86087370939E+03  0.86586315089E+03  0.92819462090E+02 0.  0.
    9000005    2    3    3    0    0  0.31277128757E+02  0.15561679300E+02 -0.70922052584E+03  0.71023824052E+03  0.14972620893E+02 0.  0.
         22    1    3    3    0    0 -0.31277128757E+02 -0.15561679300E+02 -0.15165318356E+03  0.15562491038E+03  0.00000000000E+00 0. -1.
         22    1    4    4    0    0  0.32286525282E+02  0.16786777373E+02 -0.67330445732E+03  0.67428711085E+03  0.00000000000E+00 0. -1.
         22    1    4    4    0    0 -0.10093965248E+01 -0.12250980735E+01 -0.35916068519E+02  0.35951129669E+02  0.00000000000E+00 0. -1.
<mgrwt>
<rscale>  0 0.92819462E+02</rscale>
<asrwt>0</asrwt>
<pdfrwt beam="1">  1        3 0.38380388E-03 0.92819462E+02</pdfrwt>
<pdfrwt beam="2">  1       -3 0.13282567E+00 0.92819462E+02</pdfrwt>
<totfact> 0.10971489E+04</totfact>
</mgrwt>
</event>
<event>
 7    1  0.1247599E-009  0.5609107E+02  0.7818608E-02  0.1415008E+00
          3   -1    0    0  501    0  0.00000000000E+00  0.00000000000E+00  0.56605511291E+02  0.56605601397E+02  0.10100000000E+00 0. -1.
         -3   -1    0    0    0  501 -0.00000000000E+00 -0.00000000000E+00 -0.13895041932E+02  0.13895409001E+02  0.10100000000E+00 0.  1.
         23    2    1    2    0    0  0.00000000000E+00  0.00000000000E+00  0.42710469359E+02  0.70501010398E+02  0.56091071253E+02 0.  0.
    9000005    2    3    3    0    0  0.23943862046E+02 -0.89420506373E+01  0.32627043041E+02  0.43024760917E+02  0.11547177797E+02 0.  0.
         22    1    3    3    0    0 -0.23943862046E+02  0.89420506373E+01  0.10083426318E+02  0.27476249482E+02  0.00000000000E+00 0. -1.
         22    1    4    4    0    0  0.82934395668E+01 -0.65457524798E+01  0.62929350414E+01  0.12297521978E+02  0.00000000000E+00 0. -1.
         22    1    4    4    0    0  0.15650422479E+02 -0.23962981576E+01  0.26334108000E+02  0.30727238938E+02  0.00000000000E+00 0. -1.
<mgrwt>
<rscale>  0 0.56091071E+02</rscale>
<asrwt>0</asrwt>
<pdfrwt beam="1">  1        3 0.87085754E-02 0.56091071E+02</pdfrwt>
<pdfrwt beam="2">  1       -3 0.21377339E-02 0.56091071E+02</pdfrwt>
<totfact> 0.13385226E+05</totfact>
</mgrwt>
</event>
<event>
 7    1  0.1247599E-009  0.9736370E+02  0.7818608E-02  0.1285939E+00
         -3   -1    0    0    0  501 -0.00000000000E+00  0.00000000000E+00  0.50541993600E+01  0.50552084201E+01  0.10100000000E+00 0.  1.
          3   -1    0    0  501    0  0.00000000000E+00 -0.00000000000E+00 -0.46885387939E+03  0.46885389027E+03  0.10100000000E+00 0. -1.
         23    2    1    2    0    0  0.00000000000E+00  0.00000000000E+00 -0.46379968003E+03  0.47390909869E+03  0.97363702806E+02 0.  0.
    9000005    2    3    3    0    0  0.25788561321E+02 -0.12156943142E+02 -0.42337521113E+03  0.42444215167E+03  0.95775546230E+01 0.  0.
         22    1    3    3    0    0 -0.25788561321E+02  0.12156943142E+02 -0.40424468900E+02  0.49466947019E+02  0.00000000000E+00 0.  1.
         22    1    4    4    0    0  0.14287086394E+02 -0.60078666308E+01 -0.29480866683E+03  0.29521579452E+03  0.00000000000E+00 0.  1.
         22    1    4    4    0    0  0.11501474927E+02 -0.61490765116E+01 -0.12856654431E+03  0.12922635715E+03  0.00000000000E+00 0.  1.
<mgrwt>
<rscale>  0 0.97363703E+02</rscale>
<asrwt>0</asrwt>
<pdfrwt beam="2">  1        3 0.72131410E-01 0.97363703E+02</pdfrwt>
<pdfrwt beam="1">  1       -3 0.77764796E-03 0.97363703E+02</pdfrwt>
<totfact> 0.15564353E+04</totfact>
</mgrwt>
</event>
<event>
 7    1  0.1247599E-009  0.8882037E+02  0.7818608E-02  0.1305734E+00
         -3   -1    0    0    0  501 -0.00000000000E+00  0.00000000000E+00  0.17836275041E+02  0.17836561001E+02  0.10100000000E+00 0.  1.
          3   -1    0    0  501    0  0.00000000000E+00 -0.00000000000E+00 -0.11057482538E+03  0.11057487151E+03  0.10100000000E+00 0. -1.
         23    2    1    2    0    0  0.35527136788E-14  0.88817841970E-15 -0.92738550344E+02  0.12841143251E+03  0.88820365232E+02 0.  0.
    9000005    2    3    3    0    0  0.30556093469E+02  0.70747565815E+01 -0.19207848161E+01  0.32330250357E+02  0.76045147824E+01 0.  0.
         22    1    3    3    0    0 -0.30556093469E+02 -0.70747565815E+01 -0.90817765528E+02  0.96081182155E+02  0.00000000000E+00 0. -1.
         22    1    4    4    0    0  0.30618361627E+02  0.60264025001E+01 -0.20449922340E+01  0.31272729159E+02  0.00000000000E+00 0. -1.
         22    1    4    4    0    0 -0.62268157314E-01  0.10483540814E+01  0.12420741788E+00  0.10575211989E+01  0.00000000000E+00 0. -1.
<mgrwt>
<rscale>  0 0.88820365E+02</rscale>
<asrwt>0</asrwt>
<pdfrwt beam="2">  1        3 0.17011537E-01 0.88820365E+02</pdfrwt>
<pdfrwt beam="1">  1       -3 0.27440679E-02 0.88820365E+02</pdfrwt>
<totfact> 0.35079418E+04</totfact>
</mgrwt>
</event>
<event>
 7    1  0.1247599E-009  0.9064526E+02  0.7818608E-02  0.1301297E+00
         -3   -1    0    0    0  501 -0.00000000000E+00  0.00000000000E+00  0.39167778885E+03  0.39167780187E+03  0.10100000000E+00 0.  1.
          3   -1    0    0  501    0  0.00000000000E+00 -0.00000000000E+00 -0.52439660916E+01  0.52449386431E+01  0.10100000000E+00 0. -1.
         23    2    1    2    0    0  0.71054273576E-14 -0.17763568394E-14  0.38643382276E+03  0.39692274051E+03  0.90645256723E+02 0.  0.
    9000005    2    3    3    0    0 -0.43831490294E+02  0.89659510729E+01  0.21351163883E+03  0.21830675715E+03  0.83085787006E+01 0.  0.
         22    1    3    3    0    0  0.43831490294E+02 -0.89659510729E+01  0.17292218392E+03  0.17861598336E+03  0.00000000000E+00 0.  1.
         22    1    4    4    0    0 -0.16521855034E+02  0.67221558582E+00  0.64459182697E+02  0.66546298180E+02  0.00000000000E+00 0.  1.
         22    1    4    4    0    0 -0.27309635260E+02  0.82937354871E+01  0.14905245614E+03  0.15176045897E+03  0.00000000000E+00 0.  1.
<mgrwt>
<rscale>  0 0.90645257E+02</rscale>
<asrwt>0</asrwt>
<pdfrwt beam="2">  1        3 0.80683967E-03 0.90645257E+02</pdfrwt>
<pdfrwt beam="1">  1       -3 0.60258209E-01 0.90645257E+02</pdfrwt>
<totfact> 0.21019478E+04</totfact>
</mgrwt>
</event>
<event>
 7    1  0.1247599E-009  0.9069491E+02  0.7818608E-02  0.1301178E+00
          3   -1    0    0  501    0  0.00000000000E+00  0.00000000000E+00  0.49162367888E+02  0.49162471636E+02  0.10100000000E+00 0. -1.
         -3   -1    0    0    0  501 -0.00000000000E+00 -0.00000000000E+00 -0.41828362831E+02  0.41828484770E+02  0.10100000000E+00 0.  1.
         23    2    1    2    0    0  0.00000000000E+00  0.00000000000E+00  0.73340050569E+01  0.90990956406E+02  0.90694908995E+02 0.  0.
    9000005    2    3    3    0    0 -0.18891240741E+02  0.16432960874E+02  0.40338397081E+02  0.49563778459E+02  0.14228867707E+02 0.  0.
         22    1    3    3    0    0  0.18891240741E+02 -0.16432960874E+02 -0.33004392024E+02  0.41427177948E+02  0.00000000000E+00 0.  1.
         22    1    4    4    0    0 -0.13298703421E+02  0.15876683512E+02  0.21282071623E+02  0.29695978929E+02  0.00000000000E+00 0.  1.
         22    1    4    4    0    0 -0.55925373200E+01  0.55627736269E+00  0.19056325458E+02  0.19867799529E+02  0.00000000000E+00 0.  1.
<mgrwt>
<rscale>  0 0.90694909E+02</rscale>
<asrwt>0</asrwt>
<pdfrwt beam="1">  1        3 0.75634586E-02 0.90694909E+02</pdfrwt>
<pdfrwt beam="2">  1       -3 0.64351501E-02 0.90694909E+02</pdfrwt>
<totfact> 0.35866688E+04</totfact>
</mgrwt>
</event>
<event>
 7    1  0.1247599E-009  0.6221781E+02  0.7818608E-02  0.1388753E+00
         -3   -1    0    0    0  501 -0.00000000000E+00  0.00000000000E+00  0.17813845354E+02  0.17814131674E+02  0.10100000000E+00 0.  1.
          3   -1    0    0  501    0  0.00000000000E+00 -0.00000000000E+00 -0.54325737997E+02  0.54325831885E+02  0.10100000000E+00 0. -1.
         23    2    1    2    0    0  0.00000000000E+00 -0.88817841970E-15 -0.36511892644E+02  0.72139963558E+02  0.62217811258E+02 0.  0.
    9000005    2    3    3    0    0 -0.12812276556E+02  0.55680360348E+01  0.10543511034E+02  0.23054645273E+02  0.15006451543E+02 0.  0.
         22    1    3    3    0    0  0.12812276556E+02 -0.55680360348E+01 -0.47055403678E+02  0.49085318285E+02  0.00000000000E+00 0. -1.
         22    1    4    4    0    0  0.11865879288E+01  0.63539257961E+01  0.37765176793E+01  0.74861505273E+01  0.00000000000E+00 0. -1.
         22    1    4    4    0    0 -0.13998864485E+02 -0.78588976132E+00  0.67669933551E+01  0.15568494746E+02  0.00000000000E+00 0. -1.
<mgrwt>
<rscale>  0 0.62217811E+02</rscale>
<asrwt>0</asrwt>
<pdfrwt beam="2">  1        3 0.83578350E-02 0.62217811E+02</pdfrwt>
<pdfrwt beam="1">  1       -3 0.27406209E-02 0.62217811E+02</pdfrwt>
<totfact> 0.10206706E+05</totfact>
</mgrwt>
</event>
<event>
 7    1  0.1247599E-009  0.8368941E+02  0.7818608E-02  0.1318896E+00
          3   -1    0    0  501    0  0.00000000000E+00  0.00000000000E+00  0.17655464011E+02  0.17655752899E+02  0.10100000000E+00 0. -1.
         -3   -1    0    0    0  501 -0.00000000000E+00 -0.00000000000E+00 -0.99173791403E+02  0.99173842833E+02  0.10100000000E+00 0.  1.
         23    2    1    2    0    0  0.00000000000E+00  0.00000000000E+00 -0.81518327392E+02  0.11682959573E+03  0.83689406368E+02 0.  0.
    9000005    2    3    3    0    0  0.18688745875E+02 -0.33420635894E+02 -0.17553230102E+02  0.42279332169E+02  0.36356451623E+01 0.  0.
         22    1    3    3    0    0 -0.18688745875E+02  0.33420635894E+02 -0.63965097291E+02  0.74550263563E+02  0.00000000000E+00 0.  1.
         22    1    4    4    0    0  0.15085425799E+02 -0.26154085944E+02 -0.12219278830E+02  0.32571721757E+02  0.00000000000E+00 0.  1.
         22    1    4    4    0    0  0.36033200761E+01 -0.72665499506E+01 -0.53339512719E+01  0.97076104128E+01  0.00000000000E+00 0.  1.
<mgrwt>
<rscale>  0 0.83689406E+02</rscale>
<asrwt>0</asrwt>
<pdfrwt beam="1">  1        3 0.27162515E-02 0.83689406E+02</pdfrwt>
<pdfrwt beam="2">  1       -3 0.15257532E-01 0.83689406E+02</pdfrwt>
<totfact> 0.42175595E+04</totfact>
</mgrwt>
</event>
<event>
 7    1  0.1247599E-009  0.9060257E+02  0.7818608E-02  0.1301399E+00
         -3   -1    0    0    0  501 -0.00000000000E+00  0.00000000000E+00  0.48512065353E+02  0.48512170492E+02  0.10100000000E+00 0.  1.
          3   -1    0    0  501    0  0.00000000000E+00 -0.00000000000E+00 -0.42302795481E+02  0.42302916052E+02  0.10100000000E+00 0. -1.
         23    2    1    2    0    0 -0.44408920985E-15  0.00000000000E+00  0.62092698722E+01  0.90815086544E+02  0.90602565701E+02 0.  0.
    9000005    2    3    3    0    0  0.34365280861E+01 -0.41024016503E+02  0.19515405718E+02  0.47550402256E+02  0.13616535500E+02 0.  0.
         22    1    3    3    0    0 -0.34365280861E+01  0.41024016503E+02 -0.13306135846E+02  0.43264684288E+02  0.00000000000E+00 0. -1.
         22    1    4    4    0    0  0.47028749304E+01 -0.26531955952E+02  0.58119505396E+01  0.27565204304E+02  0.00000000000E+00 0. -1.
         22    1    4    4    0    0 -0.12663468443E+01 -0.14492060552E+02  0.13703455179E+02  0.19985197952E+02  0.00000000000E+00 0. -1.
<mgrwt>
<rscale>  0 0.90602566E+02</rscale>
<asrwt>0</asrwt>
<pdfrwt beam="2">  1        3 0.65081397E-02 0.90602566E+02</pdfrwt>
<pdfrwt beam="1">  1       -3 0.74634120E-02 0.90602566E+02</pdfrwt>
<totfact> 0.35980129E+04</totfact>
</mgrwt>
</event>
<event>
 7    1  0.1247599E-009  0.9141068E+02  0.7818608E-02  0.1299471E+00
          3   -1    0    0  501    0  0.00000000000E+00  0.00000000000E+00  0.15149793300E+02  0.15150129968E+02  0.10100000000E+00 0. -1.
         -3   -1    0    0    0  501 -0.00000000000E+00 -0.00000000000E+00 -0.13788632789E+03  0.13788636488E+03  0.10100000000E+00 0.  1.
         23    2    1    2    0    0  0.00000000000E+00  0.00000000000E+00 -0.12273653459E+03  0.15303649485E+03  0.91410676797E+02 0.  0.
    9000005    2    3    3    0    0 -0.80718679084E+01  0.21988793220E+02  0.43797633458E+00  0.27654589374E+02  0.14694298601E+02 0.  0.
         22    1    3    3    0    0  0.80718679084E+01 -0.21988793220E+02 -0.12317451093E+03  0.12538190548E+03  0.00000000000E+00 0.  1.
         22    1    4    4    0    0 -0.12359870874E+02  0.16595922028E+02 -0.51475865231E+00  0.20699179029E+02  0.00000000000E+00 0. -1.
         22    1    4    4    0    0  0.42880029652E+01  0.53928711920E+01  0.95273498689E+00  0.69554103458E+01  0.00000000000E+00 0. -1.
<mgrwt>
<rscale>  0 0.91410677E+02</rscale>
<asrwt>0</asrwt>
<pdfrwt beam="1">  1        3 0.23307663E-02 0.91410677E+02</pdfrwt>
<pdfrwt beam="2">  1       -3 0.21213309E-01 0.91410677E+02</pdfrwt>
<totfact> 0.30907809E+04</totfact>
</mgrwt>
</event>
<event>
 7    1  0.1247599E-009  0.9309562E+02  0.7818608E-02  0.1295524E+00
          3   -1    0    0  501    0  0.00000000000E+00  0.00000000000E+00  0.59939023995E+01  0.59947532872E+01  0.10100000000E+00 0. -1.
         -3   -1    0    0    0  501 -0.00000000000E+00 -0.00000000000E+00 -0.36145726057E+03  0.36145727468E+03  0.10100000000E+00 0.  1.
         23    2    1    2    0    0  0.00000000000E+00  0.00000000000E+00 -0.35546335817E+03  0.36745202797E+03  0.93095616739E+02 0.  0.
    9000005    2    3    3    0    0  0.20061110049E+02  0.38256469586E+02 -0.11427679516E+03  0.12242761331E+03  0.79579511977E+01 0.  0.
         22    1    3    3    0    0 -0.20061110049E+02 -0.38256469586E+02 -0.24118656301E+03  0.24502441466E+03  0.00000000000E+00 0.  1.
         22    1    4    4    0    0  0.94621199089E+01  0.13810791916E+02 -0.35104558141E+02  0.38892154592E+02  0.00000000000E+00 0.  1.
         22    1    4    4    0    0  0.10598990140E+02  0.24445677670E+02 -0.79172237020E+02  0.83535458719E+02  0.00000000000E+00 0.  1.
<mgrwt>
<rscale>  0 0.93095617E+02</rscale>
<asrwt>0</asrwt>
<pdfrwt beam="1">  1        3 0.92220565E-03 0.93095617E+02</pdfrwt>
<pdfrwt beam="2">  1       -3 0.55608859E-01 0.93095617E+02</pdfrwt>
<totfact> 0.20448128E+04</totfact>
</mgrwt>
</event>
<event>
 7    1  0.1247599E-009  0.8601473E+02  0.7818608E-02  0.1312800E+00
         -3   -1    0    0    0  501 -0.00000000000E+00  0.00000000000E+00  0.18035820126E+03  0.18035822954E+03  0.10100000000E+00 0.  1.
          3   -1    0    0  501    0  0.00000000000E+00 -0.00000000000E+00 -0.10255056536E+02  0.10255553889E+02  0.10100000000E+00 0. -1.
         23    2    1    2    0    0  0.66613381478E-15  0.00000000000E+00  0.17010314473E+03  0.19061378343E+03  0.86014734715E+02 0.  0.
    9000005    2    3    3    0    0 -0.17337982813E+01  0.37378251623E+02  0.44078132625E+02  0.59151076073E+02  0.12483119561E+02 0.  0.
         22    1    3    3    0    0  0.17337982813E+01 -0.37378251623E+02  0.12602501210E+03  0.13146270736E+03  0.00000000000E+00 0.  1.
         22    1    4    4    0    0 -0.42901200632E+01  0.32765422928E+02  0.32127670436E+02  0.46088667560E+02  0.00000000000E+00 0. -1.
         22    1    4    4    0    0  0.25563217820E+01  0.46128286949E+01  0.11950462189E+02  0.13062408513E+02  0.00000000000E+00 0. -1.
<mgrwt>
<rscale>  0 0.86014735E+02</rscale>
<asrwt>0</asrwt>
<pdfrwt beam="2">  1        3 0.15777416E-02 0.86014735E+02</pdfrwt>
<pdfrwt beam="1">  1       -3 0.27747454E-01 0.86014735E+02</pdfrwt>
<totfact> 0.33905041E+04</totfact>
</mgrwt>
</event>
<event>
 7    1  0.1247599E-009  0.9109048E+02  0.7818608E-02  0.1300232E+00
         -3   -1    0    0    0  501 -0.00000000000E+00  0.00000000000E+00  0.71431865261E+02  0.71431936664E+02  0.10100000000E+00 0.  1.
          3   -1    0    0  501    0  0.00000000000E+00 -0.00000000000E+00 -0.29039649030E+02  0.29039824669E+02  0.10100000000E+00 0. -1.
         23    2    1    2    0    0 -0.35527136788E-14  0.00000000000E+00  0.42392216230E+02  0.10047176133E+03  0.91090476058E+02 0.  0.
    9000005    2    3    3    0    0 -0.25528984289E+02  0.27296383911E+02  0.48503064556E+02  0.62601402466E+02  0.13021778141E+02 0.  0.
         22    1    3    3    0    0  0.25528984289E+02 -0.27296383911E+02 -0.61108483257E+01  0.37870358867E+02  0.00000000000E+00 0. -1.
         22    1    4    4    0    0 -0.19951488316E+02  0.25403040969E+02  0.33752830616E+02  0.46718625313E+02  0.00000000000E+00 0. -1.
         22    1    4    4    0    0 -0.55774959735E+01  0.18933429419E+01  0.14750233940E+02  0.15882777153E+02  0.00000000000E+00 0. -1.
<mgrwt>
<rscale>  0 0.91090476E+02</rscale>
<asrwt>0</asrwt>
<pdfrwt beam="2">  1        3 0.44676573E-02 0.91090476E+02</pdfrwt>
<pdfrwt beam="1">  1       -3 0.10989537E-01 0.91090476E+02</pdfrwt>
<totfact> 0.34727079E+04</totfact>
</mgrwt>
</event>
<event>
 7    1  0.1247599E-009  0.9021995E+02  0.7818608E-02  0.1302320E+00
         -3   -1    0    0    0  501 -0.00000000000E+00  0.00000000000E+00  0.20380912920E+02  0.20381163177E+02  0.10100000000E+00 0.  1.
          3   -1    0    0  501    0  0.00000000000E+00 -0.00000000000E+00 -0.99843021842E+02  0.99843072927E+02  0.10100000000E+00 0. -1.
         23    2    1    2    0    0 -0.35527136788E-14  0.00000000000E+00 -0.79462108922E+02  0.12022423610E+03  0.90219954514E+02 0.  0.
    9000005    2    3    3    0    0 -0.27034540013E+02 -0.13461860159E+02 -0.83058380165E+02  0.89810074937E+02  0.15970817509E+02 0.  0.
         22    1    3    3    0    0  0.27034540013E+02  0.13461860159E+02  0.35962712431E+01  0.30414161167E+02  0.00000000000E+00 0.  1.
         22    1    4    4    0    0  0.10067604261E+01 -0.46653847524E+01 -0.11963964719E+02  0.12880832009E+02  0.00000000000E+00 0.  1.
         22    1    4    4    0    0 -0.28041300439E+02 -0.87964754066E+01 -0.71094415446E+02  0.76929242928E+02  0.00000000000E+00 0.  1.
<mgrwt>
<rscale>  0 0.90219955E+02</rscale>
<asrwt>0</asrwt>
<pdfrwt beam="2">  1        3 0.15360488E-01 0.90219955E+02</pdfrwt>
<pdfrwt beam="1">  1       -3 0.31355483E-02 0.90219955E+02</pdfrwt>
<totfact> 0.34195047E+04</totfact>
</mgrwt>
</event>
<event>
 7    1  0.1247599E-009  0.9250454E+02  0.7818608E-02  0.1296897E+00
          3   -1    0    0  501    0  0.00000000000E+00  0.00000000000E+00  0.51447665482E+02  0.51447764622E+02  0.10100000000E+00 0. -1.
         -3   -1    0    0    0  501 -0.00000000000E+00 -0.00000000000E+00 -0.41581326325E+02  0.41581448988E+02  0.10100000000E+00 0.  1.
         23    2    1    2    0    0 -0.88817841970E-15  0.35527136788E-14  0.98663391570E+01  0.93029213610E+02  0.92504540086E+02 0.  0.
    9000005    2    3    3    0    0  0.53992344378E+01 -0.27919771335E+02  0.40741121619E+02  0.51054011931E+02  0.11747671237E+02 0.  0.
         22    1    3    3    0    0 -0.53992344378E+01  0.27919771335E+02 -0.30874782462E+02  0.41975201679E+02  0.00000000000E+00 0.  1.
         22    1    4    4    0    0 -0.26019501864E+01 -0.42653165882E+01  0.11890836011E+02  0.12897870034E+02  0.00000000000E+00 0.  1.
         22    1    4    4    0    0  0.80011846243E+01 -0.23654454746E+02  0.28850285608E+02  0.38156141897E+02  0.00000000000E+00 0.  1.
<mgrwt>
<rscale>  0 0.92504540E+02</rscale>
<asrwt>0</asrwt>
<pdfrwt beam="1">  1        3 0.79150425E-02 0.92504540E+02</pdfrwt>
<pdfrwt beam="2">  1       -3 0.63971442E-02 0.92504540E+02</pdfrwt>
<totfact> 0.33834251E+04</totfact>
</mgrwt>
</event>
<event>
 7    1  0.1247599E-009  0.9199304E+02  0.7818608E-02  0.1298096E+00
          3   -1    0    0  501    0  0.00000000000E+00  0.00000000000E+00  0.52704485671E+02  0.52704582446E+02  0.10100000000E+00 0. -1.
         -3   -1    0    0    0  501 -0.00000000000E+00 -0.00000000000E+00 -0.40142110575E+02  0.40142237636E+02  0.10100000000E+00 0.  1.
         23    2    1    2    0    0  0.17763568394E-14  0.00000000000E+00  0.12562375095E+02  0.92846820082E+02  0.91993036320E+02 0.  0.
    9000005    2    3    3    0    0 -0.10323552422E+02 -0.30944520007E+02  0.38136921604E+02  0.51395686417E+02  0.11088405645E+02 0.  0.
         22    1    3    3    0    0  0.10323552422E+02  0.30944520007E+02 -0.25574546508E+02  0.41451133666E+02  0.00000000000E+00 0.  1.
         22    1    4    4    0    0 -0.10301786876E+02 -0.16783167398E+02  0.26789994857E+02  0.33249140518E+02  0.00000000000E+00 0.  1.
         22    1    4    4    0    0 -0.21765546117E-01 -0.14161352609E+02  0.11346926746E+02  0.18146545898E+02  0.00000000000E+00 0.  1.
<mgrwt>
<rscale>  0 0.91993036E+02</rscale>
<asrwt>0</asrwt>
<pdfrwt beam="1">  1        3 0.81083996E-02 0.91993036E+02</pdfrwt>
<pdfrwt beam="2">  1       -3 0.61757266E-02 0.91993036E+02</pdfrwt>
<totfact> 0.34364561E+04</totfact>
</mgrwt>
</event>
<event>
 7    1  0.1247599E-009  0.9030173E+02  0.7818608E-02  0.1302123E+00
          3   -1    0    0  501    0  0.00000000000E+00  0.00000000000E+00  0.68770970611E+02  0.68771044778E+02  0.10100000000E+00 0. -1.
         -3   -1    0    0    0  501 -0.00000000000E+00 -0.00000000000E+00 -0.29643154185E+02  0.29643326248E+02  0.10100000000E+00 0.  1.
         23    2    1    2    0    0  0.00000000000E+00  0.00000000000E+00  0.39127816427E+02  0.98414371026E+02  0.90301729806E+02 0.  0.
    9000005    2    3    3    0    0 -0.23008855209E+02 -0.12278449848E+02 -0.20220656811E+02  0.33588380679E+02  0.62559256745E+01 0.  0.
         22    1    3    3    0    0  0.23008855209E+02  0.12278449848E+02  0.59348473238E+02  0.64825990346E+02  0.00000000000E+00 0. -1.
         22    1    4    4    0    0 -0.19546375797E+02 -0.12285670683E+02 -0.15811468806E+02  0.27982156042E+02  0.00000000000E+00 0.  1.
         22    1    4    4    0    0 -0.34624794121E+01  0.72208346207E-02 -0.44091880054E+01  0.56062246375E+01  0.00000000000E+00 0.  1.
<mgrwt>
<rscale>  0 0.90301730E+02</rscale>
<asrwt>0</asrwt>
<pdfrwt beam="1">  1        3 0.10580168E-01 0.90301730E+02</pdfrwt>
<pdfrwt beam="2">  1       -3 0.45605042E-02 0.90301730E+02</pdfrwt>
<totfact> 0.35712801E+04</totfact>
</mgrwt>
</event>
<event>
 7    1  0.1247599E-009  0.9016209E+02  0.7818608E-02  0.1302460E+00
         -3   -1    0    0    0  501 -0.00000000000E+00  0.00000000000E+00  0.10099519899E+03  0.10099524949E+03  0.10100000000E+00 0.  1.
          3   -1    0    0  501    0  0.00000000000E+00 -0.00000000000E+00 -0.20122564042E+02  0.20122817512E+02  0.10100000000E+00 0. -1.
         23    2    1    2    0    0  0.00000000000E+00  0.00000000000E+00  0.80872634943E+02  0.12111806700E+03  0.90162093316E+02 0.  0.
    9000005    2    3    3    0    0  0.28021139277E+02  0.50111412457E+01  0.86330800373E+02  0.92133806567E+02  0.15011177051E+02 0.  0.
         22    1    3    3    0    0 -0.28021139277E+02 -0.50111412457E+01 -0.54581654302E+01  0.28984260433E+02  0.00000000000E+00 0. -1.
         22    1    4    4    0    0  0.23600425625E+02  0.25976272034E+01  0.48830976560E+02  0.54297256179E+02  0.00000000000E+00 0. -1.
         22    1    4    4    0    0  0.44207136518E+01  0.24135140423E+01  0.37499823813E+02  0.37836550388E+02  0.00000000000E+00 0. -1.
<mgrwt>
<rscale>  0 0.90162093E+02</rscale>
<asrwt>0</asrwt>
<pdfrwt beam="2">  1        3 0.30958024E-02 0.90162093E+02</pdfrwt>
<pdfrwt beam="1">  1       -3 0.15537747E-01 0.90162093E+02</pdfrwt>
<totfact> 0.34193401E+04</totfact>
</mgrwt>
</event>
<event>
 7    1  0.1476488E-009  0.8935077E+02  0.7818608E-02  0.1304432E+00
          3   -1    0    0  501    0  0.00000000000E+00  0.00000000000E+00  0.22282725807E+02  0.22282954705E+02  0.10100000000E+00 0. -1.
         -3   -1    0    0    0  501 -0.00000000000E+00 -0.00000000000E+00 -0.89570466742E+02  0.89570523686E+02  0.10100000000E+00 0.  1.
         23    2    1    2    0    0  0.00000000000E+00  0.88817841970E-15 -0.67287740935E+02  0.11185347839E+03  0.89350772509E+02 0.  0.
    9000005    2    3    3    0    0  0.12470194665E+02  0.74001360305E+01  0.17919470676E+02  0.25421211969E+02  0.10717407356E+02 0.  0.
         22    1    3    3    0    0 -0.12470194665E+02 -0.74001360305E+01 -0.85207211611E+02  0.86432266422E+02  0.00000000000E+00 0.  1.
         22    1    4    4    0    0  0.12494494356E+02  0.26228594237E+01  0.10191459509E+02  0.16335777535E+02  0.00000000000E+00 0.  1.
         22    1    4    4    0    0 -0.24299691069E-01  0.47772766067E+01  0.77280111670E+01  0.90854344337E+01  0.00000000000E+00 0.  1.
<mgrwt>
<rscale>  0 0.89350773E+02</rscale>
<asrwt>0</asrwt>
<pdfrwt beam="1">  1        3 0.34281337E-02 0.89350773E+02</pdfrwt>
<pdfrwt beam="2">  1       -3 0.13780094E-01 0.89350773E+02</pdfrwt>
<totfact> 0.35721000E+04</totfact>
</mgrwt>
</event>
<event>
 7    1  0.1247599E-009  0.9161746E+02  0.7818608E-02  0.1298981E+00
          3   -1    0    0  501    0  0.00000000000E+00  0.00000000000E+00  0.17240945667E+03  0.17240948626E+03  0.10100000000E+00 0. -1.
         -3   -1    0    0    0  501 -0.00000000000E+00 -0.00000000000E+00 -0.12171016487E+02  0.12171435549E+02  0.10100000000E+00 0.  1.
         23    2    1    2    0    0  0.00000000000E+00  0.17763568394E-14  0.16023844018E+03  0.18458092180E+03  0.91617460024E+02 0.  0.
    9000005    2    3    3    0    0 -0.39818558312E+02 -0.12615352609E+02  0.11793747671E+03  0.12513316139E+03  0.20964156563E+01 0.  0.
         22    1    3    3    0    0  0.39818558312E+02  0.12615352609E+02  0.42300963470E+02  0.59447760412E+02  0.00000000000E+00 0.  1.
         22    1    4    4    0    0 -0.39627670276E+02 -0.12409045940E+02  0.11681864551E+03  0.12397956530E+03  0.00000000000E+00 0. -1.
         22    1    4    4    0    0 -0.19088803667E+00 -0.20630666931E+00  0.11188312029E+01  0.11535960926E+01  0.00000000000E+00 0. -1.
<mgrwt>
<rscale>  0 0.91617460E+02</rscale>
<asrwt>0</asrwt>
<pdfrwt beam="1">  1        3 0.26524567E-01 0.91617460E+02</pdfrwt>
<pdfrwt beam="2">  1       -3 0.18724986E-02 0.91617460E+02</pdfrwt>
<totfact> 0.28935707E+04</totfact>
</mgrwt>
</event>
<event>
 7    1  0.1247599E-009  0.9097151E+02  0.7818608E-02  0.1300516E+00
          3   -1    0    0  501    0  0.00000000000E+00  0.00000000000E+00  0.34511939765E+02  0.34512087554E+02  0.10100000000E+00 0. -1.
         -3   -1    0    0    0  501 -0.00000000000E+00 -0.00000000000E+00 -0.59948612488E+02  0.59948697569E+02  0.10100000000E+00 0.  1.
         23    2    1    2    0    0  0.00000000000E+00  0.00000000000E+00 -0.25436672723E+02  0.94460785123E+02  0.90971509863E+02 0.  0.
    9000005    2    3    3    0    0 -0.24741623800E+02 -0.20403541767E+02 -0.44749200640E+02  0.57025157714E+02  0.14863552384E+02 0.  0.
         22    1    3    3    0    0  0.24741623800E+02  0.20403541767E+02  0.19312527917E+02  0.37435627409E+02  0.00000000000E+00 0. -1.
         22    1    4    4    0    0 -0.91502636425E+01 -0.17114748224E+02 -0.25041312036E+02  0.31681370551E+02  0.00000000000E+00 0. -1.
         22    1    4    4    0    0 -0.15591360158E+02 -0.32887935431E+01 -0.19707888603E+02  0.25343787163E+02  0.00000000000E+00 0. -1.
<mgrwt>
<rscale>  0 0.90971510E+02</rscale>
<asrwt>0</asrwt>
<pdfrwt beam="1">  1        3 0.53095471E-02 0.90971510E+02</pdfrwt>
<pdfrwt beam="2">  1       -3 0.92228814E-02 0.90971510E+02</pdfrwt>
<totfact> 0.35304553E+04</totfact>
</mgrwt>
</event>
<event>
 7    1  0.1247599E-009  0.9344793E+02  0.7818608E-02  0.1294710E+00
          3   -1    0    0  501    0  0.00000000000E+00  0.00000000000E+00  0.24153775549E+03  0.24153777661E+03  0.10100000000E+00 0. -1.
         -3   -1    0    0    0  501 -0.00000000000E+00 -0.00000000000E+00 -0.90381539983E+01  0.90387183105E+01  0.10100000000E+00 0.  1.
         23    2    1    2    0    0  0.00000000000E+00  0.00000000000E+00  0.23249960149E+03  0.25057649492E+03  0.93447927271E+02 0.  0.
    9000005    2    3    3    0    0 -0.29477411261E+02  0.31971886793E+02  0.77951286461E+02  0.90026499593E+02  0.11715299755E+02 0.  0.
         22    1    3    3    0    0  0.29477411261E+02 -0.31971886793E+02  0.15454831503E+03  0.16054999533E+03  0.00000000000E+00 0. -1.
         22    1    4    4    0    0 -0.99379017011E+01  0.17446738721E+02  0.27970602814E+02  0.34431166173E+02  0.00000000000E+00 0. -1.
         22    1    4    4    0    0 -0.19539509559E+02  0.14525148072E+02  0.49980683647E+02  0.55595333420E+02  0.00000000000E+00 0. -1.
<mgrwt>
<rscale>  0 0.93447927E+02</rscale>
<asrwt>0</asrwt>
<pdfrwt beam="1">  1        3 0.37159696E-01 0.93447927E+02</pdfrwt>
<pdfrwt beam="2">  1       -3 0.13905304E-02 0.93447927E+02</pdfrwt>
<totfact> 0.24403750E+04</totfact>
</mgrwt>
</event>
<event>
 7    1  0.1247599E-009  0.8979563E+02  0.7818608E-02  0.1303347E+00
          3   -1    0    0  501    0  0.00000000000E+00  0.00000000000E+00  0.10323269959E+03  0.10323274900E+03  0.10100000000E+00 0. -1.
         -3   -1    0    0    0  501 -0.00000000000E+00 -0.00000000000E+00 -0.19526708399E+02  0.19526969603E+02  0.10100000000E+00 0.  1.
         23    2    1    2    0    0  0.00000000000E+00  0.00000000000E+00  0.83705991190E+02  0.12275971860E+03  0.89795632130E+02 0.  0.
    9000005    2    3    3    0    0  0.26840437409E+01 -0.42653592357E+02  0.23433966309E+02  0.48872980852E+02  0.35894914243E+01 0.  0.
         22    1    3    3    0    0 -0.26840437409E+01  0.42653592357E+02  0.60272024882E+02  0.73886737748E+02  0.00000000000E+00 0. -1.
         22    1    4    4    0    0  0.22197209439E+01 -0.40742242855E+02  0.23068722716E+02  0.46872417067E+02  0.00000000000E+00 0. -1.
         22    1    4    4    0    0  0.46432279700E+00 -0.19113495012E+01  0.36524359226E+00  0.20005637849E+01  0.00000000000E+00 0. -1.
<mgrwt>
<rscale>  0 0.89795632E+02</rscale>
<asrwt>0</asrwt>
<pdfrwt beam="1">  1        3 0.15881978E-01 0.89795632E+02</pdfrwt>
<pdfrwt beam="2">  1       -3 0.30041328E-02 0.89795632E+02</pdfrwt>
<totfact> 0.34454292E+04</totfact>
</mgrwt>
</event>
<event>
 7    1  0.1247599E-009  0.9246355E+02  0.7818608E-02  0.1296993E+00
          3   -1    0    0  501    0  0.00000000000E+00  0.00000000000E+00  0.64373249298E+01  0.64381172132E+01  0.10100000000E+00 0. -1.
         -3   -1    0    0    0  501 -0.00000000000E+00 -0.00000000000E+00 -0.33200751746E+03  0.33200753282E+03  0.10100000000E+00 0.  1.
         23    2    1    2    0    0  0.00000000000E+00  0.00000000000E+00 -0.32557019253E+03  0.33844565004E+03  0.92463548299E+02 0.  0.
    9000005    2    3    3    0    0 -0.34805324745E+02  0.24938278807E+02 -0.11465166833E+03  0.12322494417E+03  0.14354561493E+02 0.  0.
         22    1    3    3    0    0  0.34805324745E+02 -0.24938278807E+02 -0.21091852420E+03  0.21522070586E+03  0.00000000000E+00 0.  1.
         22    1    4    4    0    0 -0.15794365043E+02  0.16470624646E+02 -0.43911963175E+02  0.49487412069E+02  0.00000000000E+00 0. -1.
         22    1    4    4    0    0 -0.19010959701E+02  0.84676541610E+01 -0.70739705154E+02  0.73737532106E+02  0.00000000000E+00 0. -1.
<mgrwt>
<rscale>  0 0.92463548E+02</rscale>
<asrwt>0</asrwt>
<pdfrwt beam="1">  1        3 0.99042006E-03 0.92463548E+02</pdfrwt>
<pdfrwt beam="2">  1       -3 0.51078129E-01 0.92463548E+02</pdfrwt>
<totfact> 0.21770820E+04</totfact>
</mgrwt>
</event>
<event>
 7    1  0.1247599E-009  0.9075249E+02  0.7818608E-02  0.1301040E+00
          3   -1    0    0  501    0  0.00000000000E+00  0.00000000000E+00  0.22660920160E+03  0.22660922411E+03  0.10100000000E+00 0. -1.
         -3   -1    0    0    0  501 -0.00000000000E+00 -0.00000000000E+00 -0.90858390232E+01  0.90864003740E+01  0.10100000000E+00 0.  1.
         23    2    1    2    0    0  0.00000000000E+00  0.00000000000E+00  0.21752336257E+03  0.23569562448E+03  0.90752488302E+02 0.  0.
    9000005    2    3    3    0    0 -0.25523619158E+02  0.43749733891E+01  0.20536130965E+03  0.20708599221E+03  0.63831921664E+01 0.  0.
         22    1    3    3    0    0  0.25523619158E+02 -0.43749733891E+01  0.12162052923E+02  0.28609632266E+02  0.00000000000E+00 0.  1.
         22    1    4    4    0    0 -0.15604755846E+02  0.47319628350E+01  0.10867199957E+03  0.10988859526E+03  0.00000000000E+00 0.  1.
         22    1    4    4    0    0 -0.99188633124E+01 -0.35698944589E+00  0.96689310079E+02  0.97197396953E+02  0.00000000000E+00 0.  1.
<mgrwt>
<rscale>  0 0.90752488E+02</rscale>
<asrwt>0</asrwt>
<pdfrwt beam="1">  1        3 0.34862997E-01 0.90752488E+02</pdfrwt>
<pdfrwt beam="2">  1       -3 0.13978664E-02 0.90752488E+02</pdfrwt>
<totfact> 0.27090372E+04</totfact>
</mgrwt>
</event>
<event>
 7    1  0.1247599E-009  0.1244697E+03  0.7818608E-02  0.1235900E+00
         -3   -1    0    0    0  501 -0.00000000000E+00  0.00000000000E+00  0.26890231573E+02  0.26890421251E+02  0.10100000000E+00 0.  1.
          3   -1    0    0  501    0  0.00000000000E+00 -0.00000000000E+00 -0.14403581930E+03  0.14403585471E+03  0.10100000000E+00 0. -1.
         23    2    1    2    0    0  0.44408920985E-15  0.71054273576E-14 -0.11714558773E+03  0.17092627596E+03  0.12446968743E+03 0.  0.
    9000005    2    3    3    0    0 -0.28053998032E+01  0.61289661035E+02 -0.62471459428E+02  0.88746271561E+02  0.14454226201E+02 0.  0.
         22    1    3    3    0    0  0.28053998032E+01 -0.61289661035E+02 -0.54674128297E+02  0.82180004399E+02  0.00000000000E+00 0. -1.
         22    1    4    4    0    0  0.13047583633E+01  0.45750900089E+02 -0.53245514260E+02  0.70213474791E+02  0.00000000000E+00 0.  1.
         22    1    4    4    0    0 -0.41101581666E+01  0.15538760946E+02 -0.92259451674E+01  0.18532796770E+02  0.00000000000E+00 0.  1.
<mgrwt>
<rscale>  0 0.12446969E+03</rscale>
<asrwt>0</asrwt>
<pdfrwt beam="2">  1        3 0.22159374E-01 0.12446969E+03</pdfrwt>
<pdfrwt beam="1">  1       -3 0.41369761E-02 0.12446969E+03</pdfrwt>
<totfact> 0.12750635E+04</totfact>
</mgrwt>
</event>
<event>
 7    1  0.1247599E-009  0.9092713E+02  0.7818608E-02  0.1300622E+00
         -3   -1    0    0    0  501 -0.00000000000E+00  0.00000000000E+00  0.50891729582E+02  0.50891829804E+02  0.10100000000E+00 0.  1.
          3   -1    0    0  501    0  0.00000000000E+00 -0.00000000000E+00 -0.40614172453E+02  0.40614298037E+02  0.10100000000E+00 0. -1.
         23    2    1    2    0    0  0.00000000000E+00  0.00000000000E+00  0.10277557129E+02  0.91506127841E+02  0.90927131550E+02 0.  0.
    9000005    2    3    3    0    0  0.29242054464E+02  0.32258503723E+02 -0.51716856900E+01  0.45306691531E+02  0.11412324605E+02 0.  0.
         22    1    3    3    0    0 -0.29242054464E+02 -0.32258503723E+02  0.15449242819E+02  0.46199436310E+02  0.00000000000E+00 0.  1.
         22    1    4    4    0    0  0.36004306500E+01  0.90393608828E+01 -0.44692339969E+01  0.10707343207E+02  0.00000000000E+00 0. -1.
         22    1    4    4    0    0  0.25641623814E+02  0.23219142840E+02 -0.70245169310E+00  0.34599348324E+02  0.00000000000E+00 0. -1.
<mgrwt>
<rscale>  0 0.90927132E+02</rscale>
<asrwt>0</asrwt>
<pdfrwt beam="2">  1        3 0.62483517E-02 0.90927132E+02</pdfrwt>
<pdfrwt beam="1">  1       -3 0.78295142E-02 0.90927132E+02</pdfrwt>
<totfact> 0.35578825E+04</totfact>
</mgrwt>
</event>
<event>
 7    1  0.1247599E-009  0.9177763E+02  0.7818608E-02  0.1298603E+00
          3   -1    0    0  501    0  0.00000000000E+00  0.00000000000E+00  0.79917623495E+03  0.79917624133E+03  0.10100000000E+00 0. -1.
         -3   -1    0    0    0  501 -0.00000000000E+00 -0.00000000000E+00 -0.26339682508E+01  0.26359039714E+01  0.10100000000E+00 0.  1.
         23    2    1    2    0    0 -0.71054273576E-14  0.00000000000E+00  0.79654226669E+03  0.80181214530E+03  0.91777631904E+02 0.  0.
    9000005    2    3    3    0    0 -0.38088311991E+02 -0.16134563273E+02  0.56385457168E+03  0.56547635230E+03  0.10976491290E+02 0.  0.
         22    1    3    3    0    0  0.38088311991E+02  0.16134563273E+02  0.23268769501E+03  0.23633579300E+03  0.00000000000E+00 0.  1.
         22    1    4    4    0    0 -0.13799250225E+02 -0.11390040249E+02  0.26069526218E+03  0.26130857630E+03  0.00000000000E+00 0.  1.
         22    1    4    4    0    0 -0.24289061766E+02 -0.47445230235E+01  0.30315930950E+03  0.30416777600E+03  0.00000000000E+00 0.  1.
<mgrwt>
<rscale>  0 0.91777632E+02</rscale>
<asrwt>0</asrwt>
<pdfrwt beam="1">  1        3 0.12295021E+00 0.91777632E+02</pdfrwt>
<pdfrwt beam="2">  1       -3 0.40537569E-03 0.91777632E+02</pdfrwt>
<totfact> 0.12170537E+04</totfact>
</mgrwt>
</event>
<event>
 7    1  0.1247599E-009  0.9025252E+02  0.7818608E-02  0.1302241E+00
          3   -1    0    0  501    0  0.00000000000E+00  0.00000000000E+00  0.19444048842E+03  0.19444051465E+03  0.10100000000E+00 0. -1.
         -3   -1    0    0    0  501 -0.00000000000E+00 -0.00000000000E+00 -0.10472750987E+02  0.10473238002E+02  0.10100000000E+00 0.  1.
         23    2    1    2    0    0  0.00000000000E+00  0.35527136788E-14  0.18396773743E+03  0.20491375265E+03  0.90252521352E+02 0.  0.
    9000005    2    3    3    0    0 -0.22202954454E+02 -0.20437047248E+02  0.16785496390E+03  0.17070460830E+03  0.73573296957E+01 0.  0.
         22    1    3    3    0    0  0.22202954454E+02  0.20437047248E+02  0.16112773527E+02  0.34209144355E+02  0.00000000000E+00 0.  1.
         22    1    4    4    0    0 -0.17322962351E+02 -0.14805840367E+02  0.10731765213E+03  0.10971042062E+03  0.00000000000E+00 0.  1.
         22    1    4    4    0    0 -0.48799921031E+01 -0.56312068809E+01  0.60537311772E+02  0.60994187678E+02  0.00000000000E+00 0.  1.
<mgrwt>
<rscale>  0 0.90252521E+02</rscale>
<asrwt>0</asrwt>
<pdfrwt beam="1">  1        3 0.29913961E-01 0.90252521E+02</pdfrwt>
<pdfrwt beam="2">  1       -3 0.16112319E-02 0.90252521E+02</pdfrwt>
<totfact> 0.29032137E+04</totfact>
</mgrwt>
</event>
<event>
 7    1  0.1247599E-009  0.8963215E+02  0.7818608E-02  0.1303745E+00
         -3   -1    0    0    0  501 -0.00000000000E+00  0.00000000000E+00  0.87665820028E+01  0.87671637952E+01  0.10100000000E+00 0.  1.
          3   -1    0    0  501    0  0.00000000000E+00 -0.00000000000E+00 -0.22909827709E+03  0.22909829936E+03  0.10100000000E+00 0. -1.
         23    2    1    2    0    0  0.00000000000E+00  0.00000000000E+00 -0.22033169509E+03  0.23786546315E+03  0.89632152150E+02 0.  0.
    9000005    2    3    3    0    0 -0.36157906308E+02  0.22150142448E+01 -0.17828137237E+03  0.18236293963E+03  0.12636990906E+02 0.  0.
         22    1    3    3    0    0  0.36157906308E+02 -0.22150142448E+01 -0.42050322724E+02  0.55502523527E+02  0.00000000000E+00 0.  1.
         22    1    4    4    0    0 -0.16980786700E+02  0.41686608713E+01 -0.11122303903E+03  0.11258902816E+03  0.00000000000E+00 0. -1.
         22    1    4    4    0    0 -0.19177119608E+02 -0.19536466265E+01 -0.67058333336E+02  0.69773911467E+02  0.00000000000E+00 0. -1.
<mgrwt>
<rscale>  0 0.89632152E+02</rscale>
<asrwt>0</asrwt>
<pdfrwt beam="2">  1        3 0.35245931E-01 0.89632152E+02</pdfrwt>
<pdfrwt beam="1">  1       -3 0.13487516E-02 0.89632152E+02</pdfrwt>
<totfact> 0.27903943E+04</totfact>
</mgrwt>
</event>
<event>
 7    1  0.1247599E-009  0.9108831E+02  0.7818608E-02  0.1300237E+00
         -3   -1    0    0    0  501 -0.00000000000E+00  0.00000000000E+00  0.12488454685E+02  0.12488863096E+02  0.10100000000E+00 0.  1.
          3   -1    0    0  501    0  0.00000000000E+00 -0.00000000000E+00 -0.16609188714E+03  0.16609191785E+03  0.10100000000E+00 0. -1.
         23    2    1    2    0    0  0.00000000000E+00  0.00000000000E+00 -0.15360343246E+03  0.17858078095E+03  0.91088313526E+02 0.  0.
    9000005    2    3    3    0    0  0.20694642170E+02  0.15401931114E+02 -0.15034869406E+03  0.15257922295E+03  0.31940212449E+01 0.  0.
         22    1    3    3    0    0 -0.20694642170E+02 -0.15401931114E+02 -0.32547383971E+01  0.26001558004E+02  0.00000000000E+00 0.  1.
         22    1    4    4    0    0  0.20669899112E+02  0.15312999534E+02 -0.14731422331E+03  0.14954334847E+03  0.00000000000E+00 0. -1.
         22    1    4    4    0    0  0.24743058519E-01  0.88931579713E-01 -0.30344707553E+01  0.30358744720E+01  0.00000000000E+00 0. -1.
<mgrwt>
<rscale>  0 0.91088314E+02</rscale>
<asrwt>0</asrwt>
<pdfrwt beam="2">  1        3 0.25552630E-01 0.91088314E+02</pdfrwt>
<pdfrwt beam="1">  1       -3 0.19213346E-02 0.91088314E+02</pdfrwt>
<totfact> 0.29722520E+04</totfact>
</mgrwt>
</event>
<event>
 7    1  0.1247599E-009  0.9174673E+02  0.7818608E-02  0.1298676E+00
         -3   -1    0    0    0  501 -0.00000000000E+00  0.00000000000E+00  0.44340200161E+02  0.44340315192E+02  0.10100000000E+00 0.  1.
          3   -1    0    0  501    0  0.00000000000E+00 -0.00000000000E+00 -0.47459315202E+02  0.47459422673E+02  0.10100000000E+00 0. -1.
         23    2    1    2    0    0  0.00000000000E+00 -0.35527136788E-14 -0.31191150404E+01  0.91799737865E+02  0.91746732876E+02 0.  0.
    9000005    2    3    3    0    0 -0.66495903376E+01  0.28579539581E+02 -0.36502667968E+02  0.47353492349E+02  0.69929489173E+01 0.  0.
         22    1    3    3    0    0  0.66495903376E+01 -0.28579539581E+02  0.33383552928E+02  0.44446245515E+02  0.00000000000E+00 0.  1.
         22    1    4    4    0    0 -0.60500970447E+01  0.10840515120E+02 -0.15214588048E+02  0.19636805539E+02  0.00000000000E+00 0.  1.
         22    1    4    4    0    0 -0.59949329288E+00  0.17739024461E+02 -0.21288079920E+02  0.27716686810E+02  0.00000000000E+00 0.  1.
<mgrwt>
<rscale>  0 0.91746733E+02</rscale>
<asrwt>0</asrwt>
<pdfrwt beam="2">  1        3 0.73014502E-02 0.91746733E+02</pdfrwt>
<pdfrwt beam="1">  1       -3 0.68215864E-02 0.91746733E+02</pdfrwt>
<totfact> 0.34695362E+04</totfact>
</mgrwt>
</event>
<event>
 7    1  0.1247599E-009  0.9337811E+02  0.7818608E-02  0.1294871E+00
          3   -1    0    0  501    0  0.00000000000E+00  0.00000000000E+00  0.16125124993E+03  0.16125128156E+03  0.10100000000E+00 0. -1.
         -3   -1    0    0    0  501 -0.00000000000E+00 -0.00000000000E+00 -0.13518233526E+02  0.13518610826E+02  0.10100000000E+00 0.  1.
         23    2    1    2    0    0  0.17763568394E-14  0.00000000000E+00  0.14773301640E+03  0.17476989239E+03  0.93378108511E+02 0.  0.
    9000005    2    3    3    0    0 -0.12948108683E+02  0.26038897275E+02  0.65020525401E+01  0.30576054642E+02  0.68513312896E+01 0.  0.
         22    1    3    3    0    0  0.12948108683E+02 -0.26038897275E+02  0.14123096386E+03  0.14419383774E+03  0.00000000000E+00 0. -1.
         22    1    4    4    0    0  0.50100577998E+00  0.30281912728E-01 -0.19724869708E+00  0.53928733928E+00  0.00000000000E+00 0. -1.
         22    1    4    4    0    0 -0.13449114463E+02  0.26008615362E+02  0.66993012372E+01  0.30036767302E+02  0.00000000000E+00 0. -1.
<mgrwt>
<rscale>  0 0.93378109E+02</rscale>
<asrwt>0</asrwt>
<pdfrwt beam="1">  1        3 0.24807919E-01 0.93378109E+02</pdfrwt>
<pdfrwt beam="2">  1       -3 0.20797595E-02 0.93378109E+02</pdfrwt>
<totfact> 0.27987371E+04</totfact>
</mgrwt>
</event>
<event>
 7    1  0.1247599E-009  0.9204891E+02  0.7818608E-02  0.1297964E+00
          3   -1    0    0  501    0  0.00000000000E+00  0.00000000000E+00  0.16727742379E+01  0.16758205903E+01  0.10100000000E+00 0. -1.
         -3   -1    0    0    0  501 -0.00000000000E+00 -0.00000000000E+00 -0.12651548214E+04  0.12651548254E+04  0.10100000000E+00 0.  1.
         23    2    1    2    0    0  0.00000000000E+00  0.00000000000E+00 -0.12634820471E+04  0.12668306460E+04  0.92048911991E+02 0.  0.
    9000005    2    3    3    0    0 -0.22557594943E+02  0.95629007488E+01 -0.11645006470E+04  0.11648619658E+04  0.15535392878E+02 0.  0.
         22    1    3    3    0    0  0.22557594943E+02 -0.95629007488E+01 -0.98981400151E+02  0.10196868017E+03  0.00000000000E+00 0. -1.
         22    1    4    4    0    0 -0.16592867786E+02  0.10658567616E+02 -0.10613432858E+04  0.10615264945E+04  0.00000000000E+00 0. -1.
         22    1    4    4    0    0 -0.59647271568E+01 -0.10956668671E+01 -0.10315736119E+03  0.10333547127E+03  0.00000000000E+00 0. -1.
<mgrwt>
<rscale>  0 0.92048912E+02</rscale>
<asrwt>0</asrwt>
<pdfrwt beam="1">  1        3 0.25758554E-03 0.92048912E+02</pdfrwt>
<pdfrwt beam="2">  1       -3 0.19463867E+00 0.92048912E+02</pdfrwt>
<totfact> 0.74369433E+03</totfact>
</mgrwt>
</event>
<event>
 7    1  0.1247599E-009  0.9347226E+02  0.7818608E-02  0.1294654E+00
         -3   -1    0    0    0  501 -0.00000000000E+00  0.00000000000E+00  0.34831132930E+02  0.34831279365E+02  0.10100000000E+00 0.  1.
          3   -1    0    0  501    0  0.00000000000E+00 -0.00000000000E+00 -0.62709841497E+02  0.62709922832E+02  0.10100000000E+00 0. -1.
         23    2    1    2    0    0  0.00000000000E+00  0.00000000000E+00 -0.27878708566E+02  0.97541202197E+02  0.93472261846E+02 0.  0.
    9000005    2    3    3    0    0  0.94322147202E+01  0.16148323046E+02  0.30249526873E+02  0.36478719714E+02  0.81196123198E+01 0.  0.
         22    1    3    3    0    0 -0.94322147202E+01 -0.16148323046E+02 -0.58128235439E+02  0.61062482483E+02  0.00000000000E+00 0. -1.
         22    1    4    4    0    0  0.51092585202E+01  0.14420770603E+02  0.26043342901E+02  0.30204616483E+02  0.00000000000E+00 0.  1.
         22    1    4    4    0    0  0.43229562000E+01  0.17275524426E+01  0.42061839712E+01  0.62741032306E+01  0.00000000000E+00 0.  1.
<mgrwt>
<rscale>  0 0.93472262E+02</rscale>
<asrwt>0</asrwt>
<pdfrwt beam="2">  1        3 0.96476854E-02 0.93472262E+02</pdfrwt>
<pdfrwt beam="1">  1       -3 0.53586534E-02 0.93472262E+02</pdfrwt>
<totfact> 0.32566676E+04</totfact>
</mgrwt>
</event>
<event>
 7    1  0.1247599E-009  0.8836659E+02  0.7818608E-02  0.1306856E+00
          3   -1    0    0  501    0  0.00000000000E+00  0.00000000000E+00  0.10859457602E+03  0.10859462299E+03  0.10100000000E+00 0. -1.
         -3   -1    0    0    0  501 -0.00000000000E+00 -0.00000000000E+00 -0.17976428238E+02  0.17976711968E+02  0.10100000000E+00 0.  1.
         23    2    1    2    0    0  0.00000000000E+00  0.00000000000E+00  0.90618147786E+02  0.12657133496E+03  0.88366589418E+02 0.  0.
    9000005    2    3    3    0    0 -0.14920080487E+02  0.22511663343E+02 -0.39577812333E+01  0.28214890646E+02  0.71436848798E+01 0.  0.
         22    1    3    3    0    0  0.14920080487E+02 -0.22511663343E+02  0.94575929019E+02  0.98356444314E+02  0.00000000000E+00 0.  1.
         22    1    4    4    0    0 -0.30581334104E+01  0.10463641507E+02 -0.28683350692E+01  0.11272414099E+02  0.00000000000E+00 0. -1.
         22    1    4    4    0    0 -0.11861947076E+02  0.12048021836E+02 -0.10894461641E+01  0.16942476547E+02  0.00000000000E+00 0. -1.
<mgrwt>
<rscale>  0 0.88366589E+02</rscale>
<asrwt>0</asrwt>
<pdfrwt beam="1">  1        3 0.16706883E-01 0.88366589E+02</pdfrwt>
<pdfrwt beam="2">  1       -3 0.27656298E-02 0.88366589E+02</pdfrwt>
<totfact> 0.35701482E+04</totfact>
</mgrwt>
</event>
<event>
 7    1  0.1247599E-009  0.9156390E+02  0.7818608E-02  0.1299108E+00
          3   -1    0    0  501    0  0.00000000000E+00  0.00000000000E+00  0.20721286815E+02  0.20721532961E+02  0.10100000000E+00 0. -1.
         -3   -1    0    0    0  501 -0.00000000000E+00 -0.00000000000E+00 -0.10115052355E+03  0.10115057397E+03  0.10100000000E+00 0.  1.
         23    2    1    2    0    0  0.00000000000E+00  0.35527136788E-14 -0.80429236733E+02  0.12187210693E+03  0.91563902970E+02 0.  0.
    9000005    2    3    3    0    0  0.33154955418E+01  0.30803729390E+02 -0.84318876884E+02  0.90647252162E+02  0.12140390052E+02 0.  0.
         22    1    3    3    0    0 -0.33154955418E+01 -0.30803729390E+02  0.38896401509E+01  0.31224854771E+02  0.00000000000E+00 0. -1.
         22    1    4    4    0    0 -0.72590397551E+00  0.25058649291E+02 -0.74269704029E+02  0.78386553550E+02  0.00000000000E+00 0. -1.
         22    1    4    4    0    0  0.40413995173E+01  0.57450800983E+01 -0.10049172855E+02  0.12260698612E+02  0.00000000000E+00 0. -1.
<mgrwt>
<rscale>  0 0.91563903E+02</rscale>
<asrwt>0</asrwt>
<pdfrwt beam="1">  1        3 0.31879131E-02 0.91563903E+02</pdfrwt>
<pdfrwt beam="2">  1       -3 0.15561642E-01 0.91563903E+02</pdfrwt>
<totfact> 0.32740916E+04</totfact>
</mgrwt>
</event>
<event>
 7    1  0.1247599E-009  0.8922515E+02  0.7818608E-02  0.1304739E+00
         -3   -1    0    0    0  501 -0.00000000000E+00  0.00000000000E+00  0.49385442474E+03  0.49385443507E+03  0.10100000000E+00 0.  1.
          3   -1    0    0  501    0  0.00000000000E+00 -0.00000000000E+00 -0.40294550295E+01  0.40307206347E+01  0.10100000000E+00 0. -1.
         23    2    1    2    0    0  0.35527136788E-14  0.00000000000E+00  0.48982496971E+03  0.49788515571E+03  0.89225149578E+02 0.  0.
    9000005    2    3    3    0    0 -0.18936298109E+02 -0.23374056063E+02  0.42844776980E+03  0.42953246335E+03  0.50710692208E+01 0.  0.
         22    1    3    3    0    0  0.18936298109E+02  0.23374056063E+02  0.61377199913E+02  0.68352692354E+02  0.00000000000E+00 0. -1.
         22    1    4    4    0    0 -0.11887589274E+02 -0.15495946363E+02  0.24296719404E+03  0.24375089028E+03  0.00000000000E+00 0.  1.
         22    1    4    4    0    0 -0.70487088343E+01 -0.78781096992E+01  0.18548057576E+03  0.18578157307E+03  0.00000000000E+00 0.  1.
<mgrwt>
<rscale>  0 0.89225150E+02</rscale>
<asrwt>0</asrwt>
<pdfrwt beam="2">  1        3 0.62001400E-03 0.89225150E+02</pdfrwt>
<pdfrwt beam="1">  1       -3 0.75977740E-01 0.89225150E+02</pdfrwt>
<totfact> 0.19006427E+04</totfact>
</mgrwt>
</event>
<event>
 7    1  0.1247599E-009  0.9033340E+02  0.7818608E-02  0.1302046E+00
         -3   -1    0    0    0  501 -0.00000000000E+00  0.00000000000E+00  0.55447340442E+01  0.55456538497E+01  0.10100000000E+00 0.  1.
          3   -1    0    0  501    0  0.00000000000E+00 -0.00000000000E+00 -0.36789075736E+03  0.36789077122E+03  0.10100000000E+00 0. -1.
         23    2    1    2    0    0  0.00000000000E+00  0.00000000000E+00 -0.36234602332E+03  0.37343642507E+03  0.90333398913E+02 0.  0.
    9000005    2    3    3    0    0 -0.39099227905E+02  0.23944448813E+01 -0.27203945044E+03  0.27499984603E+03  0.92179028250E+01 0.  0.
         22    1    3    3    0    0  0.39099227905E+02 -0.23944448813E+01 -0.90306572879E+02  0.98436579045E+02  0.00000000000E+00 0.  1.
         22    1    4    4    0    0 -0.30084051634E+02  0.57309599606E+01 -0.20880207510E+03  0.21103601738E+03  0.00000000000E+00 0.  1.
         22    1    4    4    0    0 -0.90151762712E+01 -0.33365150793E+01 -0.63237375336E+02  0.63963828649E+02  0.00000000000E+00 0.  1.
<mgrwt>
<rscale>  0 0.90333399E+02</rscale>
<asrwt>0</asrwt>
<pdfrwt beam="2">  1        3 0.56598631E-01 0.90333399E+02</pdfrwt>
<pdfrwt beam="1">  1       -3 0.85310812E-03 0.90333399E+02</pdfrwt>
<totfact> 0.21981477E+04</totfact>
</mgrwt>
</event>
<event>
 7    1  0.1247599E-009  0.9180880E+02  0.7818608E-02  0.1298530E+00
         -3   -1    0    0    0  501 -0.00000000000E+00  0.00000000000E+00  0.16942359954E+03  0.16942362965E+03  0.10100000000E+00 0.  1.
          3   -1    0    0  501    0  0.00000000000E+00 -0.00000000000E+00 -0.12437311643E+02  0.12437721733E+02  0.10100000000E+00 0. -1.
         23    2    1    2    0    0  0.00000000000E+00  0.00000000000E+00  0.15698628790E+03  0.18186135138E+03  0.91808804247E+02 0.  0.
    9000005    2    3    3    0    0 -0.25820886490E+02 -0.10311908080E+02  0.14984802795E+03  0.15315580518E+03  0.15139866356E+02 0.  0.
         22    1    3    3    0    0  0.25820886490E+02  0.10311908080E+02  0.71382599488E+01  0.28705546197E+02  0.00000000000E+00 0. -1.
         22    1    4    4    0    0 -0.10111267393E+02 -0.12189337625E+02  0.74917970813E+02  0.76573624903E+02  0.00000000000E+00 0.  1.
         22    1    4    4    0    0 -0.15709619097E+02  0.18774295450E+01  0.74930057137E+02  0.76582180280E+02  0.00000000000E+00 0.  1.
<mgrwt>
<rscale>  0 0.91808804E+02</rscale>
<asrwt>0</asrwt>
<pdfrwt beam="2">  1        3 0.19134665E-02 0.91808804E+02</pdfrwt>
<pdfrwt beam="1">  1       -3 0.26065202E-01 0.91808804E+02</pdfrwt>
<totfact> 0.28917909E+04</totfact>
</mgrwt>
</event>
<event>
 7    1  0.1247599E-009  0.9168025E+02  0.7818608E-02  0.1298833E+00
         -3   -1    0    0    0  501 -0.00000000000E+00  0.00000000000E+00  0.14378646766E+02  0.14379001489E+02  0.10100000000E+00 0.  1.
          3   -1    0    0  501    0  0.00000000000E+00 -0.00000000000E+00 -0.14613931776E+03  0.14613935266E+03  0.10100000000E+00 0. -1.
         23    2    1    2    0    0  0.00000000000E+00  0.00000000000E+00 -0.13176067100E+03  0.16051835415E+03  0.91680246500E+02 0.  0.
    9000005    2    3    3    0    0 -0.35673191973E+02  0.91325190419E+01 -0.19097888114E+02  0.41990373588E+02  0.65178688305E+01 0.  0.
         22    1    3    3    0    0  0.35673191973E+02 -0.91325190419E+01 -0.11266278288E+03  0.11852798056E+03  0.00000000000E+00 0. -1.
         22    1    4    4    0    0 -0.13781875553E+02  0.51609734407E+01 -0.10760477046E+02  0.18230842188E+02  0.00000000000E+00 0.  1.
         22    1    4    4    0    0 -0.21891316420E+02  0.39715456012E+01 -0.83374110674E+01  0.23759531401E+02  0.00000000000E+00 0.  1.
<mgrwt>
<rscale>  0 0.91680246E+02</rscale>
<asrwt>0</asrwt>
<pdfrwt beam="2">  1        3 0.22483001E-01 0.91680246E+02</pdfrwt>
<pdfrwt beam="1">  1       -3 0.22121296E-02 0.91680246E+02</pdfrwt>
<totfact> 0.30221218E+04</totfact>
</mgrwt>
</event>
<event>
 7    1  0.1247599E-009  0.9107860E+02  0.7818608E-02  0.1300261E+00
         -3   -1    0    0    0  501 -0.00000000000E+00  0.00000000000E+00  0.17075161340E+02  0.17075460046E+02  0.10100000000E+00 0.  1.
          3   -1    0    0  501    0  0.00000000000E+00 -0.00000000000E+00 -0.12145151856E+03  0.12145156056E+03  0.10100000000E+00 0. -1.
         23    2    1    2    0    0  0.00000000000E+00 -0.71054273576E-14 -0.10437635722E+03  0.13852702060E+03  0.91078600616E+02 0.  0.
    9000005    2    3    3    0    0  0.32415190168E+01  0.43185276417E+02 -0.37941141385E+02  0.59223089755E+02  0.13869700998E+02 0.  0.
         22    1    3    3    0    0 -0.32415190168E+01 -0.43185276417E+02 -0.66435215835E+02  0.79303930847E+02  0.00000000000E+00 0. -1.
         22    1    4    4    0    0 -0.40539544764E+01  0.68584881090E+01 -0.10168081230E+02  0.12917557120E+02  0.00000000000E+00 0.  1.
         22    1    4    4    0    0  0.72954734932E+01  0.36326788308E+02 -0.27773060155E+02  0.46305532635E+02  0.00000000000E+00 0.  1.
<mgrwt>
<rscale>  0 0.91078601E+02</rscale>
<asrwt>0</asrwt>
<pdfrwt beam="2">  1        3 0.18684875E-01 0.91078601E+02</pdfrwt>
<pdfrwt beam="1">  1       -3 0.26269742E-02 0.91078601E+02</pdfrwt>
<totfact> 0.32117777E+04</totfact>
</mgrwt>
</event>
<event>
 7    1  0.1247599E-009  0.9214039E+02  0.7818608E-02  0.1297750E+00
          3   -1    0    0  501    0  0.00000000000E+00  0.00000000000E+00  0.59650203720E+02  0.59650289226E+02  0.10100000000E+00 0. -1.
         -3   -1    0    0    0  501 -0.00000000000E+00 -0.00000000000E+00 -0.35581634527E+02  0.35581777873E+02  0.10100000000E+00 0.  1.
         23    2    1    2    0    0  0.00000000000E+00  0.00000000000E+00  0.24068569193E+02  0.95232067100E+02  0.92140385180E+02 0.  0.
    9000005    2    3    3    0    0 -0.23335585709E+02 -0.35906584150E+02 -0.32625021969E+01  0.44430297357E+02  0.11383104009E+02 0.  0.
         22    1    3    3    0    0  0.23335585709E+02  0.35906584150E+02  0.27331071390E+02  0.50801769743E+02  0.00000000000E+00 0. -1.
         22    1    4    4    0    0 -0.13735821723E+02 -0.19906404042E+02 -0.74503654806E+01  0.25307027998E+02  0.00000000000E+00 0.  1.
         22    1    4    4    0    0 -0.95997639855E+01 -0.16000180108E+02  0.41878632836E+01  0.19123269358E+02  0.00000000000E+00 0.  1.
<mgrwt>
<rscale>  0 0.92140385E+02</rscale>
<asrwt>0</asrwt>
<pdfrwt beam="1">  1        3 0.91769719E-02 0.92140385E+02</pdfrwt>
<pdfrwt beam="2">  1       -3 0.54741153E-02 0.92140385E+02</pdfrwt>
<totfact> 0.34038247E+04</totfact>
</mgrwt>
</event>
<event>
 7    1  0.1247599E-009  0.9137362E+02  0.7818608E-02  0.1299559E+00
          3   -1    0    0  501    0  0.00000000000E+00  0.00000000000E+00  0.18444096023E+02  0.18444372559E+02  0.10100000000E+00 0. -1.
         -3   -1    0    0    0  501 -0.00000000000E+00 -0.00000000000E+00 -0.11316703536E+03  0.11316708043E+03  0.10100000000E+00 0.  1.
         23    2    1    2    0    0  0.00000000000E+00  0.00000000000E+00 -0.94722939335E+02  0.13161145299E+03  0.91373624866E+02 0.  0.
    9000005    2    3    3    0    0 -0.17451074093E+02 -0.38108317420E+02 -0.24932306883E+02  0.50201894448E+02  0.11909090478E+02 0.  0.
         22    1    3    3    0    0  0.17451074093E+02  0.38108317420E+02 -0.69790632451E+02  0.81409558539E+02  0.00000000000E+00 0.  1.
         22    1    4    4    0    0 -0.12183509408E+02 -0.30090029329E+02 -0.24368617402E+02  0.40591591255E+02  0.00000000000E+00 0.  1.
         22    1    4    4    0    0 -0.52675646844E+01 -0.80182880919E+01 -0.56368948111E+00  0.96103031929E+01  0.00000000000E+00 0.  1.
<mgrwt>
<rscale>  0 0.91373625E+02</rscale>
<asrwt>0</asrwt>
<pdfrwt beam="1">  1        3 0.28375780E-02 0.91373625E+02</pdfrwt>
<pdfrwt beam="2">  1       -3 0.17410337E-01 0.91373625E+02</pdfrwt>
<totfact> 0.32282066E+04</totfact>
</mgrwt>
</event>
<event>
 7    1  0.1247599E-009  0.7269161E+02  0.7818608E-02  0.1351172E+00
         -3   -1    0    0    0  501 -0.00000000000E+00  0.00000000000E+00  0.38568971647E+02  0.38569103890E+02  0.10100000000E+00 0. -1.
          3   -1    0    0  501    0  0.00000000000E+00 -0.00000000000E+00 -0.34250517868E+02  0.34250666786E+02  0.10100000000E+00 0.  1.
         23    2    1    2    0    0  0.00000000000E+00  0.00000000000E+00  0.43184537782E+01  0.72819770675E+02  0.72691608582E+02 0.  0.
    9000005    2    3    3    0    0  0.18429788110E+02  0.28786473067E+02  0.12376142059E+02  0.37702190152E+02  0.99984062999E+01 0.  0.
         22    1    3    3    0    0 -0.18429788110E+02 -0.28786473067E+02 -0.80576882813E+01  0.35117580524E+02  0.00000000000E+00 0. -1.
         22    1    4    4    0    0  0.13092357484E+02  0.13673807028E+02  0.30978043036E+01  0.19182784329E+02  0.00000000000E+00 0. -1.
         22    1    4    4    0    0  0.53374306258E+01  0.15112666039E+02  0.92783377559E+01  0.18519405822E+02  0.00000000000E+00 0. -1.
<mgrwt>
<rscale>  0 0.72691609E+02</rscale>
<asrwt>0</asrwt>
<pdfrwt beam="2">  1        3 0.52693321E-02 0.72691609E+02</pdfrwt>
<pdfrwt beam="1">  1       -3 0.59337095E-02 0.72691609E+02</pdfrwt>
<totfact> 0.67731814E+04</totfact>
</mgrwt>
</event>
<event>
 7    1  0.1247599E-009  0.9207066E+02  0.7818608E-02  0.1297913E+00
          3   -1    0    0  501    0  0.00000000000E+00  0.00000000000E+00  0.15277327708E+02  0.15277661565E+02  0.10100000000E+00 0. -1.
         -3   -1    0    0    0  501 -0.00000000000E+00 -0.00000000000E+00 -0.13871688223E+03  0.13871691900E+03  0.10100000000E+00 0.  1.
         23    2    1    2    0    0 -0.44408920985E-15  0.35527136788E-14 -0.12343955452E+03  0.15399458056E+03  0.92070664288E+02 0.  0.
    9000005    2    3    3    0    0 -0.20955678399E+01  0.29122032936E+02 -0.12014812178E+03  0.12461231148E+03  0.15497509442E+02 0.  0.
         22    1    3    3    0    0  0.20955678399E+01 -0.29122032936E+02 -0.32914327432E+01  0.29382269082E+02  0.00000000000E+00 0. -1.
         22    1    4    4    0    0  0.45031101682E+01  0.24101592453E+02 -0.95946916258E+02  0.99030174691E+02  0.00000000000E+00 0.  1.
         22    1    4    4    0    0 -0.65986780081E+01  0.50204404830E+01 -0.24201205519E+02  0.25582136788E+02  0.00000000000E+00 0.  1.
<mgrwt>
<rscale>  0 0.92070664E+02</rscale>
<asrwt>0</asrwt>
<pdfrwt beam="1">  1        3 0.23503867E-02 0.92070664E+02</pdfrwt>
<pdfrwt beam="2">  1       -3 0.21341086E-01 0.92070664E+02</pdfrwt>
<totfact> 0.30253955E+04</totfact>
</mgrwt>
</event>
<event>
 7    1  0.1247599E-009  0.9151619E+02  0.7818608E-02  0.1299221E+00
         -3   -1    0    0    0  501 -0.00000000000E+00  0.00000000000E+00  0.98898155929E+01  0.98903313120E+01  0.10100000000E+00 0.  1.
          3   -1    0    0  501    0  0.00000000000E+00 -0.00000000000E+00 -0.21170702442E+03  0.21170704851E+03  0.10100000000E+00 0. -1.
         23    2    1    2    0    0  0.00000000000E+00  0.71054273576E-14 -0.20181720882E+03  0.22159737982E+03  0.91516189639E+02 0.  0.
    9000005    2    3    3    0    0  0.25323359723E+02 -0.37580790873E+02 -0.11425111666E+03  0.12300017455E+03  0.47049857816E+01 0.  0.
         22    1    3    3    0    0 -0.25323359723E+02  0.37580790873E+02 -0.87566092167E+02  0.98597205273E+02  0.00000000000E+00 0.  1.
         22    1    4    4    0    0  0.94242221093E+01 -0.14418269698E+02 -0.49702414893E+02  0.52602590332E+02  0.00000000000E+00 0. -1.
         22    1    4    4    0    0  0.15899137614E+02 -0.23162521175E+02 -0.64548701764E+02  0.70397584216E+02  0.00000000000E+00 0. -1.
<mgrwt>
<rscale>  0 0.91516190E+02</rscale>
<asrwt>0</asrwt>
<pdfrwt beam="2">  1        3 0.32570350E-01 0.91516190E+02</pdfrwt>
<pdfrwt beam="1">  1       -3 0.15215518E-02 0.91516190E+02</pdfrwt>
<totfact> 0.27145691E+04</totfact>
</mgrwt>
</event>
<event>
 7    1  0.1247599E-009  0.9156505E+02  0.7818608E-02  0.1299105E+00
          3   -1    0    0  501    0  0.00000000000E+00  0.00000000000E+00  0.37201338877E+02  0.37201475982E+02  0.10100000000E+00 0. -1.
         -3   -1    0    0    0  501 -0.00000000000E+00 -0.00000000000E+00 -0.56342842072E+02  0.56342932598E+02  0.10100000000E+00 0.  1.
         23    2    1    2    0    0  0.33306690739E-15  0.00000000000E+00 -0.19141503195E+02  0.93544408581E+02  0.91565054645E+02 0.  0.
    9000005    2    3    3    0    0  0.74424868874E+00 -0.22503279608E+02  0.29997484749E+02  0.39492658975E+02  0.12364041509E+02 0.  0.
         22    1    3    3    0    0 -0.74424868874E+00  0.22503279608E+02 -0.49138987944E+02  0.54051749605E+02  0.00000000000E+00 0.  1.
         22    1    4    4    0    0 -0.29051649038E+01 -0.92834812952E+01  0.20850205330E+02  0.23007695895E+02  0.00000000000E+00 0. -1.
         22    1    4    4    0    0  0.36494135925E+01 -0.13219798312E+02  0.91472794187E+01  0.16484963080E+02  0.00000000000E+00 0. -1.
<mgrwt>
<rscale>  0 0.91565055E+02</rscale>
<asrwt>0</asrwt>
<pdfrwt beam="1">  1        3 0.57233004E-02 0.91565055E+02</pdfrwt>
<pdfrwt beam="2">  1       -3 0.86681470E-02 0.91565055E+02</pdfrwt>
<totfact> 0.34752917E+04</totfact>
</mgrwt>
</event>
<event>
 7    1  0.1247599E-009  0.8968276E+02  0.7818608E-02  0.1303622E+00
         -3   -1    0    0    0  501 -0.00000000000E+00  0.00000000000E+00  0.63514466175E+01  0.63522496121E+01  0.10100000000E+00 0.  1.
          3   -1    0    0  501    0  0.00000000000E+00 -0.00000000000E+00 -0.31656053192E+03  0.31656054803E+03  0.10100000000E+00 0. -1.
         23    2    1    2    0    0  0.00000000000E+00  0.00000000000E+00 -0.31020908530E+03  0.32291279764E+03  0.89682764667E+02 0.  0.
    9000005    2    3    3    0    0  0.42843126317E+02  0.13181121937E+02 -0.15662507924E+03  0.16292116547E+03  0.16171773506E+01 0.  0.
         22    1    3    3    0    0 -0.42843126317E+02 -0.13181121937E+02 -0.15358400606E+03  0.15999163217E+03  0.00000000000E+00 0.  1.
         22    1    4    4    0    0  0.30054493482E+02  0.10006523899E+02 -0.11105426098E+03  0.11548355719E+03  0.00000000000E+00 0. -1.
         22    1    4    4    0    0  0.12788632834E+02  0.31745980379E+01 -0.45570818266E+02  0.47437608286E+02  0.00000000000E+00 0. -1.
<mgrwt>
<rscale>  0 0.89682765E+02</rscale>
<asrwt>0</asrwt>
<pdfrwt beam="2">  1        3 0.48701671E-01 0.89682765E+02</pdfrwt>
<pdfrwt beam="1">  1       -3 0.97720889E-03 0.89682765E+02</pdfrwt>
<totfact> 0.24218482E+04</totfact>
</mgrwt>
</event>
<event>
 7    1  0.1247599E-009  0.8936318E+02  0.7818608E-02  0.1304401E+00
          3   -1    0    0  501    0  0.00000000000E+00  0.00000000000E+00  0.38031629591E+03  0.38031630932E+03  0.10100000000E+00 0. -1.
         -3   -1    0    0    0  501 -0.00000000000E+00 -0.00000000000E+00 -0.52489324027E+01  0.52499040342E+01  0.10100000000E+00 0.  1.
         23    2    1    2    0    0  0.00000000000E+00  0.00000000000E+00  0.37506736351E+03  0.38556621336E+03  0.89363178731E+02 0.  0.
    9000005    2    3    3    0    0 -0.27383209736E+02  0.16424976902E+02  0.32228860538E+03  0.32387976954E+03  0.29223132554E+01 0.  0.
         22    1    3    3    0    0  0.27383209736E+02 -0.16424976902E+02  0.52778758126E+02  0.61686443819E+02  0.00000000000E+00 0.  1.
         22    1    4    4    0    0 -0.23243180419E+02  0.14455721811E+02  0.28464612149E+03  0.28595913661E+03  0.00000000000E+00 0. -1.
         22    1    4    4    0    0 -0.41400293170E+01  0.19692550901E+01  0.37642483890E+02  0.37920632929E+02  0.00000000000E+00 0. -1.
<mgrwt>
<rscale>  0 0.89363179E+02</rscale>
<asrwt>0</asrwt>
<pdfrwt beam="1">  1        3 0.58510276E-01 0.89363179E+02</pdfrwt>
<pdfrwt beam="2">  1       -3 0.80760382E-03 0.89363179E+02</pdfrwt>
<totfact> 0.22218258E+04</totfact>
</mgrwt>
</event>
<event>
 7    1  0.1247599E-009  0.9954798E+02  0.7818608E-02  0.1281249E+00
          3   -1    0    0  501    0  0.00000000000E+00  0.00000000000E+00  0.16115441588E+03  0.16115444753E+03  0.10100000000E+00 0. -1.
         -3   -1    0    0    0  501 -0.00000000000E+00 -0.00000000000E+00 -0.15372945642E+02  0.15373277423E+02  0.10100000000E+00 0.  1.
         23    2    1    2    0    0  0.71054273576E-14  0.17763568394E-14  0.14578147024E+03  0.17652772495E+03  0.99547981457E+02 0.  0.
    9000005    2    3    3    0    0  0.38925285371E+02  0.15789815725E+02  0.11815361062E+03  0.12625054575E+03  0.14643376555E+02 0.  0.
         22    1    3    3    0    0 -0.38925285371E+02 -0.15789815725E+02  0.27627859620E+02  0.50277179207E+02  0.00000000000E+00 0.  1.
         22    1    4    4    0    0  0.82793808126E+01  0.25661878522E+00  0.11312173642E+02  0.14020673034E+02  0.00000000000E+00 0. -1.
         22    1    4    4    0    0  0.30645904559E+02  0.15533196940E+02  0.10684143698E+03  0.11222987271E+03  0.00000000000E+00 0. -1.
<mgrwt>
<rscale>  0 0.99547981E+02</rscale>
<asrwt>0</asrwt>
<pdfrwt beam="1">  1        3 0.24793016E-01 0.99547981E+02</pdfrwt>
<pdfrwt beam="2">  1       -3 0.23650964E-02 0.99547981E+02</pdfrwt>
<totfact> 0.23435166E+04</totfact>
</mgrwt>
</event>
<event>
 7    1  0.1247599E-009  0.9345051E+02  0.7818608E-02  0.1294705E+00
          3   -1    0    0  501    0  0.00000000000E+00  0.00000000000E+00  0.39269117313E+02  0.39269247199E+02  0.10100000000E+00 0. -1.
         -3   -1    0    0    0  501 -0.00000000000E+00 -0.00000000000E+00 -0.55596841178E+02  0.55596932918E+02  0.10100000000E+00 0.  1.
         23    2    1    2    0    0  0.00000000000E+00  0.00000000000E+00 -0.16327723864E+02  0.94866180117E+02  0.93450508631E+02 0.  0.
    9000005    2    3    3    0    0 -0.37511026216E+02  0.18813099791E+02 -0.28735620975E+02  0.51105858795E+02  0.50063039065E+01 0.  0.
         22    1    3    3    0    0  0.37511026216E+02 -0.18813099791E+02  0.12407897110E+02  0.43760321322E+02  0.00000000000E+00 0. -1.
         22    1    4    4    0    0 -0.24554642705E+02  0.14188280856E+02 -0.21305088895E+02  0.35470334152E+02  0.00000000000E+00 0. -1.
         22    1    4    4    0    0 -0.12956383511E+02  0.46248189351E+01 -0.74305320797E+01  0.15635524643E+02  0.00000000000E+00 0. -1.
<mgrwt>
<rscale>  0 0.93450509E+02</rscale>
<asrwt>0</asrwt>
<pdfrwt beam="1">  1        3 0.60414197E-02 0.93450509E+02</pdfrwt>
<pdfrwt beam="2">  1       -3 0.85533772E-02 0.93450509E+02</pdfrwt>
<totfact> 0.32776674E+04</totfact>
</mgrwt>
</event>
<event>
 7    1  0.1247599E-009  0.9008352E+02  0.7818608E-02  0.1302650E+00
         -3   -1    0    0    0  501 -0.00000000000E+00  0.00000000000E+00  0.25367006327E+03  0.25367008338E+03  0.10100000000E+00 0.  1.
          3   -1    0    0  501    0  0.00000000000E+00 -0.00000000000E+00 -0.79972935152E+01  0.79979312680E+01  0.10100000000E+00 0. -1.
         23    2    1    2    0    0  0.00000000000E+00  0.00000000000E+00  0.24567276976E+03  0.26166801465E+03  0.90083517300E+02 0.  0.
    9000005    2    3    3    0    0 -0.41930381928E+02 -0.10752789660E+02  0.88787932157E+02  0.98920874325E+02  0.53163019482E+01 0.  0.
         22    1    3    3    0    0  0.41930381928E+02  0.10752789660E+02  0.15688483760E+03  0.16274714032E+03  0.00000000000E+00 0.  1.
         22    1    4    4    0    0 -0.19292372534E+02 -0.45064002150E+01  0.34753933014E+02  0.40004239036E+02  0.00000000000E+00 0. -1.
         22    1    4    4    0    0 -0.22638009394E+02 -0.62463894454E+01  0.54033999143E+02  0.58916635289E+02  0.00000000000E+00 0. -1.
<mgrwt>
<rscale>  0 0.90083517E+02</rscale>
<asrwt>0</asrwt>
<pdfrwt beam="2">  1        3 0.12304034E-02 0.90083517E+02</pdfrwt>
<pdfrwt beam="1">  1       -3 0.39026217E-01 0.90083517E+02</pdfrwt>
<totfact> 0.26431064E+04</totfact>
</mgrwt>
</event>
<event>
 7    1  0.1247599E-009  0.9115139E+02  0.7818608E-02  0.1300087E+00
         -3   -1    0    0    0  501 -0.00000000000E+00  0.00000000000E+00  0.63181555572E+01  0.63189627824E+01  0.10100000000E+00 0.  1.
          3   -1    0    0  501    0  0.00000000000E+00 -0.00000000000E+00 -0.32873611979E+03  0.32873613531E+03  0.10100000000E+00 0. -1.
         23    2    1    2    0    0  0.00000000000E+00  0.00000000000E+00 -0.32241796423E+03  0.33505509809E+03  0.91151385589E+02 0.  0.
    9000005    2    3    3    0    0 -0.44045717441E+02  0.87818757346E+01 -0.18840211273E+03  0.19371368512E+03  0.35339998160E+01 0.  0.
         22    1    3    3    0    0  0.44045717441E+02 -0.87818757346E+01 -0.13401585150E+03  0.14134141297E+03  0.00000000000E+00 0.  1.
         22    1    4    4    0    0 -0.27786768930E+02  0.49824690026E+01 -0.12520719834E+03  0.12835019299E+03  0.00000000000E+00 0.  1.
         22    1    4    4    0    0 -0.16258948510E+02  0.37994067320E+01 -0.63194914391E+02  0.65363492127E+02  0.00000000000E+00 0.  1.
<mgrwt>
<rscale>  0 0.91151386E+02</rscale>
<asrwt>0</asrwt>
<pdfrwt beam="2">  1        3 0.50574838E-01 0.91151386E+02</pdfrwt>
<pdfrwt beam="1">  1       -3 0.97208748E-03 0.91151386E+02</pdfrwt>
<totfact> 0.22752516E+04</totfact>
</mgrwt>
</event>
<event>
 7    1  0.1247599E-009  0.8227732E+02  0.7818608E-02  0.1322710E+00
         -3   -1    0    0    0  501 -0.00000000000E+00  0.00000000000E+00  0.19233413390E+03  0.19233416041E+03  0.10100000000E+00 0.  1.
          3   -1    0    0  501    0  0.00000000000E+00 -0.00000000000E+00 -0.87988982651E+01  0.87994779209E+01  0.10100000000E+00 0. -1.
         23    2    1    2    0    0 -0.71054273576E-14  0.00000000000E+00  0.18353523563E+03  0.20113363834E+03  0.82277322223E+02 0.  0.
    9000005    2    3    3    0    0 -0.38552423240E+02  0.16446956645E+01  0.67660837980E+02  0.79003091819E+02  0.13210040095E+02 0.  0.
         22    1    3    3    0    0  0.38552423240E+02 -0.16446956645E+01  0.11587439765E+03  0.12213054652E+03  0.00000000000E+00 0.  1.
         22    1    4    4    0    0 -0.76599524303E+01 -0.20221689639E+01  0.24853375385E+02  0.26085519098E+02  0.00000000000E+00 0. -1.
         22    1    4    4    0    0 -0.30892470810E+02  0.36668646284E+01  0.42807462595E+02  0.52917572722E+02  0.00000000000E+00 0. -1.
<mgrwt>
<rscale>  0 0.82277322E+02</rscale>
<asrwt>0</asrwt>
<pdfrwt beam="2">  1        3 0.13537233E-02 0.82277322E+02</pdfrwt>
<pdfrwt beam="1">  1       -3 0.29589913E-01 0.82277322E+02</pdfrwt>
<totfact> 0.37444472E+04</totfact>
</mgrwt>
</event>
<event>
 7    1  0.1247599E-009  0.9182892E+02  0.7818608E-02  0.1298482E+00
          3   -1    0    0  501    0  0.00000000000E+00  0.00000000000E+00  0.13201250666E+03  0.13201254530E+03  0.10100000000E+00 0. -1.
         -3   -1    0    0    0  501 -0.00000000000E+00 -0.00000000000E+00 -0.15969026263E+02  0.15969345659E+02  0.10100000000E+00 0.  1.
         23    2    1    2    0    0  0.71054273576E-14  0.00000000000E+00  0.11604348040E+03  0.14798189096E+03  0.91828920871E+02 0.  0.
    9000005    2    3    3    0    0 -0.38031239509E+02 -0.18551743213E+02  0.32311141723E+02  0.54164798192E+02  0.99635901622E+01 0.  0.
         22    1    3    3    0    0  0.38031239509E+02  0.18551743213E+02  0.83732338679E+02  0.93817092768E+02  0.00000000000E+00 0. -1.
         22    1    4    4    0    0 -0.57836174328E+01 -0.73062447310E+01  0.71117644555E+01  0.11722142993E+02  0.00000000000E+00 0. -1.
         22    1    4    4    0    0 -0.32247622076E+02 -0.11245498482E+02  0.25199377267E+02  0.42442655199E+02  0.00000000000E+00 0. -1.
<mgrwt>
<rscale>  0 0.91828921E+02</rscale>
<asrwt>0</asrwt>
<pdfrwt beam="1">  1        3 0.20309643E-01 0.91828921E+02</pdfrwt>
<pdfrwt beam="2">  1       -3 0.24568009E-02 0.91828921E+02</pdfrwt>
<totfact> 0.30828872E+04</totfact>
</mgrwt>
</event>
<event>
 7    1  0.1247599E-009  0.9106778E+02  0.7818608E-02  0.1300286E+00
          3   -1    0    0  501    0  0.00000000000E+00  0.00000000000E+00  0.42204199904E+02  0.42204320757E+02  0.10100000000E+00 0. -1.
         -3   -1    0    0    0  501 -0.00000000000E+00 -0.00000000000E+00 -0.49126036729E+02  0.49126140554E+02  0.10100000000E+00 0.  1.
         23    2    1    2    0    0  0.00000000000E+00 -0.88817841970E-15 -0.69218368252E+01  0.91330461311E+02  0.91067784305E+02 0.  0.
    9000005    2    3    3    0    0  0.28110377132E+02 -0.60250207298E+01  0.30403203582E+02  0.44217269754E+02  0.14293984019E+02 0.  0.
         22    1    3    3    0    0 -0.28110377132E+02  0.60250207298E+01 -0.37325040407E+02  0.47113191557E+02  0.00000000000E+00 0.  1.
         22    1    4    4    0    0  0.28314573251E+02 -0.73806992397E+01  0.31081385625E+02  0.42687730228E+02  0.00000000000E+00 0. -1.
         22    1    4    4    0    0 -0.20419611931E+00  0.13556785099E+01 -0.67818204295E+00  0.15295395257E+01  0.00000000000E+00 0. -1.
<mgrwt>
<rscale>  0 0.91067784E+02</rscale>
<asrwt>0</asrwt>
<pdfrwt beam="1">  1        3 0.64929711E-02 0.91067784E+02</pdfrwt>
<pdfrwt beam="2">  1       -3 0.75578691E-02 0.91067784E+02</pdfrwt>
<totfact> 0.35442683E+04</totfact>
</mgrwt>
</event>
<event>
 7    1  0.1247599E-009  0.9174608E+02  0.7818608E-02  0.1298678E+00
         -3   -1    0    0    0  501 -0.00000000000E+00  0.00000000000E+00  0.18114020370E+03  0.18114023186E+03  0.10100000000E+00 0.  1.
          3   -1    0    0  501    0  0.00000000000E+00 -0.00000000000E+00 -0.11616916977E+02  0.11617356027E+02  0.10100000000E+00 0. -1.
         23    2    1    2    0    0 -0.71054273576E-14  0.00000000000E+00  0.16952328672E+03  0.19275758788E+03  0.91746078639E+02 0.  0.
    9000005    2    3    3    0    0  0.33617215519E+02  0.26505462783E+02  0.51956758694E+02  0.67639462701E+02  0.65525112616E+01 0.  0.
         22    1    3    3    0    0 -0.33617215519E+02 -0.26505462783E+02  0.11756652803E+03  0.12511812518E+03  0.00000000000E+00 0. -1.
         22    1    4    4    0    0  0.12988787813E+02  0.13520547239E+02  0.19526512982E+02  0.27070251490E+02  0.00000000000E+00 0. -1.
         22    1    4    4    0    0  0.20628427706E+02  0.12984915544E+02  0.32430245712E+02  0.40569211211E+02  0.00000000000E+00 0. -1.
<mgrwt>
<rscale>  0 0.91746079E+02</rscale>
<asrwt>0</asrwt>
<pdfrwt beam="2">  1        3 0.17872541E-02 0.91746079E+02</pdfrwt>
<pdfrwt beam="1">  1       -3 0.27867757E-01 0.91746079E+02</pdfrwt>
<totfact> 0.28394595E+04</totfact>
</mgrwt>
</event>
<event>
 7    1  0.1247599E-009  0.8950322E+02  0.7818608E-02  0.1304059E+00
         -3   -1    0    0    0  501 -0.00000000000E+00  0.00000000000E+00  0.37554907784E+02  0.37555043598E+02  0.10100000000E+00 0.  1.
          3   -1    0    0  501    0  0.00000000000E+00 -0.00000000000E+00 -0.53327143816E+02  0.53327239461E+02  0.10100000000E+00 0. -1.
         23    2    1    2    0    0  0.00000000000E+00 -0.71054273576E-14 -0.15772236032E+02  0.90882283059E+02  0.89503217510E+02 0.  0.
    9000005    2    3    3    0    0  0.85490491939E+01 -0.42634144521E+02  0.14766788672E+01  0.44103210961E+02  0.72219190943E+01 0.  0.
         22    1    3    3    0    0 -0.85490491939E+01  0.42634144521E+02 -0.17248914899E+02  0.46779072098E+02  0.00000000000E+00 0. -1.
         22    1    4    4    0    0  0.62055487012E+01 -0.19080775287E+02  0.34200089644E+01  0.20353900892E+02  0.00000000000E+00 0. -1.
         22    1    4    4    0    0  0.23435004927E+01 -0.23553369234E+02 -0.19433300972E+01  0.23749310068E+02  0.00000000000E+00 0. -1.
<mgrwt>
<rscale>  0 0.89503218E+02</rscale>
<asrwt>0</asrwt>
<pdfrwt beam="2">  1        3 0.82041938E-02 0.89503218E+02</pdfrwt>
<pdfrwt beam="1">  1       -3 0.57776959E-02 0.89503218E+02</pdfrwt>
<totfact> 0.37187429E+04</totfact>
</mgrwt>
</event>
<event>
 7    1  0.1247599E-009  0.9173672E+02  0.7818608E-02  0.1298700E+00
          3   -1    0    0  501    0  0.00000000000E+00  0.00000000000E+00  0.63205822045E+02  0.63205902741E+02  0.10100000000E+00 0. -1.
         -3   -1    0    0    0  501 -0.00000000000E+00 -0.00000000000E+00 -0.33286412075E+02  0.33286565305E+02  0.10100000000E+00 0.  1.
         23    2    1    2    0    0  0.00000000000E+00  0.00000000000E+00  0.29919409970E+02  0.96492468046E+02  0.91736717277E+02 0.  0.
    9000005    2    3    3    0    0  0.20436953257E+02  0.29849756855E+02  0.44451092750E+02  0.57507254860E+02  0.47442251248E+01 0.  0.
         22    1    3    3    0    0 -0.20436953257E+02 -0.29849756855E+02 -0.14531682781E+02  0.38985213187E+02  0.00000000000E+00 0.  1.
         22    1    4    4    0    0  0.49750764156E+01  0.68552571883E+01  0.74484207516E+01  0.11279401941E+02  0.00000000000E+00 0.  1.
         22    1    4    4    0    0  0.15461876842E+02  0.22994499667E+02  0.37002671999E+02  0.46227852919E+02  0.00000000000E+00 0.  1.
<mgrwt>
<rscale>  0 0.91736717E+02</rscale>
<asrwt>0</asrwt>
<pdfrwt beam="1">  1        3 0.97239907E-02 0.91736717E+02</pdfrwt>
<pdfrwt beam="2">  1       -3 0.51210044E-02 0.91736717E+02</pdfrwt>
<totfact> 0.34354708E+04</totfact>
</mgrwt>
</event>
<event>
 7    1  0.1247599E-009  0.9191774E+02  0.7818608E-02  0.1298273E+00
          3   -1    0    0  501    0  0.00000000000E+00  0.00000000000E+00  0.12242380544E+03  0.12242384711E+03  0.10100000000E+00 0. -1.
         -3   -1    0    0    0  501 -0.00000000000E+00 -0.00000000000E+00 -0.17253133219E+02  0.17253428844E+02  0.10100000000E+00 0.  1.
         23    2    1    2    0    0  0.00000000000E+00  0.00000000000E+00  0.10517067222E+03  0.13967727595E+03  0.91917741056E+02 0.  0.
    9000005    2    3    3    0    0  0.40881106674E+01 -0.29758155880E+02  0.30232530423E+01  0.33204952149E+02  0.13826362431E+02 0.  0.
         22    1    3    3    0    0 -0.40881106674E+01  0.29758155880E+02  0.10214741918E+03  0.10647232380E+03  0.00000000000E+00 0. -1.
         22    1    4    4    0    0  0.29756148475E+01 -0.10257465339E+02 -0.53595773270E+01  0.11949684014E+02  0.00000000000E+00 0. -1.
         22    1    4    4    0    0  0.11124958200E+01 -0.19500690540E+02  0.83828303694E+01  0.21255268135E+02  0.00000000000E+00 0. -1.
<mgrwt>
<rscale>  0 0.91917741E+02</rscale>
<asrwt>0</asrwt>
<pdfrwt beam="1">  1        3 0.18834458E-01 0.91917741E+02</pdfrwt>
<pdfrwt beam="2">  1       -3 0.26543541E-02 0.91917741E+02</pdfrwt>
<totfact> 0.31256074E+04</totfact>
</mgrwt>
</event>
<event>
 7    1  0.1247599E-009  0.7162327E+02  0.7818608E-02  0.1354658E+00
         -3   -1    0    0    0  501 -0.00000000000E+00  0.00000000000E+00  0.73384355692E+02  0.73384425196E+02  0.10100000000E+00 0.  1.
          3   -1    0    0  501    0  0.00000000000E+00 -0.00000000000E+00 -0.17475886350E+02  0.17476178207E+02  0.10100000000E+00 0. -1.
         23    2    1    2    0    0  0.22204460493E-15  0.00000000000E+00  0.55908469342E+02  0.90860603403E+02  0.71623266517E+02 0.  0.
    9000005    2    3    3    0    0 -0.18380561348E+01 -0.14375849518E+02 -0.11429199859E+02  0.21980960596E+02  0.11937023062E+02 0.  0.
         22    1    3    3    0    0  0.18380561348E+01  0.14375849518E+02  0.67337669202E+02  0.68879642807E+02  0.00000000000E+00 0.  1.
         22    1    4    4    0    0 -0.55308599813E+01 -0.58662917267E+01 -0.95817026719E+01  0.12522492438E+02  0.00000000000E+00 0.  1.
         22    1    4    4    0    0  0.36928038465E+01 -0.85095577910E+01 -0.18474971873E+01  0.94584681584E+01  0.00000000000E+00 0.  1.
<mgrwt>
<rscale>  0 0.71623267E+02</rscale>
<asrwt>0</asrwt>
<pdfrwt beam="2">  1        3 0.26886257E-02 0.71623267E+02</pdfrwt>
<pdfrwt beam="1">  1       -3 0.11289929E-01 0.71623267E+02</pdfrwt>
<totfact> 0.67563686E+04</totfact>
</mgrwt>
</event>
<event>
 7    1  0.1247599E-009  0.9217058E+02  0.7818608E-02  0.1297679E+00
         -3   -1    0    0    0  501 -0.00000000000E+00  0.00000000000E+00  0.21897874459E+02  0.21898107380E+02  0.10100000000E+00 0.  1.
          3   -1    0    0  501    0  0.00000000000E+00 -0.00000000000E+00 -0.96988275669E+02  0.96988328258E+02  0.10100000000E+00 0. -1.
         23    2    1    2    0    0  0.00000000000E+00 -0.17763568394E-14 -0.75090401210E+02  0.11888643564E+03  0.92170582209E+02 0.  0.
    9000005    2    3    3    0    0  0.16975957560E+02  0.10204626169E+02  0.13672140261E+02  0.27940812881E+02  0.14193099549E+02 0.  0.
         22    1    3    3    0    0 -0.16975957560E+02 -0.10204626169E+02 -0.88762541470E+02  0.90945622757E+02  0.00000000000E+00 0. -1.
         22    1    4    4    0    0  0.13843958421E+02  0.58216242716E+01  0.16112917083E+02  0.22026633670E+02  0.00000000000E+00 0.  1.
         22    1    4    4    0    0  0.31319991392E+01  0.43830018976E+01 -0.24407768220E+01  0.59141792108E+01  0.00000000000E+00 0.  1.
<mgrwt>
<rscale>  0 0.92170582E+02</rscale>
<asrwt>0</asrwt>
<pdfrwt beam="2">  1        3 0.14921295E-01 0.92170582E+02</pdfrwt>
<pdfrwt beam="1">  1       -3 0.33689258E-02 0.92170582E+02</pdfrwt>
<totfact> 0.32353646E+04</totfact>
</mgrwt>
</event>
<event>
 7    1  0.1247599E-009  0.9156972E+02  0.7818608E-02  0.1299094E+00
         -3   -1    0    0    0  501 -0.00000000000E+00  0.00000000000E+00  0.51632155312E+02  0.51632254097E+02  0.10100000000E+00 0.  1.
          3   -1    0    0  501    0  0.00000000000E+00 -0.00000000000E+00 -0.40599567584E+02  0.40599693213E+02  0.10100000000E+00 0. -1.
         23    2    1    2    0    0  0.00000000000E+00  0.00000000000E+00  0.11032587728E+02  0.92231947310E+02  0.91569722685E+02 0.  0.
    9000005    2    3    3    0    0  0.34889258018E+01  0.34917592874E+02  0.34548674975E+02  0.49989584038E+02  0.85986437532E+01 0.  0.
         22    1    3    3    0    0 -0.34889258018E+01 -0.34917592874E+02 -0.23516087247E+02  0.42242363272E+02  0.00000000000E+00 0. -1.
         22    1    4    4    0    0  0.33677230445E+01  0.26647084480E+02  0.20910061648E+02  0.34038791811E+02  0.00000000000E+00 0.  1.
         22    1    4    4    0    0  0.12120275734E+00  0.82705083938E+01  0.13638613327E+02  0.15950792227E+02  0.00000000000E+00 0.  1.
<mgrwt>
<rscale>  0 0.91569723E+02</rscale>
<asrwt>0</asrwt>
<pdfrwt beam="2">  1        3 0.62461046E-02 0.91569723E+02</pdfrwt>
<pdfrwt beam="1">  1       -3 0.79434257E-02 0.91569723E+02</pdfrwt>
<totfact> 0.34846878E+04</totfact>
</mgrwt>
</event>
<event>
 7    1  0.1247599E-009  0.9307898E+02  0.7818608E-02  0.1295562E+00
         -3   -1    0    0    0  501 -0.00000000000E+00  0.00000000000E+00  0.34828652737E+03  0.34828654202E+03  0.10100000000E+00 0.  1.
          3   -1    0    0  501    0  0.00000000000E+00 -0.00000000000E+00 -0.62183742570E+01  0.62191944333E+01  0.10100000000E+00 0. -1.
         23    2    1    2    0    0  0.00000000000E+00  0.00000000000E+00  0.34206815312E+03  0.35450573645E+03  0.93078976146E+02 0.  0.
    9000005    2    3    3    0    0 -0.44691081003E+02 -0.33118545166E+01  0.21303483298E+03  0.21791196350E+03  0.96707122512E+01 0.  0.
         22    1    3    3    0    0  0.44691081003E+02  0.33118545166E+01  0.12903332014E+03  0.13659377295E+03  0.00000000000E+00 0. -1.
         22    1    4    4    0    0 -0.21087286229E+02 -0.20687988412E+01  0.78131389295E+02  0.80953490118E+02  0.00000000000E+00 0. -1.
         22    1    4    4    0    0 -0.23603794774E+02 -0.12430556755E+01  0.13490344368E+03  0.13695847339E+03  0.00000000000E+00 0. -1.
<mgrwt>
<rscale>  0 0.93078976E+02</rscale>
<asrwt>0</asrwt>
<pdfrwt beam="2">  1        3 0.95673722E-03 0.93078976E+02</pdfrwt>
<pdfrwt beam="1">  1       -3 0.53582605E-01 0.93078976E+02</pdfrwt>
<totfact> 0.20864042E+04</totfact>
</mgrwt>
</event>
<event>
 7    1  0.1247599E-009  0.7706939E+02  0.7818608E-02  0.1337580E+00
          3   -1    0    0  501    0  0.00000000000E+00  0.00000000000E+00  0.23028673091E+03  0.23028675306E+03  0.10100000000E+00 0. -1.
         -3   -1    0    0    0  501 -0.00000000000E+00 -0.00000000000E+00 -0.64477285356E+01  0.64485195409E+01  0.10100000000E+00 0.  1.
         23    2    1    2    0    0  0.00000000000E+00  0.00000000000E+00  0.22383900237E+03  0.23673527260E+03  0.77069386326E+02 0.  0.
    9000005    2    3    3    0    0 -0.35308991714E+02  0.54796678305E+01  0.72308238174E+02  0.81048650969E+02  0.79781489537E+01 0.  0.
         22    1    3    3    0    0  0.35308991714E+02 -0.54796678305E+01  0.15153076420E+03  0.15568662163E+03  0.00000000000E+00 0. -1.
         22    1    4    4    0    0 -0.32876169459E+02  0.51886886067E+01  0.61114026961E+02  0.69589433818E+02  0.00000000000E+00 0.  1.
         22    1    4    4    0    0 -0.24328222547E+01  0.29097922382E+00  0.11194211213E+02  0.11459217151E+02  0.00000000000E+00 0.  1.
<mgrwt>
<rscale>  0 0.77069386E+02</rscale>
<asrwt>0</asrwt>
<pdfrwt beam="1">  1        3 0.35428780E-01 0.77069386E+02</pdfrwt>
<pdfrwt beam="2">  1       -3 0.99202107E-03 0.77069386E+02</pdfrwt>
<totfact> 0.41786100E+04</totfact>
</mgrwt>
</event>
<event>
 7    1  0.1247599E-009  0.9166259E+02  0.7818608E-02  0.1298875E+00
         -3   -1    0    0    0  501 -0.00000000000E+00  0.00000000000E+00  0.30948443357E+02  0.30948608163E+02  0.10100000000E+00 0.  1.
          3   -1    0    0  501    0  0.00000000000E+00 -0.00000000000E+00 -0.67870807236E+02  0.67870882386E+02  0.10100000000E+00 0. -1.
         23    2    1    2    0    0  0.00000000000E+00  0.00000000000E+00 -0.36922363879E+02  0.98819490549E+02  0.91662591923E+02 0.  0.
    9000005    2    3    3    0    0 -0.33986159162E+02  0.24255247386E+02 -0.36920363804E+02  0.57065735696E+02  0.12247811510E+02 0.  0.
         22    1    3    3    0    0  0.33986159162E+02 -0.24255247386E+02 -0.20000745993E-02  0.41753754853E+02  0.00000000000E+00 0.  1.
         22    1    4    4    0    0 -0.14163291864E+02  0.33093739735E+01 -0.14491446296E+02  0.20531751223E+02  0.00000000000E+00 0. -1.
         22    1    4    4    0    0 -0.19822867298E+02  0.20945873412E+02 -0.22428917508E+02  0.36533984473E+02  0.00000000000E+00 0. -1.
<mgrwt>
<rscale>  0 0.91662592E+02</rscale>
<asrwt>0</asrwt>
<pdfrwt beam="2">  1        3 0.10441681E-01 0.91662592E+02</pdfrwt>
<pdfrwt beam="1">  1       -3 0.47613175E-02 0.91662592E+02</pdfrwt>
<totfact> 0.34258625E+04</totfact>
</mgrwt>
</event>
<event>
 7    1  0.1247599E-009  0.9176446E+02  0.7818608E-02  0.1298634E+00
         -3   -1    0    0    0  501 -0.00000000000E+00  0.00000000000E+00  0.12209187848E+02  0.12209605600E+02  0.10100000000E+00 0.  1.
          3   -1    0    0  501    0  0.00000000000E+00 -0.00000000000E+00 -0.17242244024E+03  0.17242246982E+03  0.10100000000E+00 0. -1.
         23    2    1    2    0    0  0.00000000000E+00  0.41633363423E-16 -0.16021325239E+03  0.18463207542E+03  0.91764464975E+02 0.  0.
    9000005    2    3    3    0    0 -0.29703945209E+02  0.63642869928E-01 -0.15413267610E+02  0.36816771733E+02  0.15348532537E+02 0.  0.
         22    1    3    3    0    0  0.29703945209E+02 -0.63642869928E-01 -0.14479998478E+03  0.14781530369E+03  0.00000000000E+00 0. -1.
         22    1    4    4    0    0 -0.65419457555E+01  0.11095024436E+01 -0.11537490363E+02  0.13309460313E+02  0.00000000000E+00 0. -1.
         22    1    4    4    0    0 -0.23161999453E+02 -0.10458595737E+01 -0.38757772464E+01  0.23507311420E+02  0.00000000000E+00 0. -1.
<mgrwt>
<rscale>  0 0.91764465E+02</rscale>
<asrwt>0</asrwt>
<pdfrwt beam="2">  1        3 0.26526562E-01 0.91764465E+02</pdfrwt>
<pdfrwt beam="1">  1       -3 0.18783711E-02 0.91764465E+02</pdfrwt>
<totfact> 0.28807698E+04</totfact>
</mgrwt>
</event>
<event>
 7    1  0.1247599E-009  0.9079231E+02  0.7818608E-02  0.1300944E+00
          3   -1    0    0  501    0  0.00000000000E+00  0.00000000000E+00  0.24575872344E+02  0.24576079884E+02  0.10100000000E+00 0. -1.
         -3   -1    0    0    0  501 -0.00000000000E+00 -0.00000000000E+00 -0.83854446327E+02  0.83854507152E+02  0.10100000000E+00 0.  1.
         23    2    1    2    0    0  0.35527136788E-14  0.00000000000E+00 -0.59278573983E+02  0.10843058704E+03  0.90792306235E+02 0.  0.
    9000005    2    3    3    0    0 -0.16258811036E+02  0.28098229751E+02 -0.66963426269E+02  0.75070185269E+02  0.98778948766E+01 0.  0.
         22    1    3    3    0    0  0.16258811036E+02 -0.28098229751E+02  0.76848522857E+01  0.33360401767E+02  0.00000000000E+00 0. -1.
         22    1    4    4    0    0 -0.23001730462E+01  0.12045218909E+00 -0.80612894539E+01  0.83838948247E+01  0.00000000000E+00 0.  1.
         22    1    4    4    0    0 -0.13958637990E+02  0.27977777562E+02 -0.58902136815E+02  0.66686290444E+02  0.00000000000E+00 0.  1.
<mgrwt>
<rscale>  0 0.90792306E+02</rscale>
<asrwt>0</asrwt>
<pdfrwt beam="1">  1        3 0.37809241E-02 0.90792306E+02</pdfrwt>
<pdfrwt beam="2">  1       -3 0.12900705E-01 0.90792306E+02</pdfrwt>
<totfact> 0.34452040E+04</totfact>
</mgrwt>
</event>
<event>
 7    1  0.1247599E-009  0.9852777E+02  0.7818608E-02  0.1283423E+00
          3   -1    0    0  501    0  0.00000000000E+00  0.00000000000E+00  0.73039854110E+02  0.73039923941E+02  0.10100000000E+00 0. -1.
         -3   -1    0    0    0  501 -0.00000000000E+00 -0.00000000000E+00 -0.33227320366E+02  0.33227473869E+02  0.10100000000E+00 0.  1.
         23    2    1    2    0    0 -0.17763568394E-14  0.00000000000E+00  0.39812533744E+02  0.10626739781E+03  0.98527772705E+02 0.  0.
    9000005    2    3    3    0    0  0.13546798915E+02  0.28618676982E+02  0.60092758375E+02  0.68666441118E+02  0.10069562731E+02 0.  0.
         22    1    3    3    0    0 -0.13546798915E+02 -0.28618676982E+02 -0.20280224632E+02  0.37600956692E+02  0.00000000000E+00 0.  1.
         22    1    4    4    0    0  0.83763837899E+01  0.15612316021E+02  0.43432427132E+02  0.46907184348E+02  0.00000000000E+00 0. -1.
         22    1    4    4    0    0  0.51704151254E+01  0.13006360961E+02  0.16660331243E+02  0.21759256770E+02  0.00000000000E+00 0. -1.
<mgrwt>
<rscale>  0 0.98527773E+02</rscale>
<asrwt>0</asrwt>
<pdfrwt beam="1">  1        3 0.11236918E-01 0.98527773E+02</pdfrwt>
<pdfrwt beam="2">  1       -3 0.51119127E-02 0.98527773E+02</pdfrwt>
<totfact> 0.27672820E+04</totfact>
</mgrwt>
</event>
<event>
 7    1  0.1247599E-009  0.9008445E+02  0.7818608E-02  0.1302647E+00
          3   -1    0    0  501    0  0.00000000000E+00  0.00000000000E+00  0.29727237700E+02  0.29727409276E+02  0.10100000000E+00 0. -1.
         -3   -1    0    0    0  501 -0.00000000000E+00 -0.00000000000E+00 -0.68246842407E+02  0.68246917143E+02  0.10100000000E+00 0.  1.
         23    2    1    2    0    0  0.35527136788E-14  0.00000000000E+00 -0.38519604707E+02  0.97974326419E+02  0.90084453101E+02 0.  0.
    9000005    2    3    3    0    0  0.25146194311E+02  0.31180584629E+02  0.29116528307E+01  0.40345262160E+02  0.38343852725E+01 0.  0.
         22    1    3    3    0    0 -0.25146194311E+02 -0.31180584629E+02 -0.41431257538E+02  0.57629064258E+02  0.00000000000E+00 0.  1.
         22    1    4    4    0    0  0.11056305452E+01  0.17364135508E+01 -0.67032194610E+00  0.21649208839E+01  0.00000000000E+00 0.  1.
         22    1    4    4    0    0  0.24040563766E+02  0.29444171078E+02  0.35819747768E+01  0.38180341276E+02  0.00000000000E+00 0.  1.
<mgrwt>
<rscale>  0 0.90084453E+02</rscale>
<asrwt>0</asrwt>
<pdfrwt beam="1">  1        3 0.45734401E-02 0.90084453E+02</pdfrwt>
<pdfrwt beam="2">  1       -3 0.10499533E-01 0.90084453E+02</pdfrwt>
<totfact> 0.35982464E+04</totfact>
</mgrwt>
</event>
<event>
 7    1  0.1247599E-009  0.9079189E+02  0.7818608E-02  0.1300945E+00
          3   -1    0    0  501    0  0.00000000000E+00  0.00000000000E+00  0.33305966080E+02  0.33306119221E+02  0.10100000000E+00 0. -1.
         -3   -1    0    0    0  501 -0.00000000000E+00 -0.00000000000E+00 -0.61874212778E+02  0.61874295211E+02  0.10100000000E+00 0.  1.
         23    2    1    2    0    0 -0.17763568394E-14  0.00000000000E+00 -0.28568246698E+02  0.95180414432E+02  0.90791886047E+02 0.  0.
    9000005    2    3    3    0    0 -0.12567874625E+02  0.26101237367E+02 -0.50599090018E+02  0.58785577957E+02  0.75000133643E+01 0.  0.
         22    1    3    3    0    0  0.12567874625E+02 -0.26101237367E+02  0.22030843320E+02  0.36394836475E+02  0.00000000000E+00 0. -1.
         22    1    4    4    0    0 -0.87130447717E+01  0.21153750091E+02 -0.44503166470E+02  0.50039285746E+02  0.00000000000E+00 0.  1.
         22    1    4    4    0    0 -0.38548298534E+01  0.49474872759E+01 -0.60959235473E+01  0.87462922109E+01  0.00000000000E+00 0.  1.
<mgrwt>
<rscale>  0 0.90791886E+02</rscale>
<asrwt>0</asrwt>
<pdfrwt beam="1">  1        3 0.51240129E-02 0.90791886E+02</pdfrwt>
<pdfrwt beam="2">  1       -3 0.95191277E-02 0.90791886E+02</pdfrwt>
<totfact> 0.35439249E+04</totfact>
</mgrwt>
</event>
<event>
 7    1  0.1247599E-009  0.1029698E+03  0.7818608E-02  0.1274172E+00
          3   -1    0    0  501    0  0.00000000000E+00  0.00000000000E+00  0.68519773616E+02  0.68519848054E+02  0.10100000000E+00 0. -1.
         -3   -1    0    0    0  501 -0.00000000000E+00 -0.00000000000E+00 -0.38684914784E+02  0.38685046631E+02  0.10100000000E+00 0.  1.
         23    2    1    2    0    0  0.00000000000E+00  0.00000000000E+00  0.29834858832E+02  0.10720489468E+03  0.10296975596E+03 0.  0.
    9000005    2    3    3    0    0  0.73003772413E+01 -0.46904012834E+02  0.33931521509E+02  0.59559700038E+02  0.11946873607E+02 0.  0.
         22    1    3    3    0    0 -0.73003772413E+01  0.46904012834E+02 -0.40966626768E+01  0.47645194646E+02  0.00000000000E+00 0.  1.
         22    1    4    4    0    0  0.11402313663E+00 -0.30049190896E+02  0.16557016796E+02  0.34308915459E+02  0.00000000000E+00 0.  1.
         22    1    4    4    0    0  0.71863541047E+01 -0.16854821938E+02  0.17374504712E+02  0.25250784580E+02  0.00000000000E+00 0.  1.
<mgrwt>
<rscale>  0 0.10296976E+03</rscale>
<asrwt>0</asrwt>
<pdfrwt beam="1">  1        3 0.10541519E-01 0.10296976E+03</pdfrwt>
<pdfrwt beam="2">  1       -3 0.59515413E-02 0.10296976E+03</pdfrwt>
<totfact> 0.24461409E+04</totfact>
</mgrwt>
</event>
<event>
 7    1  0.1247599E-009  0.9019282E+02  0.7818608E-02  0.1302385E+00
          3   -1    0    0  501    0  0.00000000000E+00  0.00000000000E+00  0.31128708987E+03  0.31128710626E+03  0.10100000000E+00 0. -1.
         -3   -1    0    0    0  501 -0.00000000000E+00 -0.00000000000E+00 -0.65327463422E+01  0.65335270545E+01  0.10100000000E+00 0.  1.
         23    2    1    2    0    0  0.00000000000E+00  0.71054273576E-14  0.30475434353E+03  0.31782063331E+03  0.90192821546E+02 0.  0.
    9000005    2    3    3    0    0 -0.14366544479E+02  0.39305695050E+02  0.96541297274E+02  0.10544359149E+03  0.68405878752E+01 0.  0.
         22    1    3    3    0    0  0.14366544479E+02 -0.39305695050E+02  0.20821304626E+03  0.21237704183E+03  0.00000000000E+00 0.  1.
         22    1    4    4    0    0 -0.31417737608E+01  0.10682768283E+02  0.18897771314E+02  0.21934403142E+02  0.00000000000E+00 0.  1.
         22    1    4    4    0    0 -0.11224770718E+02  0.28622926766E+02  0.77643525960E+02  0.83509188344E+02  0.00000000000E+00 0.  1.
<mgrwt>
<rscale>  0 0.90192822E+02</rscale>
<asrwt>0</asrwt>
<pdfrwt beam="1">  1        3 0.47890395E-01 0.90192822E+02</pdfrwt>
<pdfrwt beam="2">  1       -3 0.10050990E-02 0.90192822E+02</pdfrwt>
<totfact> 0.24046401E+04</totfact>
</mgrwt>
</event>
<event>
 7    1  0.1247599E-009  0.9192268E+02  0.7818608E-02  0.1298261E+00
         -3   -1    0    0    0  501 -0.00000000000E+00  0.00000000000E+00  0.12518084360E+02  0.12518491804E+02  0.10100000000E+00 0.  1.
          3   -1    0    0  501    0  0.00000000000E+00 -0.00000000000E+00 -0.16874827476E+03  0.16874830499E+03  0.10100000000E+00 0. -1.
         23    2    1    2    0    0  0.00000000000E+00  0.00000000000E+00 -0.15623019040E+03  0.18126679679E+03  0.91922680694E+02 0.  0.
    9000005    2    3    3    0    0  0.42739303865E+02  0.90173234963E+01 -0.10552258478E+03  0.11433981056E+03  0.55331873914E+01 0.  0.
         22    1    3    3    0    0 -0.42739303865E+02 -0.90173234963E+01 -0.50707605623E+02  0.66926986231E+02  0.00000000000E+00 0.  1.
         22    1    4    4    0    0  0.62025501570E+01  0.15772986557E+00 -0.11255917489E+02  0.12852711219E+02  0.00000000000E+00 0. -1.
         22    1    4    4    0    0  0.36536753708E+02  0.88595936307E+01 -0.94266667290E+02  0.10148709934E+03  0.00000000000E+00 0. -1.
<mgrwt>
<rscale>  0 0.91922681E+02</rscale>
<asrwt>0</asrwt>
<pdfrwt beam="2">  1        3 0.25961305E-01 0.91922681E+02</pdfrwt>
<pdfrwt beam="1">  1       -3 0.19258929E-02 0.91922681E+02</pdfrwt>
<totfact> 0.28853151E+04</totfact>
</mgrwt>
</event>
<event>
 7    1  0.1247599E-009  0.9103389E+02  0.7818608E-02  0.1300367E+00
         -3   -1    0    0    0  501 -0.00000000000E+00  0.00000000000E+00  0.32205583594E+02  0.32205741966E+02  0.10100000000E+00 0.  1.
          3   -1    0    0  501    0  0.00000000000E+00 -0.00000000000E+00 -0.64329861290E+02  0.64329940577E+02  0.10100000000E+00 0. -1.
         23    2    1    2    0    0  0.00000000000E+00  0.00000000000E+00 -0.32124277697E+02  0.96535682543E+02  0.91033888121E+02 0.  0.
    9000005    2    3    3    0    0  0.25402276817E+02  0.32745358143E+02 -0.32935193667E+02  0.55084606175E+02  0.15233276345E+02 0.  0.
         22    1    3    3    0    0 -0.25402276817E+02 -0.32745358143E+02  0.81091597028E+00  0.41451076368E+02  0.00000000000E+00 0.  1.
         22    1    4    4    0    0  0.12706720541E+02  0.24434898881E+02 -0.27625089404E+02  0.39008596422E+02  0.00000000000E+00 0. -1.
         22    1    4    4    0    0  0.12695556276E+02  0.83104592618E+01 -0.53101042627E+01  0.16076009753E+02  0.00000000000E+00 0. -1.
<mgrwt>
<rscale>  0 0.91033888E+02</rscale>
<asrwt>0</asrwt>
<pdfrwt beam="2">  1        3 0.98969200E-02 0.91033888E+02</pdfrwt>
<pdfrwt beam="1">  1       -3 0.49547235E-02 0.91033888E+02</pdfrwt>
<totfact> 0.35079775E+04</totfact>
</mgrwt>
</event>
<event>
 7    1  0.1247599E-009  0.8899480E+02  0.7818608E-02  0.1305304E+00
         -3   -1    0    0    0  501 -0.00000000000E+00  0.00000000000E+00  0.31373376292E+02  0.31373538866E+02  0.10100000000E+00 0.  1.
          3   -1    0    0  501    0  0.00000000000E+00 -0.00000000000E+00 -0.63111069287E+02  0.63111150105E+02  0.10100000000E+00 0. -1.
         23    2    1    2    0    0 -0.88817841970E-15 -0.35527136788E-14 -0.31737692995E+02  0.94484688971E+02  0.88994804866E+02 0.  0.
    9000005    2    3    3    0    0 -0.70611159229E+01 -0.29354491879E+02 -0.49664410182E+02  0.59371831772E+02  0.12120858784E+02 0.  0.
         22    1    3    3    0    0  0.70611159229E+01  0.29354491879E+02  0.17926717188E+02  0.35112857199E+02  0.00000000000E+00 0.  1.
         22    1    4    4    0    0 -0.81775764212E+01 -0.19918011834E+02 -0.25310740362E+02  0.33230009468E+02  0.00000000000E+00 0. -1.
         22    1    4    4    0    0  0.11164604983E+01 -0.94364800448E+01 -0.24353669820E+02  0.26141822304E+02  0.00000000000E+00 0. -1.
<mgrwt>
<rscale>  0 0.88994805E+02</rscale>
<asrwt>0</asrwt>
<pdfrwt beam="2">  1        3 0.97094139E-02 0.88994805E+02</pdfrwt>
<pdfrwt beam="1">  1       -3 0.48266920E-02 0.88994805E+02</pdfrwt>
<totfact> 0.37470557E+04</totfact>
</mgrwt>
</event>
<event>
 6    1  0.1247599E-009  0.3669874E+03  0.7818608E-02  0.1055851E+00
         -3   -1    0    0    0  501 -0.00000000000E+00  0.00000000000E+00  0.15456751244E+03  0.15456754544E+03  0.10100000000E+00 0.  1.
          3   -1    0    0  501    0  0.00000000000E+00 -0.00000000000E+00 -0.21783316475E+03  0.21783318816E+03  0.10100000000E+00 0. -1.
    9000005    2    1    2    0    0 -0.13297243788E+03  0.39092412293E+02  0.90070294693E+02  0.16570821178E+03  0.11690488905E+02 0.  0.
         22    1    1    2    0    0  0.13297243788E+03 -0.39092412293E+02 -0.15333594700E+03  0.20669252182E+03  0.00000000000E+00 0. -1.
         22    1    3    3    0    0 -0.98291110617E+02  0.32533388997E+02  0.62672056388E+02  0.12102623880E+03  0.00000000000E+00 0. -1.
         22    1    3    3    0    0 -0.34681327266E+02  0.65590232960E+01  0.27398238305E+02  0.44681972984E+02  0.00000000000E+00 0. -1.
<mgrwt>
<rscale>  0 0.36698742E+03</rscale>
<asrwt>0</asrwt>
<pdfrwt beam="2">  1        3 0.33512799E-01 0.36698742E+03</pdfrwt>
<pdfrwt beam="1">  1       -3 0.23779621E-01 0.36698742E+03</pdfrwt>
<totfact> 0.37266598E+02</totfact>
</mgrwt>
</event>
<event>
 7    1  0.1247599E-009  0.8514480E+02  0.7818608E-02  0.1315054E+00
         -3   -1    0    0    0  501 -0.00000000000E+00  0.00000000000E+00  0.24380481822E+03  0.24380483914E+03  0.10100000000E+00 0.  1.
          3   -1    0    0  501    0  0.00000000000E+00 -0.00000000000E+00 -0.74334896824E+01  0.74341758022E+01  0.10100000000E+00 0. -1.
         23    2    1    2    0    0  0.00000000000E+00  0.00000000000E+00  0.23637132854E+03  0.25123901494E+03  0.85144804155E+02 0.  0.
    9000005    2    3    3    0    0  0.39269853575E+02  0.14047181795E+02  0.12482688213E+03  0.13215245718E+03  0.11961468107E+02 0.  0.
         22    1    3    3    0    0 -0.39269853575E+02 -0.14047181795E+02  0.11154444641E+03  0.11908655777E+03  0.00000000000E+00 0. -1.
         22    1    4    4    0    0  0.93513532590E+00  0.29464175868E+01  0.14582717309E+02  0.14906760171E+02  0.00000000000E+00 0.  1.
         22    1    4    4    0    0  0.38334718250E+02  0.11100764208E+02  0.11024416482E+03  0.11724569700E+03  0.00000000000E+00 0.  1.
<mgrwt>
<rscale>  0 0.85144804E+02</rscale>
<asrwt>0</asrwt>
<pdfrwt beam="2">  1        3 0.11436682E-02 0.85144804E+02</pdfrwt>
<pdfrwt beam="1">  1       -3 0.37508487E-01 0.85144804E+02</pdfrwt>
<totfact> 0.31279730E+04</totfact>
</mgrwt>
</event>
<event>
 7    1  0.1247599E-009  0.9249351E+02  0.7818608E-02  0.1296923E+00
         -3   -1    0    0    0  501 -0.00000000000E+00  0.00000000000E+00  0.67890072073E+02  0.67890147202E+02  0.10100000000E+00 0.  1.
          3   -1    0    0  501    0  0.00000000000E+00 -0.00000000000E+00 -0.31503144683E+02  0.31503306587E+02  0.10100000000E+00 0. -1.
         23    2    1    2    0    0  0.00000000000E+00  0.00000000000E+00  0.36386927390E+02  0.99393453788E+02  0.92493514211E+02 0.  0.
    9000005    2    3    3    0    0  0.36300227909E+02  0.16498384387E+02  0.42283351299E+02  0.59086245394E+02  0.10648913749E+02 0.  0.
         22    1    3    3    0    0 -0.36300227909E+02 -0.16498384387E+02 -0.58964239092E+01  0.40307208394E+02  0.00000000000E+00 0. -1.
         22    1    4    4    0    0  0.35324661298E+02  0.13592428436E+02  0.40891094131E+02  0.55719542225E+02  0.00000000000E+00 0.  1.
         22    1    4    4    0    0  0.97556661102E+00  0.29059559510E+01  0.13922571686E+01  0.33667031685E+01  0.00000000000E+00 0.  1.
<mgrwt>
<rscale>  0 0.92493514E+02</rscale>
<asrwt>0</asrwt>
<pdfrwt beam="2">  1        3 0.48466559E-02 0.92493514E+02</pdfrwt>
<pdfrwt beam="1">  1       -3 0.10444645E-01 0.92493514E+02</pdfrwt>
<totfact> 0.33385162E+04</totfact>
</mgrwt>
</event>
<event>
 7    1  0.1247599E-009  0.9122267E+02  0.7818608E-02  0.1299918E+00
         -3   -1    0    0    0  501 -0.00000000000E+00  0.00000000000E+00  0.42512033441E+02  0.42512153419E+02  0.10100000000E+00 0.  1.
          3   -1    0    0  501    0  0.00000000000E+00 -0.00000000000E+00 -0.48936350876E+02  0.48936455103E+02  0.10100000000E+00 0. -1.
         23    2    1    2    0    0  0.88817841970E-15  0.00000000000E+00 -0.64243174351E+01  0.91448608522E+02  0.91222673421E+02 0.  0.
    9000005    2    3    3    0    0 -0.70916406181E+01 -0.42281187744E+02 -0.18757590074E+02  0.46838073693E+02  0.19919232507E+01 0.  0.
         22    1    3    3    0    0  0.70916406181E+01  0.42281187744E+02  0.12333272639E+02  0.44610534828E+02  0.00000000000E+00 0.  1.
         22    1    4    4    0    0 -0.53458909275E+01 -0.30048819043E+02 -0.12416339383E+02  0.32949591187E+02  0.00000000000E+00 0. -1.
         22    1    4    4    0    0 -0.17457496906E+01 -0.12232368700E+02 -0.63412506912E+01  0.13888482506E+02  0.00000000000E+00 0. -1.
<mgrwt>
<rscale>  0 0.91222673E+02</rscale>
<asrwt>0</asrwt>
<pdfrwt beam="2">  1        3 0.75286866E-02 0.91222673E+02</pdfrwt>
<pdfrwt beam="1">  1       -3 0.65403301E-02 0.91222673E+02</pdfrwt>
<totfact> 0.35269313E+04</totfact>
</mgrwt>
</event>
<event>
 7    1  0.1247599E-009  0.9015548E+02  0.7818608E-02  0.1302476E+00
         -3   -1    0    0    0  501 -0.00000000000E+00  0.00000000000E+00  0.89306135791E+02  0.89306192904E+02  0.10100000000E+00 0.  1.
          3   -1    0    0  501    0  0.00000000000E+00 -0.00000000000E+00 -0.22753047409E+02  0.22753271575E+02  0.10100000000E+00 0. -1.
         23    2    1    2    0    0  0.00000000000E+00  0.00000000000E+00  0.66553088383E+02  0.11205946448E+03  0.90155476851E+02 0.  0.
    9000005    2    3    3    0    0  0.10376159365E+02 -0.41636453816E+02  0.45898722306E+02  0.64437391786E+02  0.14290758598E+02 0.  0.
         22    1    3    3    0    0 -0.10376159365E+02  0.41636453816E+02  0.20654366076E+02  0.47622072693E+02  0.00000000000E+00 0. -1.
         22    1    4    4    0    0  0.61033584999E+01 -0.63652391994E+01  0.45571735592E+01  0.99264840650E+01  0.00000000000E+00 0.  1.
         22    1    4    4    0    0  0.42728008655E+01 -0.35271214617E+02  0.41341548747E+02  0.54510907721E+02  0.00000000000E+00 0.  1.
<mgrwt>
<rscale>  0 0.90155477E+02</rscale>
<asrwt>0</asrwt>
<pdfrwt beam="2">  1        3 0.35004905E-02 0.90155477E+02</pdfrwt>
<pdfrwt beam="1">  1       -3 0.13739427E-01 0.90155477E+02</pdfrwt>
<totfact> 0.34848979E+04</totfact>
</mgrwt>
</event>
<event>
 7    1  0.1247599E-009  0.9092579E+02  0.7818608E-02  0.1300625E+00
          3   -1    0    0  501    0  0.00000000000E+00  0.00000000000E+00  0.56782950522E+02  0.56783040347E+02  0.10100000000E+00 0. -1.
         -3   -1    0    0    0  501 -0.00000000000E+00 -0.00000000000E+00 -0.36399379210E+02  0.36399519336E+02  0.10100000000E+00 0.  1.
         23    2    1    2    0    0  0.00000000000E+00  0.88817841970E-15  0.20383571312E+02  0.93182559682E+02  0.90925790893E+02 0.  0.
    9000005    2    3    3    0    0  0.44445197653E+02  0.64532200521E+01  0.58994632673E+01  0.45993482245E+02  0.79735248611E+01 0.  0.
         22    1    3    3    0    0 -0.44445197653E+02 -0.64532200521E+01  0.14484108045E+02  0.47189077437E+02  0.00000000000E+00 0. -1.
         22    1    4    4    0    0  0.27975388389E+02  0.33695251872E+01  0.75072891660E+01  0.29160511760E+02  0.00000000000E+00 0.  1.
         22    1    4    4    0    0  0.16469809264E+02  0.30836948649E+01 -0.16078258987E+01  0.16832970485E+02  0.00000000000E+00 0.  1.
<mgrwt>
<rscale>  0 0.90925791E+02</rscale>
<asrwt>0</asrwt>
<pdfrwt beam="1">  1        3 0.87358563E-02 0.90925791E+02</pdfrwt>
<pdfrwt beam="2">  1       -3 0.55999221E-02 0.90925791E+02</pdfrwt>
<totfact> 0.35450364E+04</totfact>
</mgrwt>
</event>
<event>
 7    1  0.1247599E-009  0.8805894E+02  0.7818608E-02  0.1307622E+00
         -3   -1    0    0    0  501 -0.00000000000E+00  0.00000000000E+00  0.21104064572E+02  0.21104306254E+02  0.10100000000E+00 0.  1.
          3   -1    0    0  501    0  0.00000000000E+00 -0.00000000000E+00 -0.91858010247E+02  0.91858065773E+02  0.10100000000E+00 0. -1.
         23    2    1    2    0    0  0.35527136788E-14  0.17763568394E-14 -0.70753945676E+02  0.11296237203E+03  0.88058938588E+02 0.  0.
    9000005    2    3    3    0    0  0.21658328872E+02  0.14724758053E+02 -0.80689135450E+02  0.84951486552E+02  0.44851731785E+01 0.  0.
         22    1    3    3    0    0 -0.21658328872E+02 -0.14724758053E+02  0.99351897743E+01  0.28010885475E+02  0.00000000000E+00 0.  1.
         22    1    4    4    0    0  0.42977644315E+01  0.43276179681E+01 -0.14287136903E+02  0.15534520826E+02  0.00000000000E+00 0. -1.
         22    1    4    4    0    0  0.17360564440E+02  0.10397140085E+02 -0.66401998547E+02  0.69416965726E+02  0.00000000000E+00 0. -1.
<mgrwt>
<rscale>  0 0.88058939E+02</rscale>
<asrwt>0</asrwt>
<pdfrwt beam="2">  1        3 0.14132024E-01 0.88058939E+02</pdfrwt>
<pdfrwt beam="1">  1       -3 0.32468021E-02 0.88058939E+02</pdfrwt>
<totfact> 0.37067911E+04</totfact>
</mgrwt>
</event>
<event>
 7    1  0.1353170E-009  0.8818101E+02  0.7818608E-02  0.1307317E+00
          3   -1    0    0  501    0  0.00000000000E+00  0.00000000000E+00  0.11265409913E+03  0.11265414441E+03  0.10100000000E+00 0. -1.
         -3   -1    0    0    0  501 -0.00000000000E+00 -0.00000000000E+00 -0.17255922112E+02  0.17256217689E+02  0.10100000000E+00 0.  1.
         23    2    1    2    0    0  0.00000000000E+00  0.00000000000E+00  0.95398177021E+02  0.12991036210E+03  0.88181007033E+02 0.  0.
    9000005    2    3    3    0    0 -0.18560024024E+02 -0.33836492252E+02  0.76047750792E+02  0.86738360813E+02  0.15839827531E+02 0.  0.
         22    1    3    3    0    0  0.18560024024E+02  0.33836492252E+02  0.19350426229E+02  0.43172001285E+02  0.00000000000E+00 0. -1.
         22    1    4    4    0    0 -0.97451430882E+01 -0.25707419335E+02  0.64393868628E+02  0.70017208882E+02  0.00000000000E+00 0. -1.
         22    1    4    4    0    0 -0.88148809358E+01 -0.81290729175E+01  0.11653882164E+02  0.16721151931E+02  0.00000000000E+00 0. -1.
<mgrwt>
<rscale>  0 0.88181007E+02</rscale>
<asrwt>0</asrwt>
<pdfrwt beam="1">  1        3 0.17331425E-01 0.88181007E+02</pdfrwt>
<pdfrwt beam="2">  1       -3 0.26547836E-02 0.88181007E+02</pdfrwt>
<totfact> 0.35661542E+04</totfact>
</mgrwt>
</event>
<event>
 7    1  0.1247599E-009  0.9017026E+02  0.7818608E-02  0.1302440E+00
          3   -1    0    0  501    0  0.00000000000E+00  0.00000000000E+00  0.96738911773E+02  0.96738964497E+02  0.10100000000E+00 0. -1.
         -3   -1    0    0    0  501 -0.00000000000E+00 -0.00000000000E+00 -0.21011725422E+02  0.21011968166E+02  0.10100000000E+00 0.  1.
         23    2    1    2    0    0 -0.88817841970E-15  0.00000000000E+00  0.75727186351E+02  0.11775093266E+03  0.90170257792E+02 0.  0.
    9000005    2    3    3    0    0  0.77161571329E+01 -0.42388333678E+02  0.54169612608E+02  0.69573771075E+02  0.70606500148E+01 0.  0.
         22    1    3    3    0    0 -0.77161571329E+01  0.42388333678E+02  0.21557573743E+02  0.48177161587E+02  0.00000000000E+00 0.  1.
         22    1    4    4    0    0  0.12632365237E+01 -0.70799408270E+00  0.13393463673E+01  0.19725290436E+01  0.00000000000E+00 0. -1.
         22    1    4    4    0    0  0.64529206092E+01 -0.41680339595E+02  0.52830266241E+02  0.67601242032E+02  0.00000000000E+00 0. -1.
<mgrwt>
<rscale>  0 0.90170258E+02</rscale>
<asrwt>0</asrwt>
<pdfrwt beam="1">  1        3 0.14882932E-01 0.90170258E+02</pdfrwt>
<pdfrwt beam="2">  1       -3 0.32325958E-02 0.90170258E+02</pdfrwt>
<totfact> 0.34421382E+04</totfact>
</mgrwt>
</event>
<event>
 7    1  0.1247599E-009  0.8944421E+02  0.7818608E-02  0.1304203E+00
          3   -1    0    0  501    0  0.00000000000E+00  0.00000000000E+00  0.17084600521E+02  0.17084899063E+02  0.10100000000E+00 0. -1.
         -3   -1    0    0    0  501 -0.00000000000E+00 -0.00000000000E+00 -0.11706704326E+03  0.11706708683E+03  0.10100000000E+00 0.  1.
         23    2    1    2    0    0  0.00000000000E+00  0.00000000000E+00 -0.99982442736E+02  0.13415198589E+03  0.89444208658E+02 0.  0.
    9000005    2    3    3    0    0  0.20670491138E+01 -0.43494855920E+02 -0.38068428126E+02  0.58459051022E+02  0.84958956504E+01 0.  0.
         22    1    3    3    0    0 -0.20670491138E+01  0.43494855920E+02 -0.61914014610E+02  0.75692934867E+02  0.00000000000E+00 0.  1.
         22    1    4    4    0    0  0.31003066783E+01 -0.52336819608E+01 -0.55785947893E+01  0.82537293504E+01  0.00000000000E+00 0.  1.
         22    1    4    4    0    0 -0.10332575645E+01 -0.38261173960E+02 -0.32489833337E+02  0.50205321672E+02  0.00000000000E+00 0.  1.
<mgrwt>
<rscale>  0 0.89444209E+02</rscale>
<asrwt>0</asrwt>
<pdfrwt beam="1">  1        3 0.26284265E-02 0.89444209E+02</pdfrwt>
<pdfrwt beam="2">  1       -3 0.18010340E-01 0.89444209E+02</pdfrwt>
<totfact> 0.34027249E+04</totfact>
</mgrwt>
</event>
<event>
 7    1  0.1247599E-009  0.7975240E+02  0.7818608E-02  0.1329756E+00
         -3   -1    0    0    0  501 -0.00000000000E+00  0.00000000000E+00  0.14759883818E+03  0.14759887274E+03  0.10100000000E+00 0.  1.
          3   -1    0    0  501    0  0.00000000000E+00 -0.00000000000E+00 -0.10772925015E+02  0.10773398460E+02  0.10100000000E+00 0. -1.
         23    2    1    2    0    0  0.00000000000E+00  0.00000000000E+00  0.13682591317E+03  0.15837227120E+03  0.79752402913E+02 0.  0.
    9000005    2    3    3    0    0  0.55837773725E+00  0.37607363521E+02  0.42457813106E+02  0.56785048154E+02  0.26926238881E+01 0.  0.
         22    1    3    3    0    0 -0.55837773725E+00 -0.37607363521E+02  0.94368100063E+02  0.10158722305E+03  0.00000000000E+00 0.  1.
         22    1    4    4    0    0  0.45720482028E+00  0.19560627524E+02  0.20071730709E+02  0.28030368514E+02  0.00000000000E+00 0. -1.
         22    1    4    4    0    0  0.10117291697E+00  0.18046735996E+02  0.22386082397E+02  0.28754679639E+02  0.00000000000E+00 0. -1.
<mgrwt>
<rscale>  0 0.79752403E+02</rscale>
<asrwt>0</asrwt>
<pdfrwt beam="2">  1        3 0.16574123E-02 0.79752403E+02</pdfrwt>
<pdfrwt beam="1">  1       -3 0.22707551E-01 0.79752403E+02</pdfrwt>
<totfact> 0.44109666E+04</totfact>
</mgrwt>
</event>
<event>
 7    1  0.1247599E-009  0.9186613E+02  0.7818608E-02  0.1298394E+00
          3   -1    0    0  501    0  0.00000000000E+00  0.00000000000E+00  0.10446479139E+03  0.10446484022E+03  0.10100000000E+00 0. -1.
         -3   -1    0    0    0  501 -0.00000000000E+00 -0.00000000000E+00 -0.20196542903E+02  0.20196795445E+02  0.10100000000E+00 0.  1.
         23    2    1    2    0    0 -0.17763568394E-14  0.00000000000E+00  0.84268248487E+02  0.12466163566E+03  0.91866129244E+02 0.  0.
    9000005    2    3    3    0    0  0.11945339551E+02  0.34991310354E+02  0.90727695524E+01  0.40867584621E+02  0.14858041191E+02 0.  0.
         22    1    3    3    0    0 -0.11945339551E+02 -0.34991310354E+02  0.75195478935E+02  0.83794051039E+02  0.00000000000E+00 0.  1.
         22    1    4    4    0    0 -0.79026217473E-01  0.22527042116E+02  0.53170127341E+01  0.23146155103E+02  0.00000000000E+00 0. -1.
         22    1    4    4    0    0  0.12024365769E+02  0.12464268239E+02  0.37557568183E+01  0.17721429518E+02  0.00000000000E+00 0. -1.
<mgrwt>
<rscale>  0 0.91866129E+02</rscale>
<asrwt>0</asrwt>
<pdfrwt beam="1">  1        3 0.16071530E-01 0.91866129E+02</pdfrwt>
<pdfrwt beam="2">  1       -3 0.31071836E-02 0.91866129E+02</pdfrwt>
<totfact> 0.32262651E+04</totfact>
</mgrwt>
</event>
<event>
 7    1  0.1247599E-009  0.9286061E+02  0.7818608E-02  0.1296069E+00
         -3   -1    0    0    0  501 -0.00000000000E+00  0.00000000000E+00  0.14357407792E+02  0.14357763039E+02  0.10100000000E+00 0.  1.
          3   -1    0    0  501    0  0.00000000000E+00 -0.00000000000E+00 -0.15014837004E+03  0.15014840401E+03  0.10100000000E+00 0. -1.
         23    2    1    2    0    0  0.00000000000E+00  0.00000000000E+00 -0.13579096225E+03  0.16450616705E+03  0.92860613659E+02 0.  0.
    9000005    2    3    3    0    0 -0.18946586557E+02 -0.42006108026E+02 -0.76600922013E+02  0.89493187395E+02  0.42241073921E+01 0.  0.
         22    1    3    3    0    0  0.18946586557E+02  0.42006108026E+02 -0.59190040238E+02  0.75012979657E+02  0.00000000000E+00 0. -1.
         22    1    4    4    0    0 -0.14019187163E+02 -0.35045223838E+02 -0.62271136551E+02  0.72817578715E+02  0.00000000000E+00 0. -1.
         22    1    4    4    0    0 -0.49273993943E+01 -0.69608841878E+01 -0.14329785462E+02  0.16675608680E+02  0.00000000000E+00 0. -1.
<mgrwt>
<rscale>  0 0.92860614E+02</rscale>
<asrwt>0</asrwt>
<pdfrwt beam="2">  1        3 0.23099778E-01 0.92860614E+02</pdfrwt>
<pdfrwt beam="1">  1       -3 0.22088620E-02 0.92860614E+02</pdfrwt>
<totfact> 0.28968645E+04</totfact>
</mgrwt>
</event>
<event>
 7    1  0.1247599E-009  0.8862402E+02  0.7818608E-02  0.1306218E+00
         -3   -1    0    0    0  501 -0.00000000000E+00  0.00000000000E+00  0.46541432795E+02  0.46541542386E+02  0.10100000000E+00 0.  1.
          3   -1    0    0  501    0  0.00000000000E+00 -0.00000000000E+00 -0.42189164399E+02  0.42189285295E+02  0.10100000000E+00 0. -1.
         23    2    1    2    0    0  0.00000000000E+00 -0.35527136788E-14  0.43522683962E+01  0.88730827681E+02  0.88624023497E+02 0.  0.
    9000005    2    3    3    0    0 -0.38315755078E+02 -0.17876746349E+02 -0.71488508832E+01  0.44913583451E+02  0.13358471554E+02 0.  0.
         22    1    3    3    0    0  0.38315755078E+02  0.17876746349E+02  0.11501119279E+02  0.43817244230E+02  0.00000000000E+00 0.  1.
         22    1    4    4    0    0 -0.28617311367E+02 -0.18046578741E+02 -0.19026466347E+01  0.33885831529E+02  0.00000000000E+00 0.  1.
         22    1    4    4    0    0 -0.96984437104E+01  0.16983239288E+00 -0.52462042484E+01  0.11027751922E+02  0.00000000000E+00 0.  1.
<mgrwt>
<rscale>  0 0.88624023E+02</rscale>
<asrwt>0</asrwt>
<pdfrwt beam="2">  1        3 0.64906584E-02 0.88624023E+02</pdfrwt>
<pdfrwt beam="1">  1       -3 0.71602382E-02 0.88624023E+02</pdfrwt>
<totfact> 0.38377799E+04</totfact>
</mgrwt>
</event>
<event>
 7    1  0.1247599E-009  0.9255269E+02  0.7818608E-02  0.1296785E+00
         -3   -1    0    0    0  501 -0.00000000000E+00  0.00000000000E+00  0.69610957829E+02  0.69611031100E+02  0.10100000000E+00 0.  1.
          3   -1    0    0  501    0  0.00000000000E+00 -0.00000000000E+00 -0.30763665242E+02  0.30763831038E+02  0.10100000000E+00 0. -1.
         23    2    1    2    0    0  0.00000000000E+00  0.00000000000E+00  0.38847292587E+02  0.10037486214E+03  0.92552692062E+02 0.  0.
    9000005    2    3    3    0    0 -0.74474229332E+01 -0.36902352458E+02 -0.66332744658E+01  0.41334793500E+02  0.15726318650E+02 0.  0.
         22    1    3    3    0    0  0.74474229332E+01  0.36902352458E+02  0.45480567053E+02  0.59040068638E+02  0.00000000000E+00 0.  1.
         22    1    4    4    0    0 -0.18353860956E+01 -0.10058643842E+02  0.51948197253E+01  0.11468701323E+02  0.00000000000E+00 0. -1.
         22    1    4    4    0    0 -0.56120368376E+01 -0.26843708617E+02 -0.11828094191E+02  0.29866092178E+02  0.00000000000E+00 0. -1.
<mgrwt>
<rscale>  0 0.92552692E+02</rscale>
<asrwt>0</asrwt>
<pdfrwt beam="2">  1        3 0.47328900E-02 0.92552692E+02</pdfrwt>
<pdfrwt beam="1">  1       -3 0.10709396E-01 0.92552692E+02</pdfrwt>
<totfact> 0.33257190E+04</totfact>
</mgrwt>
</event>
<event>
 7    1  0.1247599E-009  0.9214417E+02  0.7818608E-02  0.1297741E+00
         -3   -1    0    0    0  501 -0.00000000000E+00  0.00000000000E+00  0.66068904732E+01  0.66076624251E+01  0.10100000000E+00 0.  1.
          3   -1    0    0  501    0  0.00000000000E+00 -0.00000000000E+00 -0.32125673153E+03  0.32125674741E+03  0.10100000000E+00 0. -1.
         23    2    1    2    0    0  0.00000000000E+00  0.88817841970E-15 -0.31464984106E+03  0.32786440983E+03  0.92144173757E+02 0.  0.
    9000005    2    3    3    0    0 -0.43946273283E+02  0.50858122676E+01 -0.19975753364E+03  0.20474908696E+03  0.78724801530E+01 0.  0.
         22    1    3    3    0    0  0.43946273283E+02 -0.50858122676E+01 -0.11489230742E+03  0.12311532287E+03  0.00000000000E+00 0. -1.
         22    1    4    4    0    0 -0.84694071859E+01 -0.19021403326E+01 -0.33648623652E+02  0.34750235533E+02  0.00000000000E+00 0.  1.
         22    1    4    4    0    0 -0.35476866097E+02  0.69879526002E+01 -0.16610890999E+03  0.16999885143E+03  0.00000000000E+00 0.  1.
<mgrwt>
<rscale>  0 0.92144174E+02</rscale>
<asrwt>0</asrwt>
<pdfrwt beam="2">  1        3 0.49424161E-01 0.92144174E+02</pdfrwt>
<pdfrwt beam="1">  1       -3 0.10165055E-02 0.92144174E+02</pdfrwt>
<totfact> 0.22349115E+04</totfact>
</mgrwt>
</event>
<event>
 7    1  0.1247599E-009  0.8983824E+02  0.7818608E-02  0.1303244E+00
         -3   -1    0    0    0  501 -0.00000000000E+00  0.00000000000E+00  0.10730610133E+02  0.10731085445E+02  0.10100000000E+00 0.  1.
          3   -1    0    0  501    0  0.00000000000E+00 -0.00000000000E+00 -0.18803005878E+03  0.18803008590E+03  0.10100000000E+00 0. -1.
         23    2    1    2    0    0  0.00000000000E+00  0.00000000000E+00 -0.17729944864E+03  0.19876117135E+03  0.89838236547E+02 0.  0.
    9000005    2    3    3    0    0 -0.42474194388E+02 -0.13720763406E+02 -0.97107923309E+02  0.10698428279E+03  0.48344035572E+01 0.  0.
         22    1    3    3    0    0  0.42474194388E+02  0.13720763406E+02 -0.80191525333E+02  0.91776888554E+02  0.00000000000E+00 0.  1.
         22    1    4    4    0    0 -0.24644536335E+02 -0.55587911010E+01 -0.56389938261E+02  0.61790601767E+02  0.00000000000E+00 0. -1.
         22    1    4    4    0    0 -0.17829658052E+02 -0.81619723048E+01 -0.40717985049E+02  0.45193681025E+02  0.00000000000E+00 0. -1.
<mgrwt>
<rscale>  0 0.89838237E+02</rscale>
<asrwt>0</asrwt>
<pdfrwt beam="2">  1        3 0.28927737E-01 0.89838237E+02</pdfrwt>
<pdfrwt beam="1">  1       -3 0.16509019E-02 0.89838237E+02</pdfrwt>
<totfact> 0.29723040E+04</totfact>
</mgrwt>
</event>
<event>
 7    1  0.1247599E-009  0.9102177E+02  0.7818608E-02  0.1300396E+00
          3   -1    0    0  501    0  0.00000000000E+00  0.00000000000E+00  0.43058481458E+02  0.43058599913E+02  0.10100000000E+00 0. -1.
         -3   -1    0    0    0  501 -0.00000000000E+00 -0.00000000000E+00 -0.48102731223E+02  0.48102837257E+02  0.10100000000E+00 0.  1.
         23    2    1    2    0    0  0.00000000000E+00 -0.17763568394E-14 -0.50442497658E+01  0.91161437170E+02  0.91021773061E+02 0.  0.
    9000005    2    3    3    0    0  0.25000402438E+02 -0.14594749707E+02 -0.36120024467E+02  0.48691087344E+02  0.15104270195E+02 0.  0.
         22    1    3    3    0    0 -0.25000402438E+02  0.14594749707E+02  0.31075774701E+02  0.42470349826E+02  0.00000000000E+00 0. -1.
         22    1    4    4    0    0  0.15536382300E+01  0.29515522033E+01 -0.43699385057E+01  0.54974371031E+01  0.00000000000E+00 0.  1.
         22    1    4    4    0    0  0.23446764208E+02 -0.17546301910E+02 -0.31750085961E+02  0.43193650240E+02  0.00000000000E+00 0.  1.
<mgrwt>
<rscale>  0 0.91021773E+02</rscale>
<asrwt>0</asrwt>
<pdfrwt beam="1">  1        3 0.66243990E-02 0.91021773E+02</pdfrwt>
<pdfrwt beam="2">  1       -3 0.74004374E-02 0.91021773E+02</pdfrwt>
<totfact> 0.35504494E+04</totfact>
</mgrwt>
</event>
<event>
 7    1  0.1247599E-009  0.9266948E+02  0.7818608E-02  0.1296513E+00
          3   -1    0    0  501    0  0.00000000000E+00  0.00000000000E+00  0.36291052782E+02  0.36291193326E+02  0.10100000000E+00 0. -1.
         -3   -1    0    0    0  501 -0.00000000000E+00 -0.00000000000E+00 -0.59157753017E+02  0.59157839236E+02  0.10100000000E+00 0.  1.
         23    2    1    2    0    0  0.00000000000E+00  0.35527136788E-14 -0.22866700235E+02  0.95449032562E+02  0.92669476298E+02 0.  0.
    9000005    2    3    3    0    0 -0.82188853988E+01  0.28442772714E+02 -0.47868470633E+02  0.56698162638E+02  0.68373802629E+01 0.  0.
         22    1    3    3    0    0  0.82188853988E+01 -0.28442772714E+02  0.25001770398E+02  0.38750869924E+02  0.00000000000E+00 0. -1.
         22    1    4    4    0    0 -0.86026576113E+01  0.18757078800E+02 -0.34151840434E+02  0.39902154430E+02  0.00000000000E+00 0.  1.
         22    1    4    4    0    0  0.38377221248E+00  0.96856939135E+01 -0.13716630199E+02  0.16796008208E+02  0.00000000000E+00 0.  1.
<mgrwt>
<rscale>  0 0.92669476E+02</rscale>
<asrwt>0</asrwt>
<pdfrwt beam="1">  1        3 0.55832563E-02 0.92669476E+02</pdfrwt>
<pdfrwt beam="2">  1       -3 0.91012102E-02 0.92669476E+02</pdfrwt>
<totfact> 0.33495204E+04</totfact>
</mgrwt>
</event>
<event>
 7    1  0.1247599E-009  0.9919221E+02  0.7818608E-02  0.1282004E+00
          3   -1    0    0  501    0  0.00000000000E+00  0.00000000000E+00  0.25280692996E+02  0.25280894750E+02  0.10100000000E+00 0. -1.
         -3   -1    0    0    0  501 -0.00000000000E+00 -0.00000000000E+00 -0.97297886069E+02  0.97297938491E+02  0.10100000000E+00 0.  1.
         23    2    1    2    0    0  0.00000000000E+00  0.00000000000E+00 -0.72017193073E+02  0.12257883324E+03  0.99192208669E+02 0.  0.
    9000005    2    3    3    0    0  0.28212637658E+02  0.13751626973E+02 -0.83152476433E+02  0.89276360307E+02  0.84186700044E+01 0.  0.
         22    1    3    3    0    0 -0.28212637658E+02 -0.13751626973E+02  0.11135283361E+02  0.33302472934E+02  0.00000000000E+00 0. -1.
         22    1    4    4    0    0  0.20937794709E+02  0.13751768035E+02 -0.60378965396E+02  0.65369119878E+02  0.00000000000E+00 0. -1.
         22    1    4    4    0    0  0.72748429493E+01 -0.14106188064E-03 -0.22773511038E+02  0.23907240429E+02  0.00000000000E+00 0. -1.
<mgrwt>
<rscale>  0 0.99192209E+02</rscale>
<asrwt>0</asrwt>
<pdfrwt beam="1">  1        3 0.38893570E-02 0.99192209E+02</pdfrwt>
<pdfrwt beam="2">  1       -3 0.14968925E-01 0.99192209E+02</pdfrwt>
<totfact> 0.26272146E+04</totfact>
</mgrwt>
</event>
<event>
 7    1  0.1247599E-009  0.9236451E+02  0.7818608E-02  0.1297225E+00
          3   -1    0    0  501    0  0.00000000000E+00  0.00000000000E+00  0.36660806167E+02  0.36660945293E+02  0.10100000000E+00 0. -1.
         -3   -1    0    0    0  501 -0.00000000000E+00 -0.00000000000E+00 -0.58176297818E+02  0.58176385491E+02  0.10100000000E+00 0.  1.
         23    2    1    2    0    0  0.35527136788E-14  0.00000000000E+00 -0.21515491651E+02  0.94837330785E+02  0.92364511201E+02 0.  0.
    9000005    2    3    3    0    0  0.21424845515E+02  0.33450461604E+02 -0.33239689765E+02  0.53419771607E+02  0.13070487212E+02 0.  0.
         22    1    3    3    0    0 -0.21424845515E+02 -0.33450461604E+02  0.11724198114E+02  0.41417559178E+02  0.00000000000E+00 0. -1.
         22    1    4    4    0    0  0.20706249894E+02  0.28138371190E+02 -0.32994559079E+02  0.48053695453E+02  0.00000000000E+00 0.  1.
         22    1    4    4    0    0  0.71859562173E+00  0.53120904137E+01 -0.24513068613E+00  0.53660761534E+01  0.00000000000E+00 0.  1.
<mgrwt>
<rscale>  0 0.92364511E+02</rscale>
<asrwt>0</asrwt>
<pdfrwt beam="1">  1        3 0.56401415E-02 0.92364511E+02</pdfrwt>
<pdfrwt beam="2">  1       -3 0.89502171E-02 0.92364511E+02</pdfrwt>
<totfact> 0.33842993E+04</totfact>
</mgrwt>
</event>
<event>
 7    1  0.1247599E-009  0.1154990E+03  0.7818608E-02  0.1250712E+00
         -3   -1    0    0    0  501 -0.00000000000E+00  0.00000000000E+00  0.52789229366E+01  0.52798890491E+01  0.10100000000E+00 0. -1.
          3   -1    0    0  501    0  0.00000000000E+00 -0.00000000000E+00 -0.63170028089E+03  0.63170028896E+03  0.10100000000E+00 0.  1.
         23    2    1    2    0    0  0.00000000000E+00  0.00000000000E+00 -0.62642135795E+03  0.63698017801E+03  0.11549904537E+03 0.  0.
    9000005    2    3    3    0    0 -0.34497910413E+01  0.57187241625E+02 -0.28371997655E+03  0.28952295982E+03  0.66511279528E+01 0.  0.
         22    1    3    3    0    0  0.34497910413E+01 -0.57187241625E+02 -0.34270138140E+03  0.34745721820E+03  0.00000000000E+00 0.  1.
         22    1    4    4    0    0 -0.23250176059E+01  0.22856651683E+02 -0.98390694315E+02  0.10103742357E+03  0.00000000000E+00 0.  1.
         22    1    4    4    0    0 -0.11247734354E+01  0.34330589942E+02 -0.18532928224E+03  0.18848553625E+03  0.00000000000E+00 0.  1.
<mgrwt>
<rscale>  0 0.11549905E+03</rscale>
<asrwt>0</asrwt>
<pdfrwt beam="2">  1        3 0.97184674E-01 0.11549905E+03</pdfrwt>
<pdfrwt beam="1">  1       -3 0.81221743E-03 0.11549905E+03</pdfrwt>
<totfact> 0.79357937E+03</totfact>
</mgrwt>
</event>
<event>
 7    1  0.1247599E-009  0.9106839E+02  0.7818608E-02  0.1300285E+00
          3   -1    0    0  501    0  0.00000000000E+00  0.00000000000E+00  0.16245116014E+02  0.16245429982E+02  0.10100000000E+00 0. -1.
         -3   -1    0    0    0  501 -0.00000000000E+00 -0.00000000000E+00 -0.12762836300E+03  0.12762840296E+03  0.10100000000E+00 0.  1.
         23    2    1    2    0    0  0.00000000000E+00  0.00000000000E+00 -0.11138324699E+03  0.14387383295E+03  0.91068392416E+02 0.  0.
    9000005    2    3    3    0    0 -0.17439634094E+02  0.23230082201E+02 -0.10992888002E+03  0.11478959770E+03  0.15764375064E+02 0.  0.
         22    1    3    3    0    0  0.17439634094E+02 -0.23230082201E+02 -0.14543669630E+01  0.29084235243E+02  0.00000000000E+00 0. -1.
         22    1    4    4    0    0 -0.63593018082E+01  0.15736732033E+02 -0.37869256314E+02  0.41498988281E+02  0.00000000000E+00 0. -1.
         22    1    4    4    0    0 -0.11080332286E+02  0.74933501689E+01 -0.72059623708E+02  0.73290609421E+02  0.00000000000E+00 0. -1.
<mgrwt>
<rscale>  0 0.91068392E+02</rscale>
<asrwt>0</asrwt>
<pdfrwt beam="1">  1        3 0.24992759E-02 0.91068392E+02</pdfrwt>
<pdfrwt beam="2">  1       -3 0.19635159E-01 0.91068392E+02</pdfrwt>
<totfact> 0.31789821E+04</totfact>
</mgrwt>
</event>
<event>
 7    1  0.1247599E-009  0.9153657E+02  0.7818608E-02  0.1299173E+00
         -3   -1    0    0    0  501 -0.00000000000E+00  0.00000000000E+00  0.38729094935E+03  0.38729096252E+03  0.10100000000E+00 0.  1.
          3   -1    0    0  501    0  0.00000000000E+00 -0.00000000000E+00 -0.54082031067E+01  0.54091461288E+01  0.10100000000E+00 0. -1.
         23    2    1    2    0    0 -0.71054273576E-14  0.00000000000E+00  0.38188274625E+03  0.39270010865E+03  0.91536568945E+02 0.  0.
    9000005    2    3    3    0    0  0.41777645092E+02 -0.11754490577E+02  0.14843554884E+03  0.15525299105E+03  0.13668920728E+02 0.  0.
         22    1    3    3    0    0 -0.41777645092E+02  0.11754490577E+02  0.23344719741E+03  0.23744711760E+03  0.00000000000E+00 0. -1.
         22    1    4    4    0    0  0.41122050662E+02 -0.98835862330E+01  0.12989611583E+03  0.13660786667E+03  0.00000000000E+00 0. -1.
         22    1    4    4    0    0  0.65559442993E+00 -0.18709043437E+01  0.18539433008E+02  0.18645124386E+02  0.00000000000E+00 0. -1.
<mgrwt>
<rscale>  0 0.91536569E+02</rscale>
<asrwt>0</asrwt>
<pdfrwt beam="2">  1        3 0.83210437E-03 0.91536569E+02</pdfrwt>
<pdfrwt beam="1">  1       -3 0.59583327E-01 0.91536569E+02</pdfrwt>
<totfact> 0.20604371E+04</totfact>
</mgrwt>
</event>
<event>
 7    1  0.1247599E-009  0.9254961E+02  0.7818608E-02  0.1296792E+00
          3   -1    0    0  501    0  0.00000000000E+00  0.00000000000E+00  0.14373503551E+02  0.14373858401E+02  0.10100000000E+00 0. -1.
         -3   -1    0    0    0  501 -0.00000000000E+00 -0.00000000000E+00 -0.14897729893E+03  0.14897733316E+03  0.10100000000E+00 0.  1.
         23    2    1    2    0    0 -0.71054273576E-14  0.00000000000E+00 -0.13460379537E+03  0.16335119156E+03  0.92549608622E+02 0.  0.
    9000005    2    3    3    0    0  0.33436120000E+02 -0.29994088229E+02 -0.57128846337E+02  0.73796810444E+02  0.12831395039E+02 0.  0.
         22    1    3    3    0    0 -0.33436120000E+02  0.29994088229E+02 -0.77474949037E+02  0.89554381119E+02  0.00000000000E+00 0.  1.
         22    1    4    4    0    0  0.29922577356E+02 -0.28956295720E+02 -0.56326410011E+02  0.70046357237E+02  0.00000000000E+00 0.  1.
         22    1    4    4    0    0  0.35135426442E+01 -0.10377925085E+01 -0.80243632595E+00  0.37504532074E+01  0.00000000000E+00 0.  1.
<mgrwt>
<rscale>  0 0.92549609E+02</rscale>
<asrwt>0</asrwt>
<pdfrwt beam="1">  1        3 0.22113383E-02 0.92549609E+02</pdfrwt>
<pdfrwt beam="2">  1       -3 0.22919613E-01 0.92549609E+02</pdfrwt>
<totfact> 0.29298581E+04</totfact>
</mgrwt>
</event>
<event>
 7    1  0.1247599E-009  0.9049008E+02  0.7818608E-02  0.1301669E+00
          3   -1    0    0  501    0  0.00000000000E+00  0.00000000000E+00  0.15237049809E+02  0.15237384549E+02  0.10100000000E+00 0.  1.
         -3   -1    0    0    0  501 -0.00000000000E+00 -0.00000000000E+00 -0.13434920716E+03  0.13434924512E+03  0.10100000000E+00 0. -1.
         23    2    1    2    0    0  0.00000000000E+00  0.00000000000E+00 -0.11911215735E+03  0.14958662967E+03  0.90490075413E+02 0.  0.
    9000005    2    3    3    0    0  0.19341984959E+02 -0.45117656169E+01 -0.12651914229E+03  0.12838918083E+03  0.90675232181E+01 0.  0.
         22    1    3    3    0    0 -0.19341984959E+02  0.45117656169E+01  0.74069849469E+01  0.21197448836E+02  0.00000000000E+00 0.  1.
         22    1    4    4    0    0  0.15262317109E+02 -0.81878797343E-01 -0.10231379792E+03  0.10344591955E+03  0.00000000000E+00 0.  1.
         22    1    4    4    0    0  0.40796678505E+01 -0.44298868195E+01 -0.24205344378E+02  0.24943261284E+02  0.00000000000E+00 0.  1.
<mgrwt>
<rscale>  0 0.90490075E+02</rscale>
<asrwt>0</asrwt>
<pdfrwt beam="1">  1        3 0.23441903E-02 0.90490075E+02</pdfrwt>
<pdfrwt beam="2">  1       -3 0.20669137E-01 0.90490075E+02</pdfrwt>
<totfact> 0.31980669E+04</totfact>
</mgrwt>
</event>
<event>
 7    1  0.1247892E-009  0.9326427E+02  0.7818608E-02  0.1295134E+00
         -3   -1    0    0    0  501 -0.00000000000E+00  0.00000000000E+00  0.31908242179E+02  0.31908402028E+02  0.10100000000E+00 0.  1.
          3   -1    0    0  501    0  0.00000000000E+00 -0.00000000000E+00 -0.68149927561E+02  0.68150002403E+02  0.10100000000E+00 0. -1.
         23    2    1    2    0    0  0.00000000000E+00  0.17763568394E-14 -0.36241685381E+02  0.10005840443E+03  0.93264272570E+02 0.  0.
    9000005    2    3    3    0    0 -0.13739008942E+02 -0.98699019062E+01 -0.63775799646E+02  0.67742730545E+02  0.15347624924E+02 0.  0.
         22    1    3    3    0    0  0.13739008942E+02  0.98699019062E+01  0.27534114265E+02  0.32315673886E+02  0.00000000000E+00 0.  1.
         22    1    4    4    0    0 -0.10643928698E+02 -0.13411994803E+02 -0.56835116836E+02  0.59358279359E+02  0.00000000000E+00 0. -1.
         22    1    4    4    0    0 -0.30950802444E+01  0.35420928972E+01 -0.69406828106E+01  0.83844511859E+01  0.00000000000E+00 0. -1.
<mgrwt>
<rscale>  0 0.93264273E+02</rscale>
<asrwt>0</asrwt>
<pdfrwt beam="2">  1        3 0.10484622E-01 0.93264273E+02</pdfrwt>
<pdfrwt beam="1">  1       -3 0.49089784E-02 0.93264273E+02</pdfrwt>
<totfact> 0.32589381E+04</totfact>
</mgrwt>
</event>
<event>
 7    1  0.1247599E-009  0.9232619E+02  0.7818608E-02  0.1297314E+00
         -3   -1    0    0    0  501 -0.00000000000E+00  0.00000000000E+00  0.10206163247E+03  0.10206168244E+03  0.10100000000E+00 0.  1.
          3   -1    0    0  501    0  0.00000000000E+00 -0.00000000000E+00 -0.20879670818E+02  0.20879915097E+02  0.10100000000E+00 0. -1.
         23    2    1    2    0    0 -0.35527136788E-14  0.00000000000E+00  0.81181961648E+02  0.12294159754E+03  0.92326190802E+02 0.  0.
    9000005    2    3    3    0    0  0.28890058416E+02 -0.75597037998E+01 -0.59519733279E+01  0.30832383985E+02  0.48399709567E+01 0.  0.
         22    1    3    3    0    0 -0.28890058416E+02  0.75597037998E+01  0.87133934976E+02  0.92109213552E+02  0.00000000000E+00 0.  1.
         22    1    4    4    0    0  0.26591595673E+02 -0.66874481574E+01 -0.67671855939E+01  0.28242339212E+02  0.00000000000E+00 0. -1.
         22    1    4    4    0    0  0.22984627432E+01 -0.87225564236E+00  0.81521226601E+00  0.25900447730E+01  0.00000000000E+00 0. -1.
<mgrwt>
<rscale>  0 0.92326191E+02</rscale>
<asrwt>0</asrwt>
<pdfrwt beam="2">  1        3 0.32122797E-02 0.92326191E+02</pdfrwt>
<pdfrwt beam="1">  1       -3 0.15701812E-01 0.92326191E+02</pdfrwt>
<totfact> 0.31940289E+04</totfact>
</mgrwt>
</event>
<event>
 7    1  0.1247599E-009  0.9085470E+02  0.7818608E-02  0.1300795E+00
          3   -1    0    0  501    0  0.00000000000E+00  0.00000000000E+00  0.26654002649E+03  0.26654004563E+03  0.10100000000E+00 0. -1.
         -3   -1    0    0    0  501 -0.00000000000E+00 -0.00000000000E+00 -0.77419928015E+01  0.77426515832E+01  0.10100000000E+00 0.  1.
         23    2    1    2    0    0  0.00000000000E+00  0.17763568394E-14  0.25879803369E+03  0.27428269721E+03  0.90854695792E+02 0.  0.
    9000005    2    3    3    0    0  0.17697168169E+02 -0.83345230527E+01  0.25258868729E+03  0.25375929549E+03  0.14494173363E+02 0.  0.
         22    1    3    3    0    0 -0.17697168169E+02  0.83345230527E+01  0.62093463991E+01  0.20523401727E+02  0.00000000000E+00 0.  1.
         22    1    4    4    0    0  0.24721822427E+01 -0.39729683191E+01  0.16805084904E+02  0.17444398555E+02  0.00000000000E+00 0.  1.
         22    1    4    4    0    0  0.15224985927E+02 -0.43615547336E+01  0.23578360239E+03  0.23631489693E+03  0.00000000000E+00 0.  1.
<mgrwt>
<rscale>  0 0.90854696E+02</rscale>
<asrwt>0</asrwt>
<pdfrwt beam="1">  1        3 0.41006204E-01 0.90854696E+02</pdfrwt>
<pdfrwt beam="2">  1       -3 0.11911281E-02 0.90854696E+02</pdfrwt>
<totfact> 0.25300928E+04</totfact>
</mgrwt>
</event>
<event>
 7    1  0.1247599E-009  0.9082435E+02  0.7818608E-02  0.1300868E+00
          3   -1    0    0  501    0  0.00000000000E+00  0.00000000000E+00  0.14425082003E+03  0.14425085539E+03  0.10100000000E+00 0. -1.
         -3   -1    0    0    0  501 -0.00000000000E+00 -0.00000000000E+00 -0.14296171502E+02  0.14296528271E+02  0.10100000000E+00 0.  1.
         23    2    1    2    0    0  0.00000000000E+00  0.00000000000E+00  0.12995464853E+03  0.15854738366E+03  0.90824348009E+02 0.  0.
    9000005    2    3    3    0    0 -0.91009222444E+01 -0.38315976331E+02  0.27509176628E+02  0.48793041874E+02  0.85478247966E+01 0.  0.
         22    1    3    3    0    0  0.91009222444E+01  0.38315976331E+02  0.10244547190E+03  0.10975434179E+03  0.00000000000E+00 0. -1.
         22    1    4    4    0    0  0.78721226427E+00 -0.43566644354E+01  0.57847691510E+01  0.72844891573E+01  0.00000000000E+00 0. -1.
         22    1    4    4    0    0 -0.98881345086E+01 -0.33959311895E+02  0.21724407477E+02  0.41508552717E+02  0.00000000000E+00 0. -1.
<mgrwt>
<rscale>  0 0.90824348E+02</rscale>
<asrwt>0</asrwt>
<pdfrwt beam="1">  1        3 0.22192464E-01 0.90824348E+02</pdfrwt>
<pdfrwt beam="2">  1       -3 0.21994412E-02 0.90824348E+02</pdfrwt>
<totfact> 0.31116483E+04</totfact>
</mgrwt>
</event>
<event>
 7    1  0.1247599E-009  0.9126694E+02  0.7818608E-02  0.1299812E+00
         -3   -1    0    0    0  501 -0.00000000000E+00  0.00000000000E+00  0.41207433170E+02  0.41207556946E+02  0.10100000000E+00 0.  1.
          3   -1    0    0  501    0  0.00000000000E+00 -0.00000000000E+00 -0.50534655367E+02  0.50534756298E+02  0.10100000000E+00 0. -1.
         23    2    1    2    0    0  0.35527136788E-14  0.11102230246E-15 -0.93272221968E+01  0.91742313244E+02  0.91266943443E+02 0.  0.
    9000005    2    3    3    0    0 -0.17622655534E+02 -0.95754899353E+00  0.37449767706E+02  0.41746696711E+02  0.53690499082E+01 0.  0.
         22    1    3    3    0    0  0.17622655534E+02  0.95754899353E+00 -0.46776989903E+02  0.49995616533E+02  0.00000000000E+00 0. -1.
         22    1    4    4    0    0 -0.66133289023E+00 -0.42274178643E+00  0.19455731657E+00  0.80865589661E+00  0.00000000000E+00 0. -1.
         22    1    4    4    0    0 -0.16961322644E+02 -0.53480720710E+00  0.37255210389E+02  0.40938040814E+02  0.00000000000E+00 0. -1.
<mgrwt>
<rscale>  0 0.91266943E+02</rscale>
<asrwt>0</asrwt>
<pdfrwt beam="2">  1        3 0.77745796E-02 0.91266943E+02</pdfrwt>
<pdfrwt beam="1">  1       -3 0.63396224E-02 0.91266943E+02</pdfrwt>
<totfact> 0.35200295E+04</totfact>
</mgrwt>
</event>
<event>
 7    1  0.1247599E-009  0.9089296E+02  0.7818608E-02  0.1300704E+00
         -3   -1    0    0    0  501 -0.00000000000E+00  0.00000000000E+00  0.52329348897E+03  0.52329349871E+03  0.10100000000E+00 0.  1.
          3   -1    0    0  501    0  0.00000000000E+00 -0.00000000000E+00 -0.39462351574E+01  0.39475274436E+01  0.10100000000E+00 0. -1.
         23    2    1    2    0    0  0.00000000000E+00  0.00000000000E+00  0.51934725381E+03  0.52724102616E+03  0.90892956955E+02 0.  0.
    9000005    2    3    3    0    0  0.38220545173E+02 -0.13034926140E+02  0.37380756191E+03  0.37620288100E+03  0.12876139284E+02 0.  0.
         22    1    3    3    0    0 -0.38220545173E+02  0.13034926140E+02  0.14553969190E+03  0.15103814515E+03  0.00000000000E+00 0. -1.
         22    1    4    4    0    0  0.29730712880E+01 -0.56099201023E+01  0.52507949939E+02  0.52890407100E+02  0.00000000000E+00 0.  1.
         22    1    4    4    0    0  0.35247473885E+02 -0.74250060378E+01  0.32129961197E+03  0.32331247390E+03  0.00000000000E+00 0.  1.
<mgrwt>
<rscale>  0 0.90892957E+02</rscale>
<asrwt>0</asrwt>
<pdfrwt beam="2">  1        3 0.60721379E-03 0.90892957E+02</pdfrwt>
<pdfrwt beam="1">  1       -3 0.80506720E-01 0.90892957E+02</pdfrwt>
<totfact> 0.17393038E+04</totfact>
</mgrwt>
</event>
<event>
 7    1  0.1247599E-009  0.9008159E+02  0.7818608E-02  0.1302654E+00
          3   -1    0    0  501    0  0.00000000000E+00  0.00000000000E+00  0.23090420070E+02  0.23090640962E+02  0.10100000000E+00 0. -1.
         -3   -1    0    0    0  501 -0.00000000000E+00 -0.00000000000E+00 -0.87857110596E+02  0.87857168651E+02  0.10100000000E+00 0.  1.
         23    2    1    2    0    0  0.00000000000E+00  0.44408920985E-15 -0.64766690526E+02  0.11094780961E+03  0.90081586665E+02 0.  0.
    9000005    2    3    3    0    0  0.42630158629E+02  0.25199735618E+01 -0.47047811876E+02  0.64713197555E+02  0.12272760248E+02 0.  0.
         22    1    3    3    0    0 -0.42630158629E+02 -0.25199735618E+01 -0.17718878650E+02  0.46234612057E+02  0.00000000000E+00 0. -1.
         22    1    4    4    0    0  0.20132092532E+02 -0.26962610910E+01 -0.15183580136E+02  0.25359654559E+02  0.00000000000E+00 0. -1.
         22    1    4    4    0    0  0.22498066096E+02  0.52162346528E+01 -0.31864231739E+02  0.39353542996E+02  0.00000000000E+00 0. -1.
<mgrwt>
<rscale>  0 0.90081587E+02</rscale>
<asrwt>0</asrwt>
<pdfrwt beam="1">  1        3 0.35523938E-02 0.90081587E+02</pdfrwt>
<pdfrwt beam="2">  1       -3 0.13516500E-01 0.90081587E+02</pdfrwt>
<totfact> 0.35008009E+04</totfact>
</mgrwt>
</event>
<event>
 7    1  0.1247599E-009  0.8841195E+02  0.7818608E-02  0.1306744E+00
         -3   -1    0    0    0  501 -0.00000000000E+00  0.00000000000E+00  0.15251828188E+03  0.15251831532E+03  0.10100000000E+00 0.  1.
          3   -1    0    0  501    0  0.00000000000E+00 -0.00000000000E+00 -0.12812447617E+02  0.12812845700E+02  0.10100000000E+00 0. -1.
         23    2    1    2    0    0  0.00000000000E+00  0.00000000000E+00  0.13970583426E+03  0.16533116102E+03  0.88411948725E+02 0.  0.
    9000005    2    3    3    0    0  0.20548219849E+02 -0.37271021941E+02  0.87054882833E+02  0.97629749647E+02  0.11901973602E+02 0.  0.
         22    1    3    3    0    0 -0.20548219849E+02  0.37271021941E+02  0.52650951427E+02  0.67701411371E+02  0.00000000000E+00 0.  1.
         22    1    4    4    0    0  0.17411229810E+02 -0.24615602399E+02  0.50462504519E+02  0.58783868257E+02  0.00000000000E+00 0.  1.
         22    1    4    4    0    0  0.31369900391E+01 -0.12655419542E+02  0.36592378314E+02  0.38845881390E+02  0.00000000000E+00 0.  1.
<mgrwt>
<rscale>  0 0.88411949E+02</rscale>
<asrwt>0</asrwt>
<pdfrwt beam="2">  1        3 0.19711790E-02 0.88411949E+02</pdfrwt>
<pdfrwt beam="1">  1       -3 0.23464384E-01 0.88411949E+02</pdfrwt>
<totfact> 0.33026358E+04</totfact>
</mgrwt>
</event>
<event>
 7    1  0.1247599E-009  0.9135574E+02  0.7818608E-02  0.1299601E+00
          3   -1    0    0  501    0  0.00000000000E+00  0.00000000000E+00  0.17406779909E+02  0.17407072924E+02  0.10100000000E+00 0. -1.
         -3   -1    0    0    0  501 -0.00000000000E+00 -0.00000000000E+00 -0.11986390630E+03  0.11986394886E+03  0.10100000000E+00 0.  1.
         23    2    1    2    0    0  0.00000000000E+00  0.71054273576E-14 -0.10245712639E+03  0.13727102178E+03  0.91355736937E+02 0.  0.
    9000005    2    3    3    0    0  0.26349020138E+02  0.32649609858E+02 -0.28672765569E+02  0.52392285994E+02  0.12749755298E+02 0.  0.
         22    1    3    3    0    0 -0.26349020138E+02 -0.32649609858E+02 -0.73784360826E+02  0.84878735786E+02  0.00000000000E+00 0.  1.
         22    1    4    4    0    0  0.22391666440E+02  0.32082051262E+02 -0.22782597927E+02  0.45273518832E+02  0.00000000000E+00 0.  1.
         22    1    4    4    0    0  0.39573536981E+01  0.56755859571E+00 -0.58901676415E+01  0.71187671613E+01  0.00000000000E+00 0.  1.
<mgrwt>
<rscale>  0 0.91355737E+02</rscale>
<asrwt>0</asrwt>
<pdfrwt beam="1">  1        3 0.26779920E-02 0.91355737E+02</pdfrwt>
<pdfrwt beam="2">  1       -3 0.18440626E-01 0.91355737E+02</pdfrwt>
<totfact> 0.31935096E+04</totfact>
</mgrwt>
</event>
<event>
 7    1  0.1247599E-009  0.8702866E+02  0.7818608E-02  0.1310211E+00
          3   -1    0    0  501    0  0.00000000000E+00  0.00000000000E+00  0.47974839044E+02  0.47974945360E+02  0.10100000000E+00 0. -1.
         -3   -1    0    0    0  501 -0.00000000000E+00 -0.00000000000E+00 -0.39468323173E+02  0.39468452403E+02  0.10100000000E+00 0.  1.
         23    2    1    2    0    0  0.00000000000E+00  0.00000000000E+00  0.85065158712E+01  0.87443397763E+02  0.87028656201E+02 0.  0.
    9000005    2    3    3    0    0 -0.28656665469E+02 -0.19084589226E+02  0.28711070598E+02  0.47522851006E+02  0.15769266663E+02 0.  0.
         22    1    3    3    0    0  0.28656665469E+02  0.19084589226E+02 -0.20204554727E+02  0.39920546758E+02  0.00000000000E+00 0. -1.
         22    1    4    4    0    0 -0.28881147054E+02 -0.20839639802E+02  0.25320141471E+02  0.43698064103E+02  0.00000000000E+00 0. -1.
         22    1    4    4    0    0  0.22448158526E+00  0.17550505759E+01  0.33909291271E+01  0.38247869027E+01  0.00000000000E+00 0. -1.
<mgrwt>
<rscale>  0 0.87028656E+02</rscale>
<asrwt>0</asrwt>
<pdfrwt beam="1">  1        3 0.73807626E-02 0.87028656E+02</pdfrwt>
<pdfrwt beam="2">  1       -3 0.60720679E-02 0.87028656E+02</pdfrwt>
<totfact> 0.40428688E+04</totfact>
</mgrwt>
</event>
<event>
 7    1  0.1247599E-009  0.9389150E+02  0.7818608E-02  0.1293692E+00
          3   -1    0    0  501    0  0.00000000000E+00  0.00000000000E+00  0.36653987523E+02  0.36654126676E+02  0.10100000000E+00 0. -1.
         -3   -1    0    0    0  501 -0.00000000000E+00 -0.00000000000E+00 -0.60126957378E+02  0.60127042207E+02  0.10100000000E+00 0.  1.
         23    2    1    2    0    0  0.00000000000E+00  0.00000000000E+00 -0.23472969855E+02  0.96781168882E+02  0.93891503004E+02 0.  0.
    9000005    2    3    3    0    0  0.31367828454E+02 -0.26781014880E+02  0.84228654341E+01  0.44641858101E+02  0.14858916942E+02 0.  0.
         22    1    3    3    0    0 -0.31367828454E+02  0.26781014880E+02 -0.31895835289E+02  0.52139310781E+02  0.00000000000E+00 0. -1.
         22    1    4    4    0    0  0.69805126933E+01 -0.95892691684E+01  0.88535308565E+01  0.14800900286E+02  0.00000000000E+00 0.  1.
         22    1    4    4    0    0  0.24387315761E+02 -0.17191745712E+02 -0.43066542243E+00  0.29840957815E+02  0.00000000000E+00 0.  1.
<mgrwt>
<rscale>  0 0.93891503E+02</rscale>
<asrwt>0</asrwt>
<pdfrwt beam="1">  1        3 0.56390922E-02 0.93891503E+02</pdfrwt>
<pdfrwt beam="2">  1       -3 0.92503184E-02 0.93891503E+02</pdfrwt>
<totfact> 0.32224108E+04</totfact>
</mgrwt>
</event>
<event>
 7    1  0.1247599E-009  0.9305410E+02  0.7818608E-02  0.1295620E+00
          3   -1    0    0  501    0  0.00000000000E+00  0.00000000000E+00  0.17401317765E+03  0.17401320696E+03  0.10100000000E+00 0. -1.
         -3   -1    0    0    0  501 -0.00000000000E+00 -0.00000000000E+00 -0.12440009609E+02  0.12440419610E+02  0.10100000000E+00 0.  1.
         23    2    1    2    0    0  0.00000000000E+00  0.00000000000E+00  0.16157316804E+03  0.18645362657E+03  0.93054103781E+02 0.  0.
    9000005    2    3    3    0    0  0.16091219428E+02  0.42249249345E+02  0.92370769633E+02  0.10379227914E+03  0.14019690240E+02 0.  0.
         22    1    3    3    0    0 -0.16091219428E+02 -0.42249249345E+02  0.69202398406E+02  0.82661347424E+02  0.00000000000E+00 0. -1.
         22    1    4    4    0    0  0.82206171034E+01  0.23697584960E+02  0.35585152187E+02  0.43536848010E+02  0.00000000000E+00 0.  1.
         22    1    4    4    0    0  0.78706023243E+01  0.18551664386E+02  0.56785617446E+02  0.60255431134E+02  0.00000000000E+00 0.  1.
<mgrwt>
<rscale>  0 0.93054104E+02</rscale>
<asrwt>0</asrwt>
<pdfrwt beam="1">  1        3 0.26771292E-01 0.93054104E+02</pdfrwt>
<pdfrwt beam="2">  1       -3 0.19138815E-02 0.93054104E+02</pdfrwt>
<totfact> 0.27645976E+04</totfact>
</mgrwt>
</event>
<event>
 7    1  0.1247599E-009  0.9030658E+02  0.7818608E-02  0.1302111E+00
          3   -1    0    0  501    0  0.00000000000E+00  0.00000000000E+00  0.47570411023E+01  0.47581131816E+01  0.10100000000E+00 0. -1.
         -3   -1    0    0    0  501 -0.00000000000E+00 -0.00000000000E+00 -0.42854051574E+03  0.42854052764E+03  0.10100000000E+00 0.  1.
         23    2    1    2    0    0 -0.71054273576E-14  0.00000000000E+00 -0.42378347464E+03  0.43329864082E+03  0.90306582061E+02 0.  0.
    9000005    2    3    3    0    0 -0.44365234805E+02 -0.57073941399E+01 -0.23241011300E+03  0.23676718799E+03  0.65872815508E+01 0.  0.
         22    1    3    3    0    0  0.44365234805E+02  0.57073941399E+01 -0.19137336164E+03  0.19653145283E+03  0.00000000000E+00 0. -1.
         22    1    4    4    0    0 -0.92792063157E+01 -0.51223483748E+00 -0.35996716064E+02  0.37177003937E+02  0.00000000000E+00 0.  1.
         22    1    4    4    0    0 -0.35086028490E+02 -0.51951593024E+01 -0.19641339694E+03  0.19959018406E+03  0.00000000000E+00 0.  1.
<mgrwt>
<rscale>  0 0.90306582E+02</rscale>
<asrwt>0</asrwt>
<pdfrwt beam="1">  1        3 0.73193620E-03 0.90306582E+02</pdfrwt>
<pdfrwt beam="2">  1       -3 0.65929363E-01 0.90306582E+02</pdfrwt>
<totfact> 0.20139317E+04</totfact>
</mgrwt>
</event>
<event>
 7    1  0.1247599E-009  0.9444910E+02  0.7818608E-02  0.1292422E+00
         -3   -1    0    0    0  501 -0.00000000000E+00  0.00000000000E+00  0.82275129161E+02  0.82275191155E+02  0.10100000000E+00 0.  1.
          3   -1    0    0  501    0  0.00000000000E+00 -0.00000000000E+00 -0.27105935879E+02  0.27106124047E+02  0.10100000000E+00 0. -1.
         23    2    1    2    0    0  0.00000000000E+00  0.35527136788E-14  0.55169193283E+02  0.10938131520E+03  0.94449098608E+02 0.  0.
    9000005    2    3    3    0    0  0.17281791836E+02 -0.27260452867E+02 -0.12313718063E+02  0.34576663319E+02  0.14578663126E+01 0.  0.
         22    1    3    3    0    0 -0.17281791836E+02  0.27260452867E+02  0.67482911346E+02  0.74804651883E+02  0.00000000000E+00 0.  1.
         22    1    4    4    0    0  0.10932181835E+02 -0.17190666922E+02 -0.70166403120E+01  0.21546806496E+02  0.00000000000E+00 0. -1.
         22    1    4    4    0    0  0.63496100010E+01 -0.10069785945E+02 -0.52970777510E+01  0.13029856824E+02  0.00000000000E+00 0. -1.
<mgrwt>
<rscale>  0 0.94449099E+02</rscale>
<asrwt>0</asrwt>
<pdfrwt beam="2">  1        3 0.41701633E-02 0.94449099E+02</pdfrwt>
<pdfrwt beam="1">  1       -3 0.12657731E-01 0.94449099E+02</pdfrwt>
<totfact> 0.30872932E+04</totfact>
</mgrwt>
</event>
<event>
 7    1  0.1247599E-009  0.8970159E+02  0.7818608E-02  0.1303576E+00
          3   -1    0    0  501    0  0.00000000000E+00  0.00000000000E+00  0.86020754180E+01  0.86026683359E+01  0.10100000000E+00 0. -1.
         -3   -1    0    0    0  501 -0.00000000000E+00 -0.00000000000E+00 -0.23384116463E+03  0.23384118644E+03  0.10100000000E+00 0.  1.
         23    2    1    2    0    0  0.17763568394E-14 -0.71054273576E-14 -0.22523908921E+03  0.24244385478E+03  0.89701590902E+02 0.  0.
    9000005    2    3    3    0    0  0.94089260156E+01 -0.42690428361E+02 -0.13738088970E+03  0.14431096638E+03  0.64144837901E+01 0.  0.
         22    1    3    3    0    0 -0.94089260156E+01  0.42690428361E+02 -0.87858199513E+02  0.98132888392E+02  0.00000000000E+00 0. -1.
         22    1    4    4    0    0  0.10187446218E+02 -0.35016085145E+02 -0.11383368725E+03  0.11953250032E+03  0.00000000000E+00 0.  1.
         22    1    4    4    0    0 -0.77852020209E+00 -0.76743432160E+01 -0.23547202448E+02  0.24778466067E+02  0.00000000000E+00 0.  1.
<mgrwt>
<rscale>  0 0.89701591E+02</rscale>
<asrwt>0</asrwt>
<pdfrwt beam="1">  1        3 0.13234437E-02 0.89701591E+02</pdfrwt>
<pdfrwt beam="2">  1       -3 0.35975606E-01 0.89701591E+02</pdfrwt>
<totfact> 0.27623100E+04</totfact>
</mgrwt>
</event>
<event>
 7    1  0.1247599E-009  0.9233245E+02  0.7818608E-02  0.1297300E+00
          3   -1    0    0  501    0  0.00000000000E+00  0.00000000000E+00  0.64125703597E+02  0.64125783136E+02  0.10100000000E+00 0.  1.
         -3   -1    0    0    0  501 -0.00000000000E+00 -0.00000000000E+00 -0.33236419607E+02  0.33236573067E+02  0.10100000000E+00 0. -1.
         23    2    1    2    0    0  0.00000000000E+00  0.35527136788E-14  0.30889283991E+02  0.97362356204E+02  0.92332445760E+02 0.  0.
    9000005    2    3    3    0    0 -0.41351465180E+02  0.17484028393E+02  0.20589384035E+02  0.51300193201E+02  0.13861896194E+02 0.  0.
         22    1    3    3    0    0  0.41351465180E+02 -0.17484028393E+02  0.10299899956E+02  0.46062163003E+02  0.00000000000E+00 0. -1.
         22    1    4    4    0    0 -0.20294216843E+02  0.14343425903E+02  0.15891268304E+02  0.29497822161E+02  0.00000000000E+00 0.  1.
         22    1    4    4    0    0 -0.21057248338E+02  0.31406024895E+01  0.46981157310E+01  0.21802371040E+02  0.00000000000E+00 0.  1.
<mgrwt>
<rscale>  0 0.92332446E+02</rscale>
<asrwt>0</asrwt>
<pdfrwt beam="1">  1        3 0.98655107E-02 0.92332446E+02</pdfrwt>
<pdfrwt beam="2">  1       -3 0.51133133E-02 0.92332446E+02</pdfrwt>
<totfact> 0.33689781E+04</totfact>
</mgrwt>
</event>
<event>
 7    1  0.1247599E-009  0.9060051E+02  0.7818608E-02  0.1301404E+00
         -3   -1    0    0    0  501 -0.00000000000E+00  0.00000000000E+00  0.95334963273E+01  0.95340313206E+01  0.10100000000E+00 0.  1.
          3   -1    0    0  501    0  0.00000000000E+00 -0.00000000000E+00 -0.21524636715E+03  0.21524639085E+03  0.10100000000E+00 0. -1.
         23    2    1    2    0    0 -0.17763568394E-14  0.00000000000E+00 -0.20571287082E+03  0.22478042217E+03  0.90600513063E+02 0.  0.
    9000005    2    3    3    0    0 -0.12819274232E+02 -0.23724889446E+01 -0.21023076708E+03  0.21098281795E+03  0.12116581385E+02 0.  0.
         22    1    3    3    0    0  0.12819274232E+02  0.23724889446E+01  0.45178962599E+01  0.13797604221E+02  0.00000000000E+00 0.  1.
         22    1    4    4    0    0  0.16083540984E+01  0.63138559830E+00 -0.66996882357E+01  0.69189069321E+01  0.00000000000E+00 0.  1.
         22    1    4    4    0    0 -0.14427628330E+02 -0.30038745429E+01 -0.20353107885E+03  0.20406391101E+03  0.00000000000E+00 0.  1.
<mgrwt>
<rscale>  0 0.90600513E+02</rscale>
<asrwt>0</asrwt>
<pdfrwt beam="2">  1        3 0.33114865E-01 0.90600513E+02</pdfrwt>
<pdfrwt beam="1">  1       -3 0.14667349E-02 0.90600513E+02</pdfrwt>
<totfact> 0.27735431E+04</totfact>
</mgrwt>
</event>
<event>
 7    1  0.1247599E-009  0.8855656E+02  0.7818608E-02  0.1306385E+00
         -3   -1    0    0    0  501 -0.00000000000E+00  0.00000000000E+00  0.59876672526E+02  0.59876757710E+02  0.10100000000E+00 0.  1.
          3   -1    0    0  501    0  0.00000000000E+00 -0.00000000000E+00 -0.32743217714E+02  0.32743373486E+02  0.10100000000E+00 0. -1.
         23    2    1    2    0    0  0.00000000000E+00 -0.35527136788E-14  0.27133454813E+02  0.92620131195E+02  0.88556560077E+02 0.  0.
    9000005    2    3    3    0    0  0.20585769031E+02 -0.27631133170E+02  0.42524388178E+02  0.54882428076E+02  0.40625010405E+01 0.  0.
         22    1    3    3    0    0 -0.20585769031E+02  0.27631133170E+02 -0.15390933366E+02  0.37737703119E+02  0.00000000000E+00 0. -1.
         22    1    4    4    0    0  0.17815859230E+02 -0.21890364540E+02  0.36209012090E+02  0.45909535571E+02  0.00000000000E+00 0.  1.
         22    1    4    4    0    0  0.27699098006E+01 -0.57407686299E+01  0.63153760881E+01  0.89728925046E+01  0.00000000000E+00 0.  1.
<mgrwt>
<rscale>  0 0.88556560E+02</rscale>
<asrwt>0</asrwt>
<pdfrwt beam="2">  1        3 0.50374367E-02 0.88556560E+02</pdfrwt>
<pdfrwt beam="1">  1       -3 0.92118143E-02 0.88556560E+02</pdfrwt>
<totfact> 0.38131339E+04</totfact>
</mgrwt>
</event>
<event>
 7    1  0.1247599E-009  0.9471627E+02  0.7818608E-02  0.1291816E+00
         -3   -1    0    0    0  501 -0.00000000000E+00  0.00000000000E+00  0.40564687666E+03  0.40564688923E+03  0.10100000000E+00 0.  1.
          3   -1    0    0  501    0  0.00000000000E+00 -0.00000000000E+00 -0.55284557964E+01  0.55293783098E+01  0.10100000000E+00 0. -1.
         23    2    1    2    0    0 -0.22204460493E-15  0.00000000000E+00  0.40011842086E+03  0.41117626754E+03  0.94716272502E+02 0.  0.
    9000005    2    3    3    0    0  0.15678158738E+01  0.45579319109E+02  0.23943490135E+03  0.24414595347E+03  0.14079852020E+02 0.  0.
         22    1    3    3    0    0 -0.15678158738E+01 -0.45579319109E+02  0.16068351951E+03  0.16703031407E+03  0.00000000000E+00 0. -1.
         22    1    4    4    0    0  0.55147600037E+00  0.36708010897E+02  0.15731042521E+03  0.16153746336E+03  0.00000000000E+00 0.  1.
         22    1    4    4    0    0  0.10163398735E+01  0.88713082121E+01  0.82124476145E+02  0.82608490110E+02  0.00000000000E+00 0.  1.
<mgrwt>
<rscale>  0 0.94716273E+02</rscale>
<asrwt>0</asrwt>
<pdfrwt beam="2">  1        3 0.85060373E-03 0.94716273E+02</pdfrwt>
<pdfrwt beam="1">  1       -3 0.62407274E-01 0.94716273E+02</pdfrwt>
<totfact> 0.18298140E+04</totfact>
</mgrwt>
</event>
<event>
 7    1  0.1247599E-009  0.8861604E+02  0.7818608E-02  0.1306238E+00
          3   -1    0    0  501    0  0.00000000000E+00  0.00000000000E+00  0.22337215915E+03  0.22337218198E+03  0.10100000000E+00 0. -1.
         -3   -1    0    0    0  501 -0.00000000000E+00 -0.00000000000E+00 -0.87886085965E+01  0.87891889309E+01  0.10100000000E+00 0.  1.
         23    2    1    2    0    0  0.00000000000E+00  0.35527136788E-14  0.21458355055E+03  0.23216137092E+03  0.88616036793E+02 0.  0.
    9000005    2    3    3    0    0 -0.37317626221E+02  0.23141407528E+02  0.98602388676E+02  0.10814621104E+03  0.67113292190E+01 0.  0.
         22    1    3    3    0    0  0.37317626221E+02 -0.23141407528E+02  0.11598116188E+03  0.12401515988E+03  0.00000000000E+00 0. -1.
         22    1    4    4    0    0 -0.12089186596E+02  0.58150846159E+01  0.23716441581E+02  0.27247628207E+02  0.00000000000E+00 0.  1.
         22    1    4    4    0    0 -0.25228439625E+02  0.17326322912E+02  0.74885947095E+02  0.80898582829E+02  0.00000000000E+00 0.  1.
<mgrwt>
<rscale>  0 0.88616037E+02</rscale>
<asrwt>0</asrwt>
<pdfrwt beam="1">  1        3 0.34364987E-01 0.88616037E+02</pdfrwt>
<pdfrwt beam="2">  1       -3 0.13521403E-02 0.88616037E+02</pdfrwt>
<totfact> 0.29056420E+04</totfact>
</mgrwt>
</event>
<event>
 7    1  0.1247599E-009  0.9178003E+02  0.7818608E-02  0.1298597E+00
         -3   -1    0    0    0  501 -0.00000000000E+00  0.00000000000E+00  0.64567768577E+02  0.64567847572E+02  0.10100000000E+00 0.  1.
          3   -1    0    0  501    0  0.00000000000E+00 -0.00000000000E+00 -0.32615067974E+02  0.32615224359E+02  0.10100000000E+00 0. -1.
         23    2    1    2    0    0  0.88817841970E-15  0.00000000000E+00  0.31952700603E+02  0.97183071931E+02  0.91780032655E+02 0.  0.
    9000005    2    3    3    0    0  0.46763980949E+01  0.14451331173E+02 -0.29320109689E+02  0.34055685220E+02  0.83313379367E+01 0.  0.
         22    1    3    3    0    0 -0.46763980949E+01 -0.14451331173E+02  0.61272810292E+02  0.63127386711E+02  0.00000000000E+00 0.  1.
         22    1    4    4    0    0  0.10660630972E+01 -0.71011652487E+00 -0.68164733498E+00  0.14509993437E+01  0.00000000000E+00 0.  1.
         22    1    4    4    0    0  0.36103349977E+01  0.15161447698E+02 -0.28638462354E+02  0.32604685877E+02  0.00000000000E+00 0.  1.
<mgrwt>
<rscale>  0 0.91780033E+02</rscale>
<asrwt>0</asrwt>
<pdfrwt beam="2">  1        3 0.50177209E-02 0.91780033E+02</pdfrwt>
<pdfrwt beam="1">  1       -3 0.99335210E-02 0.91780033E+02</pdfrwt>
<totfact> 0.34260474E+04</totfact>
</mgrwt>
</event>
<event>
 7    1  0.1247599E-009  0.9167008E+02  0.7818608E-02  0.1298857E+00
          3   -1    0    0  501    0  0.00000000000E+00  0.00000000000E+00  0.42595970269E+02  0.42596090010E+02  0.10100000000E+00 0. -1.
         -3   -1    0    0    0  501 -0.00000000000E+00 -0.00000000000E+00 -0.49320168939E+02  0.49320272355E+02  0.10100000000E+00 0.  1.
         23    2    1    2    0    0  0.00000000000E+00  0.00000000000E+00 -0.67241986698E+01  0.91916362365E+02  0.91670075939E+02 0.  0.
    9000005    2    3    3    0    0 -0.11632610251E+02  0.13778828956E+02 -0.45003861415E+02  0.49601987402E+02  0.10480260653E+02 0.  0.
         22    1    3    3    0    0  0.11632610251E+02 -0.13778828956E+02  0.38279662745E+02  0.42314374963E+02  0.00000000000E+00 0. -1.
         22    1    4    4    0    0 -0.60453457979E+00  0.75702160585E+01 -0.22962181895E+02  0.24185438400E+02  0.00000000000E+00 0. -1.
         22    1    4    4    0    0 -0.11028075671E+02  0.62086128978E+01 -0.22041679520E+02  0.25416549002E+02  0.00000000000E+00 0. -1.
<mgrwt>
<rscale>  0 0.91670076E+02</rscale>
<asrwt>0</asrwt>
<pdfrwt beam="1">  1        3 0.65532434E-02 0.91670076E+02</pdfrwt>
<pdfrwt beam="2">  1       -3 0.75877355E-02 0.91670076E+02</pdfrwt>
<totfact> 0.34766198E+04</totfact>
</mgrwt>
</event>
<event>
 7    1  0.1247599E-009  0.9120238E+02  0.7818608E-02  0.1299966E+00
          3   -1    0    0  501    0  0.00000000000E+00  0.00000000000E+00  0.14847251042E+02  0.14847594570E+02  0.10100000000E+00 0. -1.
         -3   -1    0    0    0  501 -0.00000000000E+00 -0.00000000000E+00 -0.14005548618E+03  0.14005552260E+03  0.10100000000E+00 0.  1.
         23    2    1    2    0    0 -0.35527136788E-14  0.00000000000E+00 -0.12520823514E+03  0.15490311717E+03  0.91202376953E+02 0.  0.
    9000005    2    3    3    0    0  0.27952431411E+02 -0.35276512999E+02 -0.74231330183E+02  0.86900061134E+02  0.39445472606E+01 0.  0.
         22    1    3    3    0    0 -0.27952431411E+02  0.35276512999E+02 -0.50976904956E+02  0.68003056035E+02  0.00000000000E+00 0. -1.
         22    1    4    4    0    0  0.14806469649E+02 -0.19659810427E+02 -0.44146272157E+02  0.50543377754E+02  0.00000000000E+00 0.  1.
         22    1    4    4    0    0  0.13145961763E+02 -0.15616702572E+02 -0.30085058027E+02  0.36356683379E+02  0.00000000000E+00 0.  1.
<mgrwt>
<rscale>  0 0.91202377E+02</rscale>
<asrwt>0</asrwt>
<pdfrwt beam="1">  1        3 0.22842218E-02 0.91202377E+02</pdfrwt>
<pdfrwt beam="2">  1       -3 0.21547026E-01 0.91202377E+02</pdfrwt>
<totfact> 0.30987122E+04</totfact>
</mgrwt>
</event>
<event>
 7    1  0.1247599E-009  0.9033435E+02  0.7818608E-02  0.1302044E+00
         -3   -1    0    0    0  501 -0.00000000000E+00  0.00000000000E+00  0.11685713712E+03  0.11685718076E+03  0.10100000000E+00 0.  1.
          3   -1    0    0  501    0  0.00000000000E+00 -0.00000000000E+00 -0.17457650879E+02  0.17457943041E+02  0.10100000000E+00 0. -1.
         23    2    1    2    0    0  0.00000000000E+00  0.00000000000E+00  0.99399486236E+02  0.13431512380E+03  0.90334349051E+02 0.  0.
    9000005    2    3    3    0    0  0.21667238327E+02 -0.36985663946E+02  0.31441633427E+02  0.53967887930E+02  0.93031210253E+01 0.  0.
         22    1    3    3    0    0 -0.21667238327E+02  0.36985663946E+02  0.67957852809E+02  0.80347235874E+02  0.00000000000E+00 0. -1.
         22    1    4    4    0    0  0.15168446375E+02 -0.20054489628E+02  0.22526300204E+02  0.33759421212E+02  0.00000000000E+00 0.  1.
         22    1    4    4    0    0  0.64987919523E+01 -0.16931174318E+02  0.89153332228E+01  0.20208466718E+02  0.00000000000E+00 0.  1.
<mgrwt>
<rscale>  0 0.90334349E+02</rscale>
<asrwt>0</asrwt>
<pdfrwt beam="2">  1        3 0.26858181E-02 0.90334349E+02</pdfrwt>
<pdfrwt beam="1">  1       -3 0.17978048E-01 0.90334349E+02</pdfrwt>
<totfact> 0.33117729E+04</totfact>
</mgrwt>
</event>
<event>
 7    1  0.1247599E-009  0.8871932E+02  0.7818608E-02  0.1305983E+00
         -3   -1    0    0    0  501 -0.00000000000E+00  0.00000000000E+00  0.20686966761E+02  0.20687213316E+02  0.10100000000E+00 0.  1.
          3   -1    0    0  501    0  0.00000000000E+00 -0.00000000000E+00 -0.95120850643E+02  0.95120904264E+02  0.10100000000E+00 0. -1.
         23    2    1    2    0    0  0.00000000000E+00  0.71054273576E-14 -0.74433883882E+02  0.11580811758E+03  0.88719315978E+02 0.  0.
    9000005    2    3    3    0    0  0.15690035633E+01  0.42807501792E+02 -0.43976290139E+02  0.63247590581E+02  0.15211825599E+02 0.  0.
         22    1    3    3    0    0 -0.15690035633E+01 -0.42807501792E+02 -0.30457593743E+02  0.52560526999E+02  0.00000000000E+00 0.  1.
         22    1    4    4    0    0  0.29105510199E+01  0.25730181315E+01 -0.94337515028E+01  0.10202323116E+02  0.00000000000E+00 0. -1.
         22    1    4    4    0    0 -0.13415474566E+01  0.40234483660E+02 -0.34542538636E+02  0.53045267465E+02  0.00000000000E+00 0. -1.
<mgrwt>
<rscale>  0 0.88719316E+02</rscale>
<asrwt>0</asrwt>
<pdfrwt beam="2">  1        3 0.14634000E-01 0.88719316E+02</pdfrwt>
<pdfrwt beam="1">  1       -3 0.31826334E-02 0.88719316E+02</pdfrwt>
<totfact> 0.36111431E+04</totfact>
</mgrwt>
</event>
<event>
 7    1  0.1247599E-009  0.8972922E+02  0.7818608E-02  0.1303509E+00
          3   -1    0    0  501    0  0.00000000000E+00  0.00000000000E+00  0.90612454240E+01  0.90618082982E+01  0.10100000000E+00 0. -1.
         -3   -1    0    0    0  501 -0.00000000000E+00 -0.00000000000E+00 -0.22212902075E+03  0.22212904371E+03  0.10100000000E+00 0.  1.
         23    2    1    2    0    0 -0.71054273576E-14 -0.35527136788E-14 -0.21306777533E+03  0.23119085201E+03  0.89729221388E+02 0.  0.
    9000005    2    3    3    0    0 -0.31747062855E+02 -0.26445002789E+02 -0.15016832406E+03  0.15593425668E+03  0.75995184062E+01 0.  0.
         22    1    3    3    0    0  0.31747062855E+02  0.26445002789E+02 -0.62899451263E+02  0.75256595336E+02  0.00000000000E+00 0. -1.
         22    1    4    4    0    0 -0.18817410479E+02 -0.10751805960E+02 -0.78738232993E+02  0.81666428864E+02  0.00000000000E+00 0. -1.
         22    1    4    4    0    0 -0.12929652377E+02 -0.15693196830E+02 -0.71430091071E+02  0.74267827811E+02  0.00000000000E+00 0. -1.
<mgrwt>
<rscale>  0 0.89729221E+02</rscale>
<asrwt>0</asrwt>
<pdfrwt beam="1">  1        3 0.13940830E-02 0.89729221E+02</pdfrwt>
<pdfrwt beam="2">  1       -3 0.34173736E-01 0.89729221E+02</pdfrwt>
<totfact> 0.28144101E+04</totfact>
</mgrwt>
</event>
<event>
 7    1  0.1247599E-009  0.8987976E+02  0.7818608E-02  0.1303143E+00
          3   -1    0    0  501    0  0.00000000000E+00  0.00000000000E+00  0.54529515945E+02  0.54529609482E+02  0.10100000000E+00 0. -1.
         -3   -1    0    0    0  501 -0.00000000000E+00 -0.00000000000E+00 -0.37036499067E+02  0.37036636782E+02  0.10100000000E+00 0.  1.
         23    2    1    2    0    0  0.00000000000E+00  0.00000000000E+00  0.17493016879E+02  0.91566246264E+02  0.89879763102E+02 0.  0.
    9000005    2    3    3    0    0 -0.11927442493E+02 -0.40556393851E+02  0.19751658231E+02  0.49232023378E+02  0.15702839118E+02 0.  0.
         22    1    3    3    0    0  0.11927442493E+02  0.40556393851E+02 -0.22586413528E+01  0.42334222886E+02  0.00000000000E+00 0. -1.
         22    1    4    4    0    0 -0.13218036206E+02 -0.30984334434E+02  0.20682478990E+02  0.39528602285E+02  0.00000000000E+00 0.  1.
         22    1    4    4    0    0  0.12905937130E+01 -0.95720594172E+01 -0.93082075831E+00  0.97034210927E+01  0.00000000000E+00 0.  1.
<mgrwt>
<rscale>  0 0.89879763E+02</rscale>
<asrwt>0</asrwt>
<pdfrwt beam="1">  1        3 0.83891741E-02 0.89879763E+02</pdfrwt>
<pdfrwt beam="2">  1       -3 0.56979407E-02 0.89879763E+02</pdfrwt>
<totfact> 0.36711147E+04</totfact>
</mgrwt>
</event>
<event>
 7    1  0.1247599E-009  0.9185731E+02  0.7818608E-02  0.1298415E+00
         -3   -1    0    0    0  501 -0.00000000000E+00  0.00000000000E+00  0.14403580641E+02  0.14403934750E+02  0.10100000000E+00 0.  1.
          3   -1    0    0  501    0  0.00000000000E+00 -0.00000000000E+00 -0.14645038460E+03  0.14645041943E+03  0.10100000000E+00 0. -1.
         23    2    1    2    0    0 -0.71054273576E-14  0.00000000000E+00 -0.13204680396E+03  0.16085435418E+03  0.91857306853E+02 0.  0.
    9000005    2    3    3    0    0  0.43327233700E+02 -0.63088087739E+01 -0.49305201252E+02  0.67242265926E+02  0.13170770979E+02 0.  0.
         22    1    3    3    0    0 -0.43327233700E+02  0.63088087739E+01 -0.82741602711E+02  0.93612088254E+02  0.00000000000E+00 0. -1.
         22    1    4    4    0    0  0.80298407685E+01  0.33821837625E+00 -0.28636294496E+01  0.85318877198E+01  0.00000000000E+00 0.  1.
         22    1    4    4    0    0  0.35297392932E+02 -0.66470271502E+01 -0.46441571802E+02  0.58710378206E+02  0.00000000000E+00 0.  1.
<mgrwt>
<rscale>  0 0.91857307E+02</rscale>
<asrwt>0</asrwt>
<pdfrwt beam="2">  1        3 0.22530857E-01 0.91857307E+02</pdfrwt>
<pdfrwt beam="1">  1       -3 0.22159655E-02 0.91857307E+02</pdfrwt>
<totfact> 0.30044128E+04</totfact>
</mgrwt>
</event>
<event>
 7    1  0.1247599E-009  0.8824994E+02  0.7818608E-02  0.1307146E+00
          3   -1    0    0  501    0  0.00000000000E+00  0.00000000000E+00  0.56710758068E+02  0.56710848006E+02  0.10100000000E+00 0. -1.
         -3   -1    0    0    0  501 -0.00000000000E+00 -0.00000000000E+00 -0.34332145536E+02  0.34332294099E+02  0.10100000000E+00 0.  1.
         23    2    1    2    0    0  0.00000000000E+00  0.00000000000E+00  0.22378612532E+02  0.91043142105E+02  0.88249937255E+02 0.  0.
    9000005    2    3    3    0    0 -0.31556037902E+02 -0.22585302960E+02 -0.10226492769E+02  0.40358111479E+02  0.42797862059E+01 0.  0.
         22    1    3    3    0    0  0.31556037902E+02  0.22585302960E+02  0.32605105301E+02  0.50685030626E+02  0.00000000000E+00 0. -1.
         22    1    4    4    0    0 -0.19408877690E+02 -0.12752371363E+02 -0.80502367664E+01  0.24579133845E+02  0.00000000000E+00 0. -1.
         22    1    4    4    0    0 -0.12147160213E+02 -0.98329315967E+01 -0.21762560025E+01  0.15778977635E+02  0.00000000000E+00 0. -1.
<mgrwt>
<rscale>  0 0.88249937E+02</rscale>
<asrwt>0</asrwt>
<pdfrwt beam="1">  1        3 0.87247503E-02 0.88249937E+02</pdfrwt>
<pdfrwt beam="2">  1       -3 0.52818869E-02 0.88249937E+02</pdfrwt>
<totfact> 0.38623533E+04</totfact>
</mgrwt>
</event>
<event>
 7    1  0.1247599E-009  0.9424168E+02  0.7818608E-02  0.1292893E+00
          3   -1    0    0  501    0  0.00000000000E+00  0.00000000000E+00  0.47637882953E+01  0.47648588565E+01  0.10100000000E+00 0. -1.
         -3   -1    0    0    0  501 -0.00000000000E+00 -0.00000000000E+00 -0.46604061188E+03  0.46604062283E+03  0.10100000000E+00 0.  1.
         23    2    1    2    0    0  0.00000000000E+00 -0.17763568394E-14 -0.46127682359E+03  0.47080548168E+03  0.94241676578E+02 0.  0.
    9000005    2    3    3    0    0  0.32471977958E+02 -0.10191468717E+02 -0.39200852932E+03  0.39362781666E+03  0.10671251328E+02 0.  0.
         22    1    3    3    0    0 -0.32471977958E+02  0.10191468717E+02 -0.69268294268E+02  0.77177665020E+02  0.00000000000E+00 0. -1.
         22    1    4    4    0    0  0.25584149520E+01  0.64183151838E+00 -0.11833667127E+02  0.12124071611E+02  0.00000000000E+00 0. -1.
         22    1    4    4    0    0  0.29913563006E+02 -0.10833300235E+02 -0.38017486219E+03  0.38150374505E+03  0.00000000000E+00 0. -1.
<mgrwt>
<rscale>  0 0.94241677E+02</rscale>
<asrwt>0</asrwt>
<pdfrwt beam="1">  1        3 0.73297407E-03 0.94241677E+02</pdfrwt>
<pdfrwt beam="2">  1       -3 0.71698603E-01 0.94241677E+02</pdfrwt>
<totfact> 0.17043850E+04</totfact>
</mgrwt>
</event>
<event>
 7    1  0.1247599E-009  0.9074515E+02  0.7818608E-02  0.1301057E+00
         -3   -1    0    0    0  501 -0.00000000000E+00  0.00000000000E+00  0.20257548391E+03  0.20257550909E+03  0.10100000000E+00 0.  1.
          3   -1    0    0  501    0  0.00000000000E+00 -0.00000000000E+00 -0.10162210163E+02  0.10162712059E+02  0.10100000000E+00 0. -1.
         23    2    1    2    0    0  0.00000000000E+00  0.00000000000E+00  0.19241327375E+03  0.21273822115E+03  0.90745153167E+02 0.  0.
    9000005    2    3    3    0    0  0.32184543718E+02 -0.18974010108E+02  0.41235968486E+02  0.57012707696E+02  0.12417158609E+02 0.  0.
         22    1    3    3    0    0 -0.32184543718E+02  0.18974010108E+02  0.15117730527E+03  0.15572551346E+03  0.00000000000E+00 0.  1.
         22    1    4    4    0    0  0.69040296136E+01 -0.31890660226E+01  0.16910891559E+02  0.18542222637E+02  0.00000000000E+00 0.  1.
         22    1    4    4    0    0  0.25280514105E+02 -0.15784944085E+02  0.24325076927E+02  0.38470485059E+02  0.00000000000E+00 0.  1.
<mgrwt>
<rscale>  0 0.90745153E+02</rscale>
<asrwt>0</asrwt>
<pdfrwt beam="2">  1        3 0.15634576E-02 0.90745153E+02</pdfrwt>
<pdfrwt beam="1">  1       -3 0.31165498E-01 0.90745153E+02</pdfrwt>
<totfact> 0.28209484E+04</totfact>
</mgrwt>
</event>
<event>
 7    1  0.1247599E-009  0.9184899E+02  0.7818608E-02  0.1298435E+00
          3   -1    0    0  501    0  0.00000000000E+00  0.00000000000E+00  0.54104691607E+01  0.54114117880E+01  0.10100000000E+00 0. -1.
         -3   -1    0    0    0  501 -0.00000000000E+00 -0.00000000000E+00 -0.38977589034E+03  0.38977590343E+03  0.10100000000E+00 0.  1.
         23    2    1    2    0    0  0.71054273576E-14  0.00000000000E+00 -0.38436542118E+03  0.39518731522E+03  0.91848990781E+02 0.  0.
    9000005    2    3    3    0    0 -0.38748760915E+02 -0.19292609404E+02 -0.12902678701E+03  0.13620567619E+03  0.55139106931E+01 0.  0.
         22    1    3    3    0    0  0.38748760915E+02  0.19292609404E+02 -0.25533863418E+03  0.25898163903E+03  0.00000000000E+00 0.  1.
         22    1    4    4    0    0 -0.17837304487E+02 -0.98679517099E+01 -0.68903394046E+02  0.71855574685E+02  0.00000000000E+00 0. -1.
         22    1    4    4    0    0 -0.20911456428E+02 -0.94246576943E+01 -0.60123392960E+02  0.64350101504E+02  0.00000000000E+00 0. -1.
<mgrwt>
<rscale>  0 0.91848991E+02</rscale>
<asrwt>0</asrwt>
<pdfrwt beam="1">  1        3 0.83245369E-03 0.91848991E+02</pdfrwt>
<pdfrwt beam="2">  1       -3 0.59965573E-01 0.91848991E+02</pdfrwt>
<totfact> 0.20342271E+04</totfact>
</mgrwt>
</event>
<event>
 7    1  0.1247599E-009  0.9033640E+02  0.7818608E-02  0.1302039E+00
          3   -1    0    0  501    0  0.00000000000E+00  0.00000000000E+00  0.88400193476E+02  0.88400251174E+02  0.10100000000E+00 0. -1.
         -3   -1    0    0    0  501 -0.00000000000E+00 -0.00000000000E+00 -0.23078577262E+02  0.23078798267E+02  0.10100000000E+00 0.  1.
         23    2    1    2    0    0  0.00000000000E+00  0.00000000000E+00  0.65321616214E+02  0.11147904944E+03  0.90336398642E+02 0.  0.
    9000005    2    3    3    0    0 -0.28351714804E+02 -0.10576681692E+02 -0.85465119906E+01  0.31653074393E+02  0.36315731290E+01 0.  0.
         22    1    3    3    0    0  0.28351714804E+02  0.10576681692E+02  0.73868128205E+02  0.79825975048E+02  0.00000000000E+00 0. -1.
         22    1    4    4    0    0 -0.17960202652E+01 -0.30684686809E+00 -0.13993296369E+01  0.22973826904E+01  0.00000000000E+00 0.  1.
         22    1    4    4    0    0 -0.26555694539E+02 -0.10269834824E+02 -0.71471823536E+01  0.29355691703E+02  0.00000000000E+00 0.  1.
<mgrwt>
<rscale>  0 0.90336399E+02</rscale>
<asrwt>0</asrwt>
<pdfrwt beam="1">  1        3 0.13600051E-01 0.90336399E+02</pdfrwt>
<pdfrwt beam="2">  1       -3 0.35505718E-02 0.90336399E+02</pdfrwt>
<totfact> 0.34700557E+04</totfact>
</mgrwt>
</event>
<event>
 7    1  0.1247599E-009  0.8862376E+02  0.7818608E-02  0.1306219E+00
         -3   -1    0    0    0  501 -0.00000000000E+00  0.00000000000E+00  0.92236720210E+02  0.92236775507E+02  0.10100000000E+00 0.  1.
          3   -1    0    0  501    0  0.00000000000E+00 -0.00000000000E+00 -0.21287896464E+02  0.21288136059E+02  0.10100000000E+00 0. -1.
         23    2    1    2    0    0  0.00000000000E+00  0.00000000000E+00  0.70948823745E+02  0.11352491157E+03  0.88623755029E+02 0.  0.
    9000005    2    3    3    0    0 -0.21217833112E+02  0.32648380402E+02  0.91579952537E+01  0.40489169149E+02  0.62762055759E+01 0.  0.
         22    1    3    3    0    0  0.21217833112E+02 -0.32648380402E+02  0.61790828492E+02  0.73035742418E+02  0.00000000000E+00 0.  1.
         22    1    4    4    0    0 -0.19669832162E+02  0.32305673633E+02  0.91029475875E+01  0.38902731279E+02  0.00000000000E+00 0.  1.
         22    1    4    4    0    0 -0.15480009497E+01  0.34270676955E+00  0.55047666221E-01  0.15864378702E+01  0.00000000000E+00 0.  1.
<mgrwt>
<rscale>  0 0.88623755E+02</rscale>
<asrwt>0</asrwt>
<pdfrwt beam="2">  1        3 0.32750837E-02 0.88623755E+02</pdfrwt>
<pdfrwt beam="1">  1       -3 0.14190287E-01 0.88623755E+02</pdfrwt>
<totfact> 0.36391807E+04</totfact>
</mgrwt>
</event>
<event>
 7    1  0.1247599E-009  0.9064210E+02  0.7818608E-02  0.1301304E+00
         -3   -1    0    0    0  501 -0.00000000000E+00  0.00000000000E+00  0.12497582213E+02  0.12497990325E+02  0.10100000000E+00 0.  1.
          3   -1    0    0  501    0  0.00000000000E+00 -0.00000000000E+00 -0.16434850496E+03  0.16434853600E+03  0.10100000000E+00 0. -1.
         23    2    1    2    0    0  0.00000000000E+00  0.35527136788E-14 -0.15185092275E+03  0.17684652632E+03  0.90642104634E+02 0.  0.
    9000005    2    3    3    0    0  0.35544707452E+02  0.24737381106E+02 -0.52290908346E+02  0.68275992936E+02  0.72047112306E+01 0.  0.
         22    1    3    3    0    0 -0.35544707452E+02 -0.24737381106E+02 -0.99560014405E+02  0.10857053339E+03  0.00000000000E+00 0. -1.
         22    1    4    4    0    0  0.21670155405E+02  0.18660310147E+02 -0.36867683511E+02  0.46658642260E+02  0.00000000000E+00 0. -1.
         22    1    4    4    0    0  0.13874552047E+02  0.60770709585E+01 -0.15423224835E+02  0.21617350676E+02  0.00000000000E+00 0. -1.
<mgrwt>
<rscale>  0 0.90642105E+02</rscale>
<asrwt>0</asrwt>
<pdfrwt beam="2">  1        3 0.25284418E-01 0.90642105E+02</pdfrwt>
<pdfrwt beam="1">  1       -3 0.19227388E-02 0.90642105E+02</pdfrwt>
<totfact> 0.30216726E+04</totfact>
</mgrwt>
</event>
<event>
 7    1  0.1247599E-009  0.8976067E+02  0.7818608E-02  0.1303432E+00
          3   -1    0    0  501    0  0.00000000000E+00  0.00000000000E+00  0.97314735188E+02  0.97314787600E+02  0.10100000000E+00 0. -1.
         -3   -1    0    0    0  501 -0.00000000000E+00 -0.00000000000E+00 -0.20698065062E+02  0.20698311484E+02  0.10100000000E+00 0.  1.
         23    2    1    2    0    0  0.00000000000E+00  0.00000000000E+00  0.76616670126E+02  0.11801309908E+03  0.89760667412E+02 0.  0.
    9000005    2    3    3    0    0  0.38800562967E+02  0.87134386737E+01  0.13915163346E+02  0.43764283252E+02  0.11843691043E+02 0.  0.
         22    1    3    3    0    0 -0.38800562967E+02 -0.87134386737E+01  0.62701506780E+02  0.74248815833E+02  0.00000000000E+00 0. -1.
         22    1    4    4    0    0  0.24223828492E+02  0.22751851237E+01  0.31498903230E+01  0.24533490237E+02  0.00000000000E+00 0.  1.
         22    1    4    4    0    0  0.14576734475E+02  0.64382535500E+01  0.10765273023E+02  0.19230793015E+02  0.00000000000E+00 0.  1.
<mgrwt>
<rscale>  0 0.89760667E+02</rscale>
<asrwt>0</asrwt>
<pdfrwt beam="1">  1        3 0.14971521E-01 0.89760667E+02</pdfrwt>
<pdfrwt beam="2">  1       -3 0.31843407E-02 0.89760667E+02</pdfrwt>
<totfact> 0.34829413E+04</totfact>
</mgrwt>
</event>
<event>
 7    1  0.1247599E-009  0.9169166E+02  0.7818608E-02  0.1298806E+00
          3   -1    0    0  501    0  0.00000000000E+00  0.00000000000E+00  0.12739850075E+03  0.12739854078E+03  0.10100000000E+00 0. -1.
         -3   -1    0    0    0  501 -0.00000000000E+00 -0.00000000000E+00 -0.16497956474E+02  0.16498265631E+02  0.10100000000E+00 0.  1.
         23    2    1    2    0    0  0.00000000000E+00  0.35527136788E-14  0.11090054427E+03  0.14389680641E+03  0.91691658160E+02 0.  0.
    9000005    2    3    3    0    0 -0.36333876806E+02 -0.26666709452E+02  0.63375459329E+02  0.78399495815E+02  0.99382142364E+01 0.  0.
         22    1    3    3    0    0  0.36333876806E+02  0.26666709452E+02  0.47525084942E+02  0.65497310597E+02  0.00000000000E+00 0.  1.
         22    1    4    4    0    0 -0.25300265390E+01 -0.11685348764E+00  0.74192826850E+01  0.78396712039E+01  0.00000000000E+00 0.  1.
         22    1    4    4    0    0 -0.33803850267E+02 -0.26549855964E+02  0.55956176644E+02  0.70559824611E+02  0.00000000000E+00 0.  1.
<mgrwt>
<rscale>  0 0.91691658E+02</rscale>
<asrwt>0</asrwt>
<pdfrwt beam="1">  1        3 0.19599796E-01 0.91691658E+02</pdfrwt>
<pdfrwt beam="2">  1       -3 0.25381740E-02 0.91691658E+02</pdfrwt>
<totfact> 0.31203983E+04</totfact>
</mgrwt>
</event>
<event>
 7    1  0.1247599E-009  0.9058478E+02  0.7818608E-02  0.1301442E+00
          3   -1    0    0  501    0  0.00000000000E+00  0.00000000000E+00  0.62741878609E+03  0.62741879422E+03  0.10100000000E+00 0. -1.
         -3   -1    0    0    0  501 -0.00000000000E+00 -0.00000000000E+00 -0.32687989854E+01  0.32703589722E+01  0.10100000000E+00 0.  1.
         23    2    1    2    0    0  0.00000000000E+00  0.00000000000E+00  0.62414998711E+03  0.63068915320E+03  0.90584775492E+02 0.  0.
    9000005    2    3    3    0    0 -0.10606874975E+02 -0.37230858333E+02  0.47478450256E+03  0.47638850322E+03  0.51999537055E+01 0.  0.
         22    1    3    3    0    0  0.10606874975E+02  0.37230858333E+02  0.14936548455E+03  0.15430064998E+03  0.00000000000E+00 0.  1.
         22    1    4    4    0    0 -0.59458752591E+00 -0.10663631587E+00  0.83703240695E+01  0.83920933419E+01  0.00000000000E+00 0.  1.
         22    1    4    4    0    0 -0.10012287449E+02 -0.37124222017E+02  0.46641417849E+03  0.46799640988E+03  0.00000000000E+00 0.  1.
<mgrwt>
<rscale>  0 0.90584775E+02</rscale>
<asrwt>0</asrwt>
<pdfrwt beam="1">  1        3 0.96526054E-01 0.90584775E+02</pdfrwt>
<pdfrwt beam="2">  1       -3 0.50301295E-03 0.90584775E+02</pdfrwt>
<totfact> 0.15403136E+04</totfact>
</mgrwt>
</event>
<event>
 7    1  0.1247599E-009  0.8933180E+02  0.7818608E-02  0.1304478E+00
         -3   -1    0    0    0  501 -0.00000000000E+00  0.00000000000E+00  0.24132787029E+02  0.24132998380E+02  0.10100000000E+00 0.  1.
          3   -1    0    0  501    0  0.00000000000E+00 -0.00000000000E+00 -0.82668778273E+02  0.82668839971E+02  0.10100000000E+00 0. -1.
         23    2    1    2    0    0 -0.71054273576E-14  0.00000000000E+00 -0.58535991244E+02  0.10680183835E+03  0.89331799512E+02 0.  0.
    9000005    2    3    3    0    0  0.41144353128E+02  0.97033394710E+01 -0.42302660133E+02  0.61519020084E+02  0.14424360869E+02 0.  0.
         22    1    3    3    0    0 -0.41144353128E+02 -0.97033394710E+01 -0.16233331110E+02  0.45282818267E+02  0.00000000000E+00 0.  1.
         22    1    4    4    0    0  0.29522428072E+02  0.96445894530E+00 -0.23477148253E+02  0.37731690002E+02  0.00000000000E+00 0.  1.
         22    1    4    4    0    0  0.11621925056E+02  0.87388805257E+01 -0.18825511880E+02  0.23787330081E+02  0.00000000000E+00 0.  1.
<mgrwt>
<rscale>  0 0.89331800E+02</rscale>
<asrwt>0</asrwt>
<pdfrwt beam="2">  1        3 0.12718294E-01 0.89331800E+02</pdfrwt>
<pdfrwt beam="1">  1       -3 0.37127575E-02 0.89331800E+02</pdfrwt>
<totfact> 0.36122313E+04</totfact>
</mgrwt>
</event>
<event>
 7    1  0.1247599E-009  0.9273456E+02  0.7818608E-02  0.1296361E+00
         -3   -1    0    0    0  501 -0.00000000000E+00  0.00000000000E+00  0.70908166922E+02  0.70908238853E+02  0.10100000000E+00 0.  1.
          3   -1    0    0  501    0  0.00000000000E+00 -0.00000000000E+00 -0.30319673834E+02  0.30319842058E+02  0.10100000000E+00 0. -1.
         23    2    1    2    0    0  0.35527136788E-14 -0.35527136788E-14  0.40588493088E+02  0.10122808091E+03  0.92734559867E+02 0.  0.
    9000005    2    3    3    0    0 -0.27313089879E+02  0.26245563873E+02 -0.75259544985E+01  0.39992188101E+02  0.10387522141E+02 0.  0.
         22    1    3    3    0    0  0.27313089879E+02 -0.26245563873E+02  0.48114447586E+02  0.61235892810E+02  0.00000000000E+00 0.  1.
         22    1    4    4    0    0 -0.10716590591E+02  0.12184905281E+02  0.17975548132E+01  0.16326311093E+02  0.00000000000E+00 0. -1.
         22    1    4    4    0    0 -0.16596499288E+02  0.14060658592E+02 -0.93235093116E+01  0.23665877008E+02  0.00000000000E+00 0. -1.
<mgrwt>
<rscale>  0 0.92734560E+02</rscale>
<asrwt>0</asrwt>
<pdfrwt beam="2">  1        3 0.46645837E-02 0.92734560E+02</pdfrwt>
<pdfrwt beam="1">  1       -3 0.10908967E-01 0.92734560E+02</pdfrwt>
<totfact> 0.33019353E+04</totfact>
</mgrwt>
</event>
<event>
 7    1  0.1247599E-009  0.9101124E+02  0.7818608E-02  0.1300421E+00
          3   -1    0    0  501    0  0.00000000000E+00  0.00000000000E+00  0.67179457357E+02  0.67179533281E+02  0.10100000000E+00 0. -1.
         -3   -1    0    0    0  501 -0.00000000000E+00 -0.00000000000E+00 -0.30824149970E+02  0.30824315440E+02  0.10100000000E+00 0.  1.
         23    2    1    2    0    0  0.00000000000E+00 -0.35527136788E-14  0.36355307388E+02  0.98003848721E+02  0.91011241003E+02 0.  0.
    9000005    2    3    3    0    0  0.23252655486E+02 -0.29401266577E+02  0.44731247873E+02  0.59594515968E+02  0.12062393365E+02 0.  0.
         22    1    3    3    0    0 -0.23252655486E+02  0.29401266577E+02 -0.83759404851E+01  0.38409332753E+02  0.00000000000E+00 0.  1.
         22    1    4    4    0    0  0.12089809165E+02 -0.65318349172E+01  0.12970929406E+02  0.18896384911E+02  0.00000000000E+00 0.  1.
         22    1    4    4    0    0  0.11162846321E+02 -0.22869431660E+02  0.31760318467E+02  0.40698131057E+02  0.00000000000E+00 0.  1.
<mgrwt>
<rscale>  0 0.91011241E+02</rscale>
<asrwt>0</asrwt>
<pdfrwt beam="1">  1        3 0.10335320E-01 0.91011241E+02</pdfrwt>
<pdfrwt beam="2">  1       -3 0.47421956E-02 0.91011241E+02</pdfrwt>
<totfact> 0.34992635E+04</totfact>
</mgrwt>
</event>
<event>
 7    1  0.1247599E-009  0.9583386E+02  0.7818608E-02  0.1289309E+00
          3   -1    0    0  501    0  0.00000000000E+00  0.00000000000E+00  0.15548666161E+02  0.15548994192E+02  0.10100000000E+00 0. -1.
         -3   -1    0    0    0  501 -0.00000000000E+00 -0.00000000000E+00 -0.14766556854E+03  0.14766560308E+03  0.10100000000E+00 0.  1.
         23    2    1    2    0    0  0.35527136788E-14  0.00000000000E+00 -0.13211690238E+03  0.16321459728E+03  0.95833860764E+02 0.  0.
    9000005    2    3    3    0    0 -0.20974918360E+02  0.41181796474E+02 -0.51005802545E+02  0.69860978825E+02  0.11961476004E+02 0.  0.
         22    1    3    3    0    0  0.20974918360E+02 -0.41181796474E+02 -0.81111099836E+02  0.93353618450E+02  0.00000000000E+00 0.  1.
         22    1    4    4    0    0 -0.19857386623E+02  0.40165076775E+02 -0.51508108633E+02  0.68268839530E+02  0.00000000000E+00 0.  1.
         22    1    4    4    0    0 -0.11175317369E+01  0.10167196993E+01  0.50230608835E+00  0.15921392955E+01  0.00000000000E+00 0.  1.
<mgrwt>
<rscale>  0 0.95833861E+02</rscale>
<asrwt>0</asrwt>
<pdfrwt beam="1">  1        3 0.23921305E-02 0.95833861E+02</pdfrwt>
<pdfrwt beam="2">  1       -3 0.22717807E-01 0.95833861E+02</pdfrwt>
<totfact> 0.26655176E+04</totfact>
</mgrwt>
</event>
<event>
 7    1  0.1247599E-009  0.9272216E+02  0.7818608E-02  0.1296390E+00
          3   -1    0    0  501    0  0.00000000000E+00  0.00000000000E+00  0.33496460596E+02  0.33496612866E+02  0.10100000000E+00 0. -1.
         -3   -1    0    0    0  501 -0.00000000000E+00 -0.00000000000E+00 -0.64166136695E+02  0.64166216184E+02  0.10100000000E+00 0.  1.
         23    2    1    2    0    0  0.00000000000E+00  0.00000000000E+00 -0.30669676099E+02  0.97662829050E+02  0.92722161030E+02 0.  0.
    9000005    2    3    3    0    0  0.31145148830E+02 -0.10003320574E+02 -0.49312313840E+02  0.60011339570E+02  0.99784699559E+01 0.  0.
         22    1    3    3    0    0 -0.31145148830E+02  0.10003320574E+02  0.18642637741E+02  0.37651489480E+02  0.00000000000E+00 0. -1.
         22    1    4    4    0    0  0.28425822345E+02 -0.56465487010E+01 -0.43305212166E+02  0.52108082760E+02  0.00000000000E+00 0. -1.
         22    1    4    4    0    0  0.27193264843E+01 -0.43567718729E+01 -0.60071016740E+01  0.79032568098E+01  0.00000000000E+00 0. -1.
<mgrwt>
<rscale>  0 0.92722161E+02</rscale>
<asrwt>0</asrwt>
<pdfrwt beam="1">  1        3 0.51533195E-02 0.92722161E+02</pdfrwt>
<pdfrwt beam="2">  1       -3 0.98717311E-02 0.92722161E+02</pdfrwt>
<totfact> 0.33283930E+04</totfact>
</mgrwt>
</event>
<event>
 7    1  0.1247599E-009  0.9133977E+02  0.7818608E-02  0.1299639E+00
          3   -1    0    0  501    0  0.00000000000E+00  0.00000000000E+00  0.33533272629E+03  0.33533274150E+03  0.10100000000E+00 0. -1.
         -3   -1    0    0    0  501 -0.00000000000E+00 -0.00000000000E+00 -0.62194815542E+01  0.62203015845E+01  0.10100000000E+00 0.  1.
         23    2    1    2    0    0  0.00000000000E+00 -0.17763568394E-14  0.32911324474E+03  0.34155304309E+03  0.91339768885E+02 0.  0.
    9000005    2    3    3    0    0  0.42148811654E+02  0.13568897938E+02  0.14834635186E+03  0.15544203622E+03  0.13962420989E+02 0.  0.
         22    1    3    3    0    0 -0.42148811654E+02 -0.13568897938E+02  0.18076689288E+03  0.18611100686E+03  0.00000000000E+00 0. -1.
         22    1    4    4    0    0  0.37890234953E+02  0.15222950763E+02  0.14097520784E+03  0.14676994706E+03  0.00000000000E+00 0.  1.
         22    1    4    4    0    0  0.42585767013E+01 -0.16540528254E+01  0.73711440184E+01  0.86720891606E+01  0.00000000000E+00 0.  1.
<mgrwt>
<rscale>  0 0.91339769E+02</rscale>
<asrwt>0</asrwt>
<pdfrwt beam="1">  1        3 0.51589716E-01 0.91339769E+02</pdfrwt>
<pdfrwt beam="2">  1       -3 0.95690755E-03 0.91339769E+02</pdfrwt>
<totfact> 0.22400244E+04</totfact>
</mgrwt>
</event>
<event>
 7    1  0.1247599E-009  0.9237036E+02  0.7818608E-02  0.1297211E+00
         -3   -1    0    0    0  501 -0.00000000000E+00  0.00000000000E+00  0.72451283810E+02  0.72451354209E+02  0.10100000000E+00 0.  1.
          3   -1    0    0  501    0  0.00000000000E+00 -0.00000000000E+00 -0.29441279437E+02  0.29441452679E+02  0.10100000000E+00 0. -1.
         23    2    1    2    0    0  0.00000000000E+00  0.00000000000E+00  0.43010004374E+02  0.10189280689E+03  0.92370361153E+02 0.  0.
    9000005    2    3    3    0    0  0.15336199979E+02 -0.39705521695E+02  0.38135530956E+02  0.59050211566E+02  0.14862075285E+02 0.  0.
         22    1    3    3    0    0 -0.15336199979E+02  0.39705521695E+02  0.48744734172E+01  0.42842595323E+02  0.00000000000E+00 0. -1.
         22    1    4    4    0    0  0.34018404908E+01 -0.18471748393E+02  0.83001850819E+01  0.20534631232E+02  0.00000000000E+00 0.  1.
         22    1    4    4    0    0  0.11934359488E+02 -0.21233773302E+02  0.29835345875E+02  0.38515580334E+02  0.00000000000E+00 0.  1.
<mgrwt>
<rscale>  0 0.92370361E+02</rscale>
<asrwt>0</asrwt>
<pdfrwt beam="2">  1        3 0.45294464E-02 0.92370361E+02</pdfrwt>
<pdfrwt beam="1">  1       -3 0.11146370E-01 0.92370361E+02</pdfrwt>
<totfact> 0.33329001E+04</totfact>
</mgrwt>
</event>
<event>
 7    1  0.1247599E-009  0.9080151E+02  0.7818608E-02  0.1300922E+00
         -3   -1    0    0    0  501 -0.00000000000E+00  0.00000000000E+00  0.14798552570E+02  0.14798897228E+02  0.10100000000E+00 0.  1.
          3   -1    0    0  501    0  0.00000000000E+00 -0.00000000000E+00 -0.13928383482E+03  0.13928387144E+03  0.10100000000E+00 0. -1.
         23    2    1    2    0    0  0.00000000000E+00  0.00000000000E+00 -0.12448528225E+03  0.15408276867E+03  0.90801509366E+02 0.  0.
    9000005    2    3    3    0    0 -0.12961448537E+02  0.22147778506E+02 -0.18409272308E+01  0.28782485112E+02  0.12904231678E+02 0.  0.
         22    1    3    3    0    0  0.12961448537E+02 -0.22147778506E+02 -0.12264435502E+03  0.12530028356E+03  0.00000000000E+00 0. -1.
         22    1    4    4    0    0 -0.59696769962E+01  0.19951000759E+02  0.11734760293E+01  0.20858008551E+02  0.00000000000E+00 0. -1.
         22    1    4    4    0    0 -0.69917715404E+01  0.21967777470E+01 -0.30144032601E+01  0.79244765605E+01  0.00000000000E+00 0. -1.
<mgrwt>
<rscale>  0 0.90801509E+02</rscale>
<asrwt>0</asrwt>
<pdfrwt beam="2">  1        3 0.21428311E-01 0.90801509E+02</pdfrwt>
<pdfrwt beam="1">  1       -3 0.22767298E-02 0.90801509E+02</pdfrwt>
<totfact> 0.31407653E+04</totfact>
</mgrwt>
</event>
<event>
 7    1  0.1247599E-009  0.9030973E+02  0.7818608E-02  0.1302103E+00
          3   -1    0    0  501    0  0.00000000000E+00  0.00000000000E+00  0.13411656719E+02  0.13412037017E+02  0.10100000000E+00 0. -1.
         -3   -1    0    0    0  501 -0.00000000000E+00 -0.00000000000E+00 -0.15202653259E+03  0.15202656614E+03  0.10100000000E+00 0.  1.
         23    2    1    2    0    0  0.71054273576E-14  0.00000000000E+00 -0.13861487588E+03  0.16543860316E+03  0.90309731490E+02 0.  0.
    9000005    2    3    3    0    0  0.34722900783E+02  0.17709615658E+02 -0.11020987202E+03  0.11720837851E+03  0.85016338239E+01 0.  0.
         22    1    3    3    0    0 -0.34722900783E+02 -0.17709615658E+02 -0.28405003858E+02  0.48230224649E+02  0.00000000000E+00 0. -1.
         22    1    4    4    0    0  0.24665585543E+02  0.16597562457E+02 -0.79707935159E+02  0.85071882059E+02  0.00000000000E+00 0.  1.
         22    1    4    4    0    0  0.10057315239E+02  0.11120532017E+01 -0.30501936859E+02  0.32136496454E+02  0.00000000000E+00 0.  1.
<mgrwt>
<rscale>  0 0.90309731E+02</rscale>
<asrwt>0</asrwt>
<pdfrwt beam="1">  1        3 0.20633637E-02 0.90309731E+02</pdfrwt>
<pdfrwt beam="2">  1       -3 0.23388728E-01 0.90309731E+02</pdfrwt>
<totfact> 0.31183293E+04</totfact>
</mgrwt>
</event>
<event>
 7    1  0.1300038E-009  0.9038182E+02  0.7818608E-02  0.1301930E+00
          3   -1    0    0  501    0  0.00000000000E+00  0.00000000000E+00  0.25771475661E+02  0.25771673573E+02  0.10100000000E+00 0. -1.
         -3   -1    0    0    0  501 -0.00000000000E+00 -0.00000000000E+00 -0.79242821706E+02  0.79242886072E+02  0.10100000000E+00 0.  1.
         23    2    1    2    0    0  0.00000000000E+00  0.00000000000E+00 -0.53471346045E+02  0.10501455964E+03  0.90381817250E+02 0.  0.
    9000005    2    3    3    0    0  0.10980796304E+02 -0.42446028094E+02 -0.24847134203E+02  0.52654377330E+02  0.15259757059E+02 0.  0.
         22    1    3    3    0    0 -0.10980796304E+02  0.42446028094E+02 -0.28624211842E+02  0.52360182314E+02  0.00000000000E+00 0.  1.
         22    1    4    4    0    0 -0.27779288210E+01 -0.18549629623E+02 -0.84390054897E+01  0.20567509848E+02  0.00000000000E+00 0.  1.
         22    1    4    4    0    0  0.13758725125E+02 -0.23896398471E+02 -0.16408128713E+02  0.32086867482E+02  0.00000000000E+00 0.  1.
<mgrwt>
<rscale>  0 0.90381817E+02</rscale>
<asrwt>0</asrwt>
<pdfrwt beam="1">  1        3 0.39648626E-02 0.90381817E+02</pdfrwt>
<pdfrwt beam="2">  1       -3 0.12191223E-01 0.90381817E+02</pdfrwt>
<totfact> 0.35130422E+04</totfact>
</mgrwt>
</event>
<event>
 7    1  0.1247599E-009  0.9435951E+02  0.7818608E-02  0.1292625E+00
         -3   -1    0    0    0  501 -0.00000000000E+00  0.00000000000E+00  0.11939385235E+02  0.11939812427E+02  0.10100000000E+00 0. -1.
          3   -1    0    0  501    0  0.00000000000E+00 -0.00000000000E+00 -0.18643206230E+03  0.18643208966E+03  0.10100000000E+00 0.  1.
         23    2    1    2    0    0  0.00000000000E+00  0.00000000000E+00 -0.17449267706E+03  0.19837190208E+03  0.94359510319E+02 0.  0.
    9000005    2    3    3    0    0  0.46548642795E+02 -0.43628375574E+01 -0.82491444926E+02  0.95172884587E+02  0.81993278366E+01 0.  0.
         22    1    3    3    0    0 -0.46548642795E+02  0.43628375574E+01 -0.92001232135E+02  0.10319901750E+03  0.00000000000E+00 0.  1.
         22    1    4    4    0    0  0.32424022149E+02 -0.86078613967E-02 -0.51860542303E+02  0.61162350629E+02  0.00000000000E+00 0. -1.
         22    1    4    4    0    0  0.14124620646E+02 -0.43542296960E+01 -0.30630902623E+02  0.34010533958E+02  0.00000000000E+00 0. -1.
<mgrwt>
<rscale>  0 0.94359510E+02</rscale>
<asrwt>0</asrwt>
<pdfrwt beam="2">  1        3 0.28681889E-01 0.94359510E+02</pdfrwt>
<pdfrwt beam="1">  1       -3 0.18368636E-02 0.94359510E+02</pdfrwt>
<totfact> 0.26047512E+04</totfact>
</mgrwt>
</event>
<event>
 7    1  0.1247599E-009  0.9074976E+02  0.7818608E-02  0.1301046E+00
          3   -1    0    0  501    0  0.00000000000E+00  0.00000000000E+00  0.29243397427E+02  0.29243571842E+02  0.10100000000E+00 0. -1.
         -3   -1    0    0    0  501 -0.00000000000E+00 -0.00000000000E+00 -0.70404526666E+02  0.70404599112E+02  0.10100000000E+00 0.  1.
         23    2    1    2    0    0 -0.35527136788E-14 -0.35527136788E-14 -0.41161129239E+02  0.99648170954E+02  0.90749762613E+02 0.  0.
    9000005    2    3    3    0    0  0.31962557848E+02 -0.31261875771E+02 -0.25156122596E+02  0.52160591330E+02  0.94332816637E+01 0.  0.
         22    1    3    3    0    0 -0.31962557848E+02  0.31261875771E+02 -0.16005006644E+02  0.47487579624E+02  0.00000000000E+00 0.  1.
         22    1    4    4    0    0  0.79234170809E+01 -0.12102644100E+02 -0.45948147274E+01  0.15177840914E+02  0.00000000000E+00 0. -1.
         22    1    4    4    0    0  0.24039140767E+02 -0.19159231671E+02 -0.20561307868E+02  0.36982750416E+02  0.00000000000E+00 0. -1.
<mgrwt>
<rscale>  0 0.90749763E+02</rscale>
<asrwt>0</asrwt>
<pdfrwt beam="1">  1        3 0.44990032E-02 0.90749763E+02</pdfrwt>
<pdfrwt beam="2">  1       -3 0.10831485E-01 0.90749763E+02</pdfrwt>
<totfact> 0.35144378E+04</totfact>
</mgrwt>
</event>
<event>
 7    1  0.1247599E-009  0.9252828E+02  0.7818608E-02  0.1296842E+00
          3   -1    0    0  501    0  0.00000000000E+00  0.00000000000E+00  0.99567302940E+01  0.99572425474E+01  0.10100000000E+00 0. -1.
         -3   -1    0    0    0  501 -0.00000000000E+00 -0.00000000000E+00 -0.21496117729E+03  0.21496120102E+03  0.10100000000E+00 0.  1.
         23    2    1    2    0    0  0.00000000000E+00  0.00000000000E+00 -0.20500444700E+03  0.22491844357E+03  0.92528281989E+02 0.  0.
    9000005    2    3    3    0    0 -0.32835163865E+02  0.10366454690E+02 -0.17724351772E+03  0.18068858303E+03  0.68911605818E+01 0.  0.
         22    1    3    3    0    0  0.32835163865E+02 -0.10366454690E+02 -0.27760929277E+02  0.44229860538E+02  0.00000000000E+00 0. -1.
         22    1    4    4    0    0 -0.19192960677E+02  0.65101934737E+01 -0.86377983070E+02  0.88723775381E+02  0.00000000000E+00 0. -1.
         22    1    4    4    0    0 -0.13642203188E+02  0.38562612165E+01 -0.90865534653E+02  0.91964807650E+02  0.00000000000E+00 0. -1.
<mgrwt>
<rscale>  0 0.92528282E+02</rscale>
<asrwt>0</asrwt>
<pdfrwt beam="1">  1        3 0.15318460E-02 0.92528282E+02</pdfrwt>
<pdfrwt beam="2">  1       -3 0.33070988E-01 0.92528282E+02</pdfrwt>
<totfact> 0.26195231E+04</totfact>
</mgrwt>
</event>
<event>
 7    1  0.1247599E-009  0.9141909E+02  0.7818608E-02  0.1299451E+00
         -3   -1    0    0    0  501 -0.00000000000E+00  0.00000000000E+00  0.16283224091E+02  0.16283537325E+02  0.10100000000E+00 0.  1.
          3   -1    0    0  501    0  0.00000000000E+00 -0.00000000000E+00 -0.12831225433E+03  0.12831229408E+03  0.10100000000E+00 0. -1.
         23    2    1    2    0    0  0.00000000000E+00 -0.35527136788E-14 -0.11202903024E+03  0.14459583141E+03  0.91419094524E+02 0.  0.
    9000005    2    3    3    0    0  0.18002696807E+02  0.21006369749E+02 -0.12164742445E+01  0.30382052778E+02  0.12498986321E+02 0.  0.
         22    1    3    3    0    0 -0.18002696807E+02 -0.21006369749E+02 -0.11081255599E+03  0.11421377863E+03  0.00000000000E+00 0. -1.
         22    1    4    4    0    0  0.12708968237E+02  0.17204068336E+02  0.43308013225E+01  0.21823237181E+02  0.00000000000E+00 0. -1.
         22    1    4    4    0    0  0.52937285704E+01  0.38023014127E+01 -0.55472755670E+01  0.85588155971E+01  0.00000000000E+00 0. -1.
<mgrwt>
<rscale>  0 0.91419095E+02</rscale>
<asrwt>0</asrwt>
<pdfrwt beam="2">  1        3 0.19740373E-01 0.91419095E+02</pdfrwt>
<pdfrwt beam="1">  1       -3 0.25051386E-02 0.91419095E+02</pdfrwt>
<totfact> 0.31413858E+04</totfact>
</mgrwt>
</event>
<event>
 7    1  0.1247599E-009  0.9157585E+02  0.7818608E-02  0.1299080E+00
         -3   -1    0    0    0  501 -0.00000000000E+00  0.00000000000E+00  0.49221115113E+02  0.49221218737E+02  0.10100000000E+00 0.  1.
          3   -1    0    0  501    0  0.00000000000E+00 -0.00000000000E+00 -0.42593989979E+02  0.42594109726E+02  0.10100000000E+00 0. -1.
         23    2    1    2    0    0 -0.17763568394E-14  0.00000000000E+00  0.66271251343E+01  0.91815328463E+02  0.91575846997E+02 0.  0.
    9000005    2    3    3    0    0  0.12399518835E+02  0.98543752374E+01  0.45781250964E+02  0.49579060302E+02  0.10550047486E+02 0.  0.
         22    1    3    3    0    0 -0.12399518835E+02 -0.98543752374E+01 -0.39154125830E+02  0.42236268161E+02  0.00000000000E+00 0. -1.
         22    1    4    4    0    0  0.12824175068E+01  0.15250092395E+01  0.28927009381E+00  0.20134361250E+01  0.00000000000E+00 0. -1.
         22    1    4    4    0    0  0.11117101329E+02  0.83293659979E+01  0.45491980870E+02  0.47565624177E+02  0.00000000000E+00 0. -1.
<mgrwt>
<rscale>  0 0.91575847E+02</rscale>
<asrwt>0</asrwt>
<pdfrwt beam="2">  1        3 0.65529387E-02 0.91575847E+02</pdfrwt>
<pdfrwt beam="1">  1       -3 0.75724964E-02 0.91575847E+02</pdfrwt>
<totfact> 0.34871623E+04</totfact>
</mgrwt>
</event>
<event>
 7    1  0.1247599E-009  0.9512014E+02  0.7818608E-02  0.1290906E+00
          3   -1    0    0  501    0  0.00000000000E+00  0.00000000000E+00  0.17143162983E+03  0.17143165959E+03  0.10100000000E+00 0. -1.
         -3   -1    0    0    0  501 -0.00000000000E+00 -0.00000000000E+00 -0.13194308642E+02  0.13194695204E+02  0.10100000000E+00 0.  1.
         23    2    1    2    0    0  0.00000000000E+00  0.00000000000E+00  0.15823732119E+03  0.18462635479E+03  0.95120140167E+02 0.  0.
    9000005    2    3    3    0    0 -0.24510897623E+02  0.38387810724E+02  0.10485495222E+03  0.11445452689E+03  0.55560421983E+01 0.  0.
         22    1    3    3    0    0  0.24510897623E+02 -0.38387810724E+02  0.53382368967E+02  0.70171827901E+02  0.00000000000E+00 0.  1.
         22    1    4    4    0    0 -0.63646598472E+01  0.14652843328E+02  0.38554203415E+02  0.41732976332E+02  0.00000000000E+00 0. -1.
         22    1    4    4    0    0 -0.18146237776E+02  0.23734967397E+02  0.66300748810E+02  0.72721550557E+02  0.00000000000E+00 0. -1.
<mgrwt>
<rscale>  0 0.95120140E+02</rscale>
<asrwt>0</asrwt>
<pdfrwt beam="1">  1        3 0.26374127E-01 0.95120140E+02</pdfrwt>
<pdfrwt beam="2">  1       -3 0.20299258E-02 0.95120140E+02</pdfrwt>
<totfact> 0.26134423E+04</totfact>
</mgrwt>
</event>
<event>
 7    1  0.1247599E-009  0.9053246E+02  0.7818608E-02  0.1301567E+00
          3   -1    0    0  501    0  0.00000000000E+00  0.00000000000E+00  0.25962495896E+02  0.25962692352E+02  0.10100000000E+00 0. -1.
         -3   -1    0    0    0  501 -0.00000000000E+00 -0.00000000000E+00 -0.78922223320E+02  0.78922287947E+02  0.10100000000E+00 0.  1.
         23    2    1    2    0    0 -0.88817841970E-15  0.00000000000E+00 -0.52959727424E+02  0.10488498030E+03  0.90532460275E+02 0.  0.
    9000005    2    3    3    0    0  0.79898075798E+01 -0.21402260622E+02 -0.71500648067E+02  0.75462887865E+02  0.77724504516E+01 0.  0.
         22    1    3    3    0    0 -0.79898075798E+01  0.21402260622E+02  0.18540920643E+02  0.29422092434E+02  0.00000000000E+00 0. -1.
         22    1    4    4    0    0  0.27614144894E+01 -0.20418780686E+01 -0.18055630961E+02  0.18379349429E+02  0.00000000000E+00 0.  1.
         22    1    4    4    0    0  0.52283930905E+01 -0.19360382553E+02 -0.53445017106E+02  0.57083538436E+02  0.00000000000E+00 0.  1.
<mgrwt>
<rscale>  0 0.90532460E+02</rscale>
<asrwt>0</asrwt>
<pdfrwt beam="1">  1        3 0.39942502E-02 0.90532460E+02</pdfrwt>
<pdfrwt beam="2">  1       -3 0.12141901E-01 0.90532460E+02</pdfrwt>
<totfact> 0.34981676E+04</totfact>
</mgrwt>
</event>
<event>
 7    1  0.1247599E-009  0.9067250E+02  0.7818608E-02  0.1301231E+00
         -3   -1    0    0    0  501 -0.00000000000E+00  0.00000000000E+00  0.12632536427E+03  0.12632540464E+03  0.10100000000E+00 0.  1.
          3   -1    0    0  501    0  0.00000000000E+00 -0.00000000000E+00 -0.16270291220E+02  0.16270604702E+02  0.10100000000E+00 0. -1.
         23    2    1    2    0    0  0.00000000000E+00 -0.71054273576E-14  0.11005507305E+03  0.14259600934E+03  0.90672502876E+02 0.  0.
    9000005    2    3    3    0    0  0.95114558564E+01  0.43844702250E+02  0.59956154347E+02  0.75344783610E+02  0.83228760179E+01 0.  0.
         22    1    3    3    0    0 -0.95114558564E+01 -0.43844702250E+02  0.50098918699E+02  0.67251225734E+02  0.00000000000E+00 0.  1.
         22    1    4    4    0    0  0.12413192447E+01  0.78177822847E+01  0.59608069916E+01  0.99090773188E+01  0.00000000000E+00 0.  1.
         22    1    4    4    0    0  0.82701366117E+01  0.36026919966E+02  0.53995347355E+02  0.65435706291E+02  0.00000000000E+00 0.  1.
<mgrwt>
<rscale>  0 0.90672503E+02</rscale>
<asrwt>0</asrwt>
<pdfrwt beam="2">  1        3 0.25031489E-02 0.90672503E+02</pdfrwt>
<pdfrwt beam="1">  1       -3 0.19434699E-01 0.90672503E+02</pdfrwt>
<totfact> 0.32248057E+04</totfact>
</mgrwt>
</event>
<event>
 7    1  0.1247599E-009  0.1099768E+03  0.7818608E-02  0.1260613E+00
         -3   -1    0    0    0  501 -0.00000000000E+00  0.00000000000E+00  0.67238643546E+03  0.67238644305E+03  0.10100000000E+00 0.  1.
          3   -1    0    0  501    0  0.00000000000E+00 -0.00000000000E+00 -0.44964317151E+01  0.44975659160E+01  0.10100000000E+00 0. -1.
         23    2    1    2    0    0  0.00000000000E+00  0.00000000000E+00  0.66789000375E+03  0.67688400896E+03  0.10997683613E+03 0.  0.
    9000005    2    3    3    0    0  0.77680788657E+01  0.53237958649E+02  0.36433072388E+03  0.36859378907E+03  0.15161849684E+02 0.  0.
         22    1    3    3    0    0 -0.77680788657E+01 -0.53237958649E+02  0.30355927987E+03  0.30829021990E+03  0.00000000000E+00 0. -1.
         22    1    4    4    0    0  0.10548629470E+02  0.23827247715E+02  0.15191739057E+03  0.15413599474E+03  0.00000000000E+00 0.  1.
         22    1    4    4    0    0 -0.27805506042E+01  0.29410710934E+02  0.21241333331E+03  0.21445779432E+03  0.00000000000E+00 0.  1.
<mgrwt>
<rscale>  0 0.10997684E+03</rscale>
<asrwt>0</asrwt>
<pdfrwt beam="2">  1        3 0.69184723E-03 0.10997684E+03</pdfrwt>
<pdfrwt beam="1">  1       -3 0.10344405E+00 0.10997684E+03</pdfrwt>
<totfact> 0.86250007E+03</totfact>
</mgrwt>
</event>
<event>
 7    1  0.1247599E-009  0.9185273E+02  0.7818608E-02  0.1298426E+00
          3   -1    0    0  501    0  0.00000000000E+00  0.00000000000E+00  0.36559774537E+03  0.36559775932E+03  0.10100000000E+00 0. -1.
         -3   -1    0    0    0  501 -0.00000000000E+00 -0.00000000000E+00 -0.57688114446E+01  0.57696955278E+01  0.10100000000E+00 0.  1.
         23    2    1    2    0    0  0.00000000000E+00  0.00000000000E+00  0.35982893393E+03  0.37136745485E+03  0.91852734478E+02 0.  0.
    9000005    2    3    3    0    0  0.19974112201E+02  0.20091171284E+02  0.32594129065E+03  0.32719741196E+03  0.42191376784E+01 0.  0.
         22    1    3    3    0    0 -0.19974112201E+02 -0.20091171284E+02  0.33887643274E+02  0.44170042885E+02  0.00000000000E+00 0.  1.
         22    1    4    4    0    0  0.15061079146E+02  0.13567380001E+02  0.21362852465E+03  0.21458810882E+03  0.00000000000E+00 0. -1.
         22    1    4    4    0    0  0.49130330554E+01  0.65237912830E+01  0.11231276601E+03  0.11260930314E+03  0.00000000000E+00 0. -1.
<mgrwt>
<rscale>  0 0.91852734E+02</rscale>
<asrwt>0</asrwt>
<pdfrwt beam="1">  1        3 0.56245891E-01 0.91852734E+02</pdfrwt>
<pdfrwt beam="2">  1       -3 0.88757829E-03 0.91852734E+02</pdfrwt>
<totfact> 0.21087072E+04</totfact>
</mgrwt>
</event>
<event>
 7    1  0.1247599E-009  0.8985267E+02  0.7818608E-02  0.1303209E+00
          3   -1    0    0  501    0  0.00000000000E+00  0.00000000000E+00  0.37083184641E+03  0.37083186016E+03  0.10100000000E+00 0. -1.
         -3   -1    0    0    0  501 -0.00000000000E+00 -0.00000000000E+00 -0.54423504439E+01  0.54432875502E+01  0.10100000000E+00 0.  1.
         23    2    1    2    0    0  0.00000000000E+00  0.17763568394E-14  0.36538949596E+03  0.37627514771E+03  0.89852674001E+02 0.  0.
    9000005    2    3    3    0    0 -0.35225324491E+02  0.13426360022E+02  0.28220104878E+03  0.28494383668E+03  0.11596012412E+02 0.  0.
         22    1    3    3    0    0  0.35225324491E+02 -0.13426360022E+02  0.83188447187E+02  0.91331311029E+02  0.00000000000E+00 0. -1.
         22    1    4    4    0    0 -0.56737203068E+01 -0.98000163399E+00  0.66883463198E+02  0.67130836094E+02  0.00000000000E+00 0.  1.
         22    1    4    4    0    0 -0.29551604184E+02  0.14406361656E+02  0.21531758558E+03  0.21781300059E+03  0.00000000000E+00 0.  1.
<mgrwt>
<rscale>  0 0.89852674E+02</rscale>
<asrwt>0</asrwt>
<pdfrwt beam="1">  1        3 0.57051141E-01 0.89852674E+02</pdfrwt>
<pdfrwt beam="2">  1       -3 0.83735761E-03 0.89852674E+02</pdfrwt>
<totfact> 0.22202189E+04</totfact>
</mgrwt>
</event>
<event>
 7    1  0.1247599E-009  0.9081788E+02  0.7818608E-02  0.1300883E+00
          3   -1    0    0  501    0  0.00000000000E+00  0.00000000000E+00  0.85741367771E+02  0.85741427258E+02  0.10100000000E+00 0. -1.
         -3   -1    0    0    0  501 -0.00000000000E+00 -0.00000000000E+00 -0.24048566189E+02  0.24048778280E+02  0.10100000000E+00 0.  1.
         23    2    1    2    0    0  0.35527136788E-14  0.00000000000E+00  0.61692801582E+02  0.10979020554E+03  0.90817880757E+02 0.  0.
    9000005    2    3    3    0    0  0.19820653689E+02  0.40225105072E+02  0.34181236106E+02  0.57180286078E+02  0.95032006965E+01 0.  0.
         22    1    3    3    0    0 -0.19820653689E+02 -0.40225105072E+02  0.27511565476E+02  0.52609919461E+02  0.00000000000E+00 0.  1.
         22    1    4    4    0    0  0.15444514326E+02  0.35744911454E+02  0.32436550502E+02  0.50679004786E+02  0.00000000000E+00 0.  1.
         22    1    4    4    0    0  0.43761393628E+01  0.44801936183E+01  0.17446856040E+01  0.65012812919E+01  0.00000000000E+00 0.  1.
<mgrwt>
<rscale>  0 0.90817881E+02</rscale>
<asrwt>0</asrwt>
<pdfrwt beam="1">  1        3 0.13191001E-01 0.90817881E+02</pdfrwt>
<pdfrwt beam="2">  1       -3 0.36998002E-02 0.90817881E+02</pdfrwt>
<totfact> 0.34325590E+04</totfact>
</mgrwt>
</event>
<event>
 7    1  0.1247599E-009  0.9114229E+02  0.7818608E-02  0.1300109E+00
          3   -1    0    0  501    0  0.00000000000E+00  0.00000000000E+00  0.78108244951E+01  0.78114774719E+01  0.10100000000E+00 0. -1.
         -3   -1    0    0    0  501 -0.00000000000E+00 -0.00000000000E+00 -0.26586657458E+03  0.26586659377E+03  0.10100000000E+00 0.  1.
         23    2    1    2    0    0  0.00000000000E+00  0.88817841970E-15 -0.25805575009E+03  0.27367807124E+03  0.91142287243E+02 0.  0.
    9000005    2    3    3    0    0 -0.44331266411E+02  0.53784740490E+01 -0.15154054744E+03  0.15818054936E+03  0.78968039920E+01 0.  0.
         22    1    3    3    0    0  0.44331266411E+02 -0.53784740490E+01 -0.10651520265E+03  0.11549752188E+03  0.00000000000E+00 0.  1.
         22    1    4    4    0    0 -0.12826483250E+02 -0.11867755149E+01 -0.35696576649E+02  0.37949607286E+02  0.00000000000E+00 0. -1.
         22    1    4    4    0    0 -0.31504783161E+02  0.65652495639E+01 -0.11584397079E+03  0.12023094208E+03  0.00000000000E+00 0. -1.
<mgrwt>
<rscale>  0 0.91142287E+02</rscale>
<asrwt>0</asrwt>
<pdfrwt beam="1">  1        3 0.12017172E-02 0.91142287E+02</pdfrwt>
<pdfrwt beam="2">  1       -3 0.40902595E-01 0.91142287E+02</pdfrwt>
<totfact> 0.25106343E+04</totfact>
</mgrwt>
</event>
<event>
 7    1  0.1247599E-009  0.9522792E+02  0.7818608E-02  0.1290664E+00
          3   -1    0    0  501    0  0.00000000000E+00  0.00000000000E+00  0.22824111941E+03  0.22824114175E+03  0.10100000000E+00 0. -1.
         -3   -1    0    0    0  501 -0.00000000000E+00 -0.00000000000E+00 -0.99325893770E+01  0.99331028753E+01  0.10100000000E+00 0.  1.
         23    2    1    2    0    0  0.00000000000E+00  0.00000000000E+00  0.21830853003E+03  0.23817424463E+03  0.95227918810E+02 0.  0.
    9000005    2    3    3    0    0 -0.44010915665E+02 -0.10977027265E+02  0.13530975882E+03  0.14358961667E+03  0.15867934837E+02 0.  0.
         22    1    3    3    0    0  0.44010915665E+02  0.10977027265E+02  0.82998771207E+02  0.94584627964E+02  0.00000000000E+00 0.  1.
         22    1    4    4    0    0 -0.33819634688E+02 -0.31979624422E+01  0.11133238926E+03  0.11639972316E+03  0.00000000000E+00 0. -1.
         22    1    4    4    0    0 -0.10191280977E+02 -0.77790648226E+01  0.23977369566E+02  0.27189893504E+02  0.00000000000E+00 0. -1.
<mgrwt>
<rscale>  0 0.95227919E+02</rscale>
<asrwt>0</asrwt>
<pdfrwt beam="1">  1        3 0.35114059E-01 0.95227919E+02</pdfrwt>
<pdfrwt beam="2">  1       -3 0.15281319E-02 0.95227919E+02</pdfrwt>
<totfact> 0.23685741E+04</totfact>
</mgrwt>
</event>
<event>
 7    1  0.1247599E-009  0.9095182E+02  0.7818608E-02  0.1300563E+00
          3   -1    0    0  501    0  0.00000000000E+00  0.00000000000E+00  0.17482074552E+02  0.17482366305E+02  0.10100000000E+00 0. -1.
         -3   -1    0    0    0  501 -0.00000000000E+00 -0.00000000000E+00 -0.11829463240E+03  0.11829467551E+03  0.10100000000E+00 0.  1.
         23    2    1    2    0    0  0.00000000000E+00  0.00000000000E+00 -0.10081255784E+03  0.13577704182E+03  0.90951818375E+02 0.  0.
    9000005    2    3    3    0    0 -0.33881349959E+02 -0.26853562111E+02 -0.69210022500E+02  0.82225385324E+02  0.10095895413E+02 0.  0.
         22    1    3    3    0    0  0.33881349959E+02  0.26853562111E+02 -0.31602535343E+02  0.53551656493E+02  0.00000000000E+00 0. -1.
         22    1    4    4    0    0 -0.10256113315E+02 -0.14353483592E+02 -0.26140856042E+02  0.31536561419E+02  0.00000000000E+00 0.  1.
         22    1    4    4    0    0 -0.23625236644E+02 -0.12500078519E+02 -0.43069166459E+02  0.50688823905E+02  0.00000000000E+00 0.  1.
<mgrwt>
<rscale>  0 0.90951818E+02</rscale>
<asrwt>0</asrwt>
<pdfrwt beam="1">  1        3 0.26895758E-02 0.90951818E+02</pdfrwt>
<pdfrwt beam="2">  1       -3 0.18199199E-01 0.90951818E+02</pdfrwt>
<totfact> 0.32417991E+04</totfact>
</mgrwt>
</event>
<event>
 7    1  0.1247599E-009  0.9087736E+02  0.7818608E-02  0.1300741E+00
          3   -1    0    0  501    0  0.00000000000E+00  0.00000000000E+00  0.49481433323E+02  0.49481536402E+02  0.10100000000E+00 0. -1.
         -3   -1    0    0    0  501 -0.00000000000E+00 -0.00000000000E+00 -0.41726020457E+02  0.41726142695E+02  0.10100000000E+00 0.  1.
         23    2    1    2    0    0  0.00000000000E+00  0.00000000000E+00  0.77554128661E+01  0.91207679097E+02  0.90877358553E+02 0.  0.
    9000005    2    3    3    0    0 -0.51784219942E+01 -0.43130253319E+02  0.16675154411E+02  0.46861353489E+02  0.55579556014E+01 0.  0.
         22    1    3    3    0    0  0.51784219942E+01  0.43130253319E+02 -0.89197415454E+01  0.44346325608E+02  0.00000000000E+00 0.  1.
         22    1    4    4    0    0 -0.23636748257E+01 -0.32245152935E+02  0.14384908282E+02  0.35387320226E+02  0.00000000000E+00 0.  1.
         22    1    4    4    0    0 -0.28147471685E+01 -0.10885100384E+02  0.22902461296E+01  0.11474033264E+02  0.00000000000E+00 0.  1.
<mgrwt>
<rscale>  0 0.90877359E+02</rscale>
<asrwt>0</asrwt>
<pdfrwt beam="1">  1        3 0.76125455E-02 0.90877359E+02</pdfrwt>
<pdfrwt beam="2">  1       -3 0.64194051E-02 0.90877359E+02</pdfrwt>
<totfact> 0.35654445E+04</totfact>
</mgrwt>
</event>
<event>
 7    1  0.1247599E-009  0.9112053E+02  0.7818608E-02  0.1300161E+00
          3   -1    0    0  501    0  0.00000000000E+00  0.00000000000E+00  0.15111511739E+03  0.15111515114E+03  0.10100000000E+00 0. -1.
         -3   -1    0    0    0  501 -0.00000000000E+00 -0.00000000000E+00 -0.13735913226E+02  0.13736284547E+02  0.10100000000E+00 0.  1.
         23    2    1    2    0    0  0.00000000000E+00  0.00000000000E+00  0.13737920416E+03  0.16485143569E+03  0.91120525196E+02 0.  0.
    9000005    2    3    3    0    0 -0.25171775174E+02  0.28153487579E+02  0.11388635923E+03  0.12037502743E+03  0.96854159720E+01 0.  0.
         22    1    3    3    0    0  0.25171775174E+02 -0.28153487579E+02  0.23492844934E+02  0.44476408256E+02  0.00000000000E+00 0.  1.
         22    1    4    4    0    0 -0.16938726759E+02  0.12408662083E+02  0.55230926058E+02  0.59087651435E+02  0.00000000000E+00 0.  1.
         22    1    4    4    0    0 -0.82330484155E+01  0.15744825496E+02  0.58655433168E+02  0.61287375994E+02  0.00000000000E+00 0.  1.
<mgrwt>
<rscale>  0 0.91120525E+02</rscale>
<asrwt>0</asrwt>
<pdfrwt beam="1">  1        3 0.23248510E-01 0.91120525E+02</pdfrwt>
<pdfrwt beam="2">  1       -3 0.21132486E-02 0.91120525E+02</pdfrwt>
<totfact> 0.30473432E+04</totfact>
</mgrwt>
</event>
<event>
 7    1  0.1247599E-009  0.9202910E+02  0.7818608E-02  0.1298011E+00
          3   -1    0    0  501    0  0.00000000000E+00  0.00000000000E+00  0.92045784683E+02  0.92045840095E+02  0.10100000000E+00 0. -1.
         -3   -1    0    0    0  501 -0.00000000000E+00 -0.00000000000E+00 -0.23002930772E+02  0.23003152503E+02  0.10100000000E+00 0.  1.
         23    2    1    2    0    0  0.00000000000E+00  0.00000000000E+00  0.69042853911E+02  0.11504899260E+03  0.92029098777E+02 0.  0.
    9000005    2    3    3    0    0  0.38935898653E+02 -0.75909506375E+01  0.75287790945E+01  0.41853308737E+02  0.11017722183E+02 0.  0.
         22    1    3    3    0    0 -0.38935898653E+02  0.75909506375E+01  0.61514074817E+02  0.73195683862E+02  0.00000000000E+00 0. -1.
         22    1    4    4    0    0  0.36424777203E+02 -0.99129392741E+01  0.69780021093E+01  0.38389103568E+02  0.00000000000E+00 0.  1.
         22    1    4    4    0    0  0.25111214494E+01  0.23219886366E+01  0.55077698521E+00  0.34642051685E+01  0.00000000000E+00 0.  1.
<mgrwt>
<rscale>  0 0.92029099E+02</rscale>
<asrwt>0</asrwt>
<pdfrwt beam="1">  1        3 0.14160911E-01 0.92029099E+02</pdfrwt>
<pdfrwt beam="2">  1       -3 0.35389337E-02 0.92029099E+02</pdfrwt>
<totfact> 0.32748147E+04</totfact>
</mgrwt>
</event>
<event>
 7    1  0.1247599E-009  0.8846235E+02  0.7818608E-02  0.1306619E+00
         -3   -1    0    0    0  501 -0.00000000000E+00  0.00000000000E+00  0.41172005361E+02  0.41172129243E+02  0.10100000000E+00 0.  1.
          3   -1    0    0  501    0  0.00000000000E+00 -0.00000000000E+00 -0.47517403105E+02  0.47517510444E+02  0.10100000000E+00 0. -1.
         23    2    1    2    0    0  0.00000000000E+00 -0.17763568394E-14 -0.63453977441E+01  0.88689639688E+02  0.88462354227E+02 0.  0.
    9000005    2    3    3    0    0 -0.33986270844E+02  0.12716620234E+02  0.21297339077E+02  0.43072757561E+02  0.92144862089E+01 0.  0.
         22    1    3    3    0    0  0.33986270844E+02 -0.12716620234E+02 -0.27642736821E+02  0.45616882127E+02  0.00000000000E+00 0. -1.
         22    1    4    4    0    0 -0.30497276527E+02  0.90049670802E+01  0.20702093847E+02  0.37944037705E+02  0.00000000000E+00 0. -1.
         22    1    4    4    0    0 -0.34889943164E+01  0.37116531537E+01  0.59524522920E+00  0.51287198555E+01  0.00000000000E+00 0. -1.
<mgrwt>
<rscale>  0 0.88462354E+02</rscale>
<asrwt>0</asrwt>
<pdfrwt beam="2">  1        3 0.73103875E-02 0.88462354E+02</pdfrwt>
<pdfrwt beam="1">  1       -3 0.63341724E-02 0.88462354E+02</pdfrwt>
<totfact> 0.38571677E+04</totfact>
</mgrwt>
</event>
<event>
 7    1  0.1247599E-009  0.9159401E+02  0.7818608E-02  0.1299037E+00
         -3   -1    0    0    0  501 -0.00000000000E+00  0.00000000000E+00  0.16054604900E+02  0.16054922594E+02  0.10100000000E+00 0.  1.
          3   -1    0    0  501    0  0.00000000000E+00 -0.00000000000E+00 -0.13063787427E+03  0.13063791332E+03  0.10100000000E+00 0. -1.
         23    2    1    2    0    0 -0.35527136788E-14  0.00000000000E+00 -0.11458326938E+03  0.14669283591E+03  0.91594009013E+02 0.  0.
    9000005    2    3    3    0    0  0.23716964754E+02  0.34182363935E+02 -0.30354779419E+02  0.52749411758E+02  0.11408741648E+02 0.  0.
         22    1    3    3    0    0 -0.23716964754E+02 -0.34182363935E+02 -0.84228489956E+02  0.93943424153E+02  0.00000000000E+00 0. -1.
         22    1    4    4    0    0  0.18218511887E+02  0.22428229148E+02 -0.14712679823E+02  0.32425338637E+02  0.00000000000E+00 0.  1.
         22    1    4    4    0    0  0.54984528663E+01  0.11754134786E+02 -0.15642099595E+02  0.20324073122E+02  0.00000000000E+00 0.  1.
<mgrwt>
<rscale>  0 0.91594009E+02</rscale>
<asrwt>0</asrwt>
<pdfrwt beam="2">  1        3 0.20098161E-01 0.91594009E+02</pdfrwt>
<pdfrwt beam="1">  1       -3 0.24699667E-02 0.91594009E+02</pdfrwt>
<totfact> 0.31122586E+04</totfact>
</mgrwt>
</event>
<event>
 7    1  0.1247599E-009  0.9107453E+02  0.7818608E-02  0.1300270E+00
          3   -1    0    0  501    0  0.00000000000E+00  0.00000000000E+00  0.13856431127E+03  0.13856434808E+03  0.10100000000E+00 0. -1.
         -3   -1    0    0    0  501 -0.00000000000E+00 -0.00000000000E+00 -0.14964990254E+02  0.14965331079E+02  0.10100000000E+00 0.  1.
         23    2    1    2    0    0  0.00000000000E+00  0.00000000000E+00  0.12359932102E+03  0.15352967916E+03  0.91074531165E+02 0.  0.
    9000005    2    3    3    0    0 -0.25961012428E+02 -0.24212309497E+02  0.15656086314E+02  0.39898908610E+02  0.93058998592E+01 0.  0.
         22    1    3    3    0    0  0.25961012428E+02  0.24212309497E+02  0.10794323470E+03  0.11363077055E+03  0.00000000000E+00 0. -1.
         22    1    4    4    0    0 -0.98293972108E+01 -0.15393780737E+02  0.67621173906E+01  0.19475927873E+02  0.00000000000E+00 0.  1.
         22    1    4    4    0    0 -0.16131615217E+02 -0.88185287598E+01  0.88939689231E+01  0.20422980737E+02  0.00000000000E+00 0.  1.
<mgrwt>
<rscale>  0 0.91074531E+02</rscale>
<asrwt>0</asrwt>
<pdfrwt beam="1">  1        3 0.21317615E-01 0.91074531E+02</pdfrwt>
<pdfrwt beam="2">  1       -3 0.23023353E-02 0.91074531E+02</pdfrwt>
<totfact> 0.31187266E+04</totfact>
</mgrwt>
</event>
<event>
 7    1  0.1247599E-009  0.9310738E+02  0.7818608E-02  0.1295497E+00
          3   -1    0    0  501    0  0.00000000000E+00  0.00000000000E+00  0.31636510135E+02  0.31636671357E+02  0.10100000000E+00 0. -1.
         -3   -1    0    0    0  501 -0.00000000000E+00 -0.00000000000E+00 -0.68504206559E+02  0.68504281014E+02  0.10100000000E+00 0.  1.
         23    2    1    2    0    0  0.00000000000E+00  0.00000000000E+00 -0.36867696423E+02  0.10014095237E+03  0.93107375122E+02 0.  0.
    9000005    2    3    3    0    0 -0.33816307599E+02 -0.29956306281E+02 -0.26294043692E+02  0.53743483930E+02  0.12492493170E+02 0.  0.
         22    1    3    3    0    0  0.33816307599E+02  0.29956306281E+02 -0.10573652731E+02  0.46397468441E+02  0.00000000000E+00 0. -1.
         22    1    4    4    0    0 -0.28485414715E+02 -0.26558750905E+02 -0.26989595982E+02  0.47383798839E+02  0.00000000000E+00 0.  1.
         22    1    4    4    0    0 -0.53308928835E+01 -0.33975553766E+01  0.69555228974E+00  0.63596850913E+01  0.00000000000E+00 0.  1.
<mgrwt>
<rscale>  0 0.93107375E+02</rscale>
<asrwt>0</asrwt>
<pdfrwt beam="1">  1        3 0.48671736E-02 0.93107375E+02</pdfrwt>
<pdfrwt beam="2">  1       -3 0.10539127E-01 0.93107375E+02</pdfrwt>
<totfact> 0.32735025E+04</totfact>
</mgrwt>
</event>
<event>
 7    1  0.1247599E-009  0.8973117E+02  0.7818608E-02  0.1303504E+00
          3   -1    0    0  501    0  0.00000000000E+00  0.00000000000E+00  0.31507027685E+02  0.31507189569E+02  0.10100000000E+00 0. -1.
         -3   -1    0    0    0  501 -0.00000000000E+00 -0.00000000000E+00 -0.63887627799E+02  0.63887707635E+02  0.10100000000E+00 0.  1.
         23    2    1    2    0    0  0.00000000000E+00  0.35527136788E-14 -0.32380600115E+02  0.95394897204E+02  0.89731171555E+02 0.  0.
    9000005    2    3    3    0    0 -0.23263787577E+02 -0.27730064181E+02  0.11906604749E+02  0.38197722565E+02  0.26717972527E+01 0.  0.
         22    1    3    3    0    0  0.23263787577E+02  0.27730064181E+02 -0.44287204864E+02  0.57197174638E+02  0.00000000000E+00 0.  1.
         22    1    4    4    0    0 -0.19094481879E+02 -0.23399063717E+02  0.10866668704E+02  0.32096727400E+02  0.00000000000E+00 0.  1.
         22    1    4    4    0    0 -0.41693056985E+01 -0.43310004639E+01  0.10399360457E+01  0.61009951651E+01  0.00000000000E+00 0.  1.
<mgrwt>
<rscale>  0 0.89731172E+02</rscale>
<asrwt>0</asrwt>
<pdfrwt beam="1">  1        3 0.48472536E-02 0.89731172E+02</pdfrwt>
<pdfrwt beam="2">  1       -3 0.98288844E-02 0.89731172E+02</pdfrwt>
<totfact> 0.36571236E+04</totfact>
</mgrwt>
</event>
<event>
 7    1  0.1247599E-009  0.8964663E+02  0.7818608E-02  0.1303710E+00
          3   -1    0    0  501    0  0.00000000000E+00  0.00000000000E+00  0.78669971927E+01  0.78676455074E+01  0.10100000000E+00 0. -1.
         -3   -1    0    0    0  501 -0.00000000000E+00 -0.00000000000E+00 -0.25537593777E+03  0.25537595774E+03  0.10100000000E+00 0.  1.
         23    2    1    2    0    0  0.00000000000E+00 -0.71054273576E-14 -0.24750894057E+03  0.26324360325E+03  0.89646633992E+02 0.  0.
    9000005    2    3    3    0    0 -0.12515314520E+02  0.33006979842E+02 -0.50498320579E+02  0.63095462594E+02  0.13596440814E+02 0.  0.
         22    1    3    3    0    0  0.12515314520E+02 -0.33006979842E+02 -0.19701062000E+03  0.20014814065E+03  0.00000000000E+00 0.  1.
         22    1    4    4    0    0 -0.79620486485E+01  0.73534197905E+01 -0.21726671400E+02  0.24279935161E+02  0.00000000000E+00 0. -1.
         22    1    4    4    0    0 -0.45532658714E+01  0.25653560052E+02 -0.28771649178E+02  0.38815527432E+02  0.00000000000E+00 0. -1.
<mgrwt>
<rscale>  0 0.89646634E+02</rscale>
<asrwt>0</asrwt>
<pdfrwt beam="1">  1        3 0.12103589E-02 0.89646634E+02</pdfrwt>
<pdfrwt beam="2">  1       -3 0.39288651E-01 0.89646634E+02</pdfrwt>
<totfact> 0.26706843E+04</totfact>
</mgrwt>
</event>
<event>
 7    1  0.1247599E-009  0.9193184E+02  0.7818608E-02  0.1298240E+00
          3   -1    0    0  501    0  0.00000000000E+00  0.00000000000E+00  0.11756789299E+03  0.11756793637E+03  0.10100000000E+00 0. -1.
         -3   -1    0    0    0  501 -0.00000000000E+00 -0.00000000000E+00 -0.17971263327E+02  0.17971547139E+02  0.10100000000E+00 0.  1.
         23    2    1    2    0    0  0.00000000000E+00  0.00000000000E+00  0.99596629662E+02  0.13553948351E+03  0.91931838612E+02 0.  0.
    9000005    2    3    3    0    0 -0.42356050044E+02 -0.14462717639E+01  0.27702606304E+02  0.52083643260E+02  0.12212486311E+02 0.  0.
         22    1    3    3    0    0  0.42356050044E+02  0.14462717639E+01  0.71894023359E+02  0.83455840252E+02  0.00000000000E+00 0. -1.
         22    1    4    4    0    0 -0.29914545724E+02 -0.92464599102E+00  0.12505664688E+02  0.32436502052E+02  0.00000000000E+00 0.  1.
         22    1    4    4    0    0 -0.12441504321E+02 -0.52162577284E+00  0.15196941615E+02  0.19647141209E+02  0.00000000000E+00 0.  1.
<mgrwt>
<rscale>  0 0.91931839E+02</rscale>
<asrwt>0</asrwt>
<pdfrwt beam="1">  1        3 0.18087393E-01 0.91931839E+02</pdfrwt>
<pdfrwt beam="2">  1       -3 0.27648349E-02 0.91931839E+02</pdfrwt>
<totfact> 0.31501433E+04</totfact>
</mgrwt>
</event>
<event>
 7    1  0.1247599E-009  0.9085386E+02  0.7818608E-02  0.1300797E+00
         -3   -1    0    0    0  501 -0.00000000000E+00  0.00000000000E+00  0.44325395497E+02  0.44325510567E+02  0.10100000000E+00 0.  1.
          3   -1    0    0  501    0  0.00000000000E+00 -0.00000000000E+00 -0.46555603920E+02  0.46555713477E+02  0.10100000000E+00 0. -1.
         23    2    1    2    0    0  0.00000000000E+00  0.00000000000E+00 -0.22302084230E+01  0.90881224044E+02  0.90853855472E+02 0.  0.
    9000005    2    3    3    0    0 -0.36765997841E+02 -0.20093554055E+02 -0.18360520766E+02  0.45984938138E+02  0.46921531273E+01 0.  0.
         22    1    3    3    0    0  0.36765997841E+02  0.20093554055E+02  0.16130312343E+02  0.44896285905E+02  0.00000000000E+00 0. -1.
         22    1    4    4    0    0 -0.85372837604E+01 -0.56531718206E+01 -0.25409839100E+01  0.10549889330E+02  0.00000000000E+00 0. -1.
         22    1    4    4    0    0 -0.28228714081E+02 -0.14440382234E+02 -0.15819536856E+02  0.35435048809E+02  0.00000000000E+00 0. -1.
<mgrwt>
<rscale>  0 0.90853855E+02</rscale>
<asrwt>0</asrwt>
<pdfrwt beam="2">  1        3 0.71624179E-02 0.90853855E+02</pdfrwt>
<pdfrwt beam="1">  1       -3 0.68193089E-02 0.90853855E+02</pdfrwt>
<totfact> 0.35704763E+04</totfact>
</mgrwt>
</event>
<event>
 7    1  0.1247599E-009  0.9161421E+02  0.7818608E-02  0.1298989E+00
          3   -1    0    0  501    0  0.00000000000E+00  0.00000000000E+00  0.10985727069E+02  0.10986191344E+02  0.10100000000E+00 0. -1.
         -3   -1    0    0    0  501 -0.00000000000E+00 -0.00000000000E+00 -0.19099704236E+03  0.19099706906E+03  0.10100000000E+00 0.  1.
         23    2    1    2    0    0 -0.17763568394E-14  0.00000000000E+00 -0.18001131529E+03  0.20198326041E+03  0.91614212067E+02 0.  0.
    9000005    2    3    3    0    0  0.12321050385E+02 -0.32154962787E+02 -0.15530290159E+03  0.15960100443E+03  0.12951426860E+02 0.  0.
         22    1    3    3    0    0 -0.12321050385E+02  0.32154962787E+02 -0.24708413702E+02  0.42382255981E+02  0.00000000000E+00 0. -1.
         22    1    4    4    0    0  0.10753732196E+02 -0.11195504356E+02 -0.56982263877E+02  0.59058957580E+02  0.00000000000E+00 0.  1.
         22    1    4    4    0    0  0.15673181891E+01 -0.20959458431E+02 -0.98320637712E+02  0.10054204685E+03  0.00000000000E+00 0.  1.
<mgrwt>
<rscale>  0 0.91614212E+02</rscale>
<asrwt>0</asrwt>
<pdfrwt beam="1">  1        3 0.16901498E-02 0.91614212E+02</pdfrwt>
<pdfrwt beam="2">  1       -3 0.29384196E-01 0.91614212E+02</pdfrwt>
<totfact> 0.28030124E+04</totfact>
</mgrwt>
</event>
<event>
 7    1  0.1247599E-009  0.8898654E+02  0.7818608E-02  0.1305325E+00
          3   -1    0    0  501    0  0.00000000000E+00  0.00000000000E+00  0.81613513226E+02  0.81613575722E+02  0.10100000000E+00 0. -1.
         -3   -1    0    0    0  501 -0.00000000000E+00 -0.00000000000E+00 -0.24256235919E+02  0.24256446194E+02  0.10100000000E+00 0.  1.
         23    2    1    2    0    0 -0.44408920985E-15  0.00000000000E+00  0.57357277307E+02  0.10587002192E+03  0.88986539884E+02 0.  0.
    9000005    2    3    3    0    0  0.32646036730E+01  0.42313847936E+02  0.13072340121E+02  0.44532635064E+02  0.33391833263E+01 0.  0.
         22    1    3    3    0    0 -0.32646036730E+01 -0.42313847936E+02  0.44284937186E+02  0.61337386852E+02  0.00000000000E+00 0.  1.
         22    1    4    4    0    0  0.35866906053E+01  0.34182224033E+02  0.11510559126E+02  0.36246127527E+02  0.00000000000E+00 0.  1.
         22    1    4    4    0    0 -0.32208693230E+00  0.81316239028E+01  0.15617809950E+01  0.82865075372E+01  0.00000000000E+00 0.  1.
<mgrwt>
<rscale>  0 0.88986540E+02</rscale>
<asrwt>0</asrwt>
<pdfrwt beam="1">  1        3 0.12555946E-01 0.88986540E+02</pdfrwt>
<pdfrwt beam="2">  1       -3 0.37317496E-02 0.88986540E+02</pdfrwt>
<totfact> 0.36575164E+04</totfact>
</mgrwt>
</event>
<event>
 7    1  0.1247599E-009  0.9633609E+02  0.7818608E-02  0.1288195E+00
         -3   -1    0    0    0  501 -0.00000000000E+00  0.00000000000E+00  0.63232084669E+02  0.63232165332E+02  0.10100000000E+00 0.  1.
          3   -1    0    0  501    0  0.00000000000E+00 -0.00000000000E+00 -0.36692603105E+02  0.36692742111E+02  0.10100000000E+00 0. -1.
         23    2    1    2    0    0  0.00000000000E+00  0.17763568394E-14  0.26539481564E+02  0.99924907442E+02  0.96336094200E+02 0.  0.
    9000005    2    3    3    0    0 -0.45454925274E+02 -0.11889972536E+02  0.74750358855E+01  0.49220126922E+02  0.12618361787E+02 0.  0.
         22    1    3    3    0    0  0.45454925274E+02  0.11889972536E+02  0.19064445678E+02  0.50704780520E+02  0.00000000000E+00 0.  1.
         22    1    4    4    0    0 -0.20302937923E+02 -0.99336291743E+01  0.80279123805E+01  0.23986113775E+02  0.00000000000E+00 0.  1.
         22    1    4    4    0    0 -0.25151987351E+02 -0.19563433617E+01 -0.55287649500E+00  0.25234013147E+02  0.00000000000E+00 0.  1.
<mgrwt>
<rscale>  0 0.96336094E+02</rscale>
<asrwt>0</asrwt>
<pdfrwt beam="2">  1        3 0.56450328E-02 0.96336094E+02</pdfrwt>
<pdfrwt beam="1">  1       -3 0.97280299E-02 0.96336094E+02</pdfrwt>
<totfact> 0.29832294E+04</totfact>
</mgrwt>
</event>
<event>
 7    1  0.1247599E-009  0.8983667E+02  0.7818608E-02  0.1303248E+00
         -3   -1    0    0    0  501 -0.00000000000E+00  0.00000000000E+00  0.41949118371E+02  0.41949239958E+02  0.10100000000E+00 0.  1.
          3   -1    0    0  501    0  0.00000000000E+00 -0.00000000000E+00 -0.48097476454E+02  0.48097582499E+02  0.10100000000E+00 0. -1.
         23    2    1    2    0    0  0.00000000000E+00  0.00000000000E+00 -0.61483580834E+01  0.90046822457E+02  0.89836673622E+02 0.  0.
    9000005    2    3    3    0    0 -0.19902889513E+02  0.36656971384E+02  0.12159659131E+02  0.44494192936E+02  0.95925665383E+01 0.  0.
         22    1    3    3    0    0  0.19902889513E+02 -0.36656971384E+02 -0.18308017214E+02  0.45552629522E+02  0.00000000000E+00 0. -1.
         22    1    4    4    0    0 -0.14107296737E+02  0.33068571924E+02  0.95867833746E+01  0.37208234113E+02  0.00000000000E+00 0.  1.
         22    1    4    4    0    0 -0.57955927763E+01  0.35883994601E+01  0.25728757559E+01  0.72859588229E+01  0.00000000000E+00 0.  1.
<mgrwt>
<rscale>  0 0.89836674E+02</rscale>
<asrwt>0</asrwt>
<pdfrwt beam="2">  1        3 0.73996293E-02 0.89836674E+02</pdfrwt>
<pdfrwt beam="1">  1       -3 0.64537280E-02 0.89836674E+02</pdfrwt>
<totfact> 0.36881259E+04</totfact>
</mgrwt>
</event>
<event>
 7    1  0.1247599E-009  0.9074653E+02  0.7818608E-02  0.1301054E+00
         -3   -1    0    0    0  501 -0.00000000000E+00  0.00000000000E+00  0.35599519003E+03  0.35599520436E+03  0.10100000000E+00 0.  1.
          3   -1    0    0  501    0  0.00000000000E+00 -0.00000000000E+00 -0.57825811807E+01  0.57834631590E+01  0.10100000000E+00 0. -1.
         23    2    1    2    0    0  0.00000000000E+00  0.00000000000E+00  0.35021260885E+03  0.36177866752E+03  0.90746530914E+02 0.  0.
    9000005    2    3    3    0    0  0.19889208232E+02  0.54907925089E+01  0.33538678284E+03  0.33637129608E+03  0.15350091729E+02 0.  0.
         22    1    3    3    0    0 -0.19889208232E+02 -0.54907925089E+01  0.14825826010E+02  0.25407371437E+02  0.00000000000E+00 0. -1.
         22    1    4    4    0    0 -0.60982061293E-01  0.44447195905E+01  0.11349212936E+03  0.11357914720E+03  0.00000000000E+00 0.  1.
         22    1    4    4    0    0  0.19950190293E+02  0.10460729183E+01  0.22189465347E+03  0.22279214888E+03  0.00000000000E+00 0.  1.
<mgrwt>
<rscale>  0 0.90746531E+02</rscale>
<asrwt>0</asrwt>
<pdfrwt beam="2">  1        3 0.88969640E-03 0.90746531E+02</pdfrwt>
<pdfrwt beam="1">  1       -3 0.54768586E-01 0.90746531E+02</pdfrwt>
<totfact> 0.22088006E+04</totfact>
</mgrwt>
</event>
<event>
 7    1  0.1247599E-009  0.7529508E+02  0.7818608E-02  0.1342960E+00
          3   -1    0    0  501    0  0.00000000000E+00  0.00000000000E+00  0.12290816018E+03  0.12290820168E+03  0.10100000000E+00 0. -1.
         -3   -1    0    0    0  501 -0.00000000000E+00 -0.00000000000E+00 -0.11531413640E+02  0.11531855945E+02  0.10100000000E+00 0.  1.
         23    2    1    2    0    0  0.35527136788E-14 -0.35527136788E-14  0.11137674654E+03  0.13444005762E+03  0.75295082336E+02 0.  0.
    9000005    2    3    3    0    0  0.19182348732E+02 -0.17464716326E+02  0.12034675614E+02  0.31766663431E+02  0.13831437713E+02 0.  0.
         22    1    3    3    0    0 -0.19182348732E+02  0.17464716326E+02  0.99342070924E+02  0.10267339419E+03  0.00000000000E+00 0. -1.
         22    1    4    4    0    0  0.11260716045E+02 -0.18243478554E+02  0.87682521751E+01  0.23162695910E+02  0.00000000000E+00 0. -1.
         22    1    4    4    0    0  0.79216326869E+01  0.77876222780E+00  0.32664234393E+01  0.86039675219E+01  0.00000000000E+00 0. -1.
<mgrwt>
<rscale>  0 0.75295082E+02</rscale>
<asrwt>0</asrwt>
<pdfrwt beam="1">  1        3 0.18908985E-01 0.75295082E+02</pdfrwt>
<pdfrwt beam="2">  1       -3 0.17741009E-02 0.75295082E+02</pdfrwt>
<totfact> 0.53911701E+04</totfact>
</mgrwt>
</event>
<event>
 7    1  0.1247599E-009  0.9103653E+02  0.7818608E-02  0.1300361E+00
          3   -1    0    0  501    0  0.00000000000E+00  0.00000000000E+00  0.27128282228E+03  0.27128284108E+03  0.10100000000E+00 0. -1.
         -3   -1    0    0    0  501 -0.00000000000E+00 -0.00000000000E+00 -0.76371102927E+01  0.76377781208E+01  0.10100000000E+00 0.  1.
         23    2    1    2    0    0  0.00000000000E+00  0.11102230246E-15  0.26364571199E+03  0.27892061920E+03  0.91036533144E+02 0.  0.
    9000005    2    3    3    0    0  0.20732511088E+02  0.85880262452E+00  0.25524065281E+03  0.25653268545E+03  0.15187274285E+02 0.  0.
         22    1    3    3    0    0 -0.20732511088E+02 -0.85880262452E+00  0.84050591815E+01  0.22387933755E+02  0.00000000000E+00 0.  1.
         22    1    4    4    0    0  0.45974903541E+01  0.65643064764E+01  0.10895410198E+03  0.10924844793E+03  0.00000000000E+00 0.  1.
         22    1    4    4    0    0  0.16135020734E+02 -0.57055038519E+01  0.14628655083E+03  0.14728423752E+03  0.00000000000E+00 0.  1.
<mgrwt>
<rscale>  0 0.91036533E+02</rscale>
<asrwt>0</asrwt>
<pdfrwt beam="1">  1        3 0.41735858E-01 0.91036533E+02</pdfrwt>
<pdfrwt beam="2">  1       -3 0.11749932E-02 0.91036533E+02</pdfrwt>
<totfact> 0.24973592E+04</totfact>
</mgrwt>
</event>
<event>
 7    1  0.1247599E-009  0.9092440E+02  0.7818608E-02  0.1300628E+00
         -3   -1    0    0    0  501 -0.00000000000E+00  0.00000000000E+00  0.27062447628E+02  0.27062636098E+02  0.10100000000E+00 0.  1.
          3   -1    0    0  501    0  0.00000000000E+00 -0.00000000000E+00 -0.76371453069E+02  0.76371519854E+02  0.10100000000E+00 0. -1.
         23    2    1    2    0    0 -0.71054273576E-14  0.00000000000E+00 -0.49309005441E+02  0.10343415595E+03  0.90924400465E+02 0.  0.
    9000005    2    3    3    0    0  0.40965058818E+02 -0.15063957436E+02 -0.34362182833E+02  0.57298850993E+02  0.14047770584E+02 0.  0.
         22    1    3    3    0    0 -0.40965058818E+02  0.15063957436E+02 -0.14946822608E+02  0.46135304960E+02  0.00000000000E+00 0. -1.
         22    1    4    4    0    0  0.21489551729E+02 -0.29172026340E+01 -0.23260988966E+02  0.31802272126E+02  0.00000000000E+00 0. -1.
         22    1    4    4    0    0  0.19475507090E+02 -0.12146754802E+02 -0.11101193867E+02  0.25496578867E+02  0.00000000000E+00 0. -1.
<mgrwt>
<rscale>  0 0.90924400E+02</rscale>
<asrwt>0</asrwt>
<pdfrwt beam="2">  1        3 0.11749474E-01 0.90924400E+02</pdfrwt>
<pdfrwt beam="1">  1       -3 0.41634732E-02 0.90924400E+02</pdfrwt>
<totfact> 0.34679052E+04</totfact>
</mgrwt>
</event>
<event>
 7    1  0.1247599E-009  0.8938023E+02  0.7818608E-02  0.1304360E+00
         -3   -1    0    0    0  501 -0.00000000000E+00  0.00000000000E+00  0.25970368487E+02  0.25970564884E+02  0.10100000000E+00 0.  1.
          3   -1    0    0  501    0  0.00000000000E+00 -0.00000000000E+00 -0.76902753268E+02  0.76902819592E+02  0.10100000000E+00 0. -1.
         23    2    1    2    0    0  0.00000000000E+00  0.00000000000E+00 -0.50932384781E+02  0.10287338448E+03  0.89380229436E+02 0.  0.
    9000005    2    3    3    0    0 -0.32542705031E+02 -0.18659636287E+02 -0.51987298801E+02  0.65345761041E+02  0.12656206867E+02 0.  0.
         22    1    3    3    0    0  0.32542705031E+02  0.18659636287E+02  0.10549140202E+01  0.37527623435E+02  0.00000000000E+00 0.  1.
         22    1    4    4    0    0 -0.13826162532E+02 -0.14552657923E+01 -0.22093587967E+02  0.26103777469E+02  0.00000000000E+00 0.  1.
         22    1    4    4    0    0 -0.18716542500E+02 -0.17204370494E+02 -0.29893710834E+02  0.39241983572E+02  0.00000000000E+00 0.  1.
<mgrwt>
<rscale>  0 0.89380229E+02</rscale>
<asrwt>0</asrwt>
<pdfrwt beam="2">  1        3 0.11831213E-01 0.89380229E+02</pdfrwt>
<pdfrwt beam="1">  1       -3 0.39954615E-02 0.89380229E+02</pdfrwt>
<totfact> 0.36371411E+04</totfact>
</mgrwt>
</event>
<event>
 7    1  0.1271535E-009  0.9073148E+02  0.7818608E-02  0.1301090E+00
          3   -1    0    0  501    0  0.00000000000E+00  0.00000000000E+00  0.73786133319E+02  0.73786202444E+02  0.10100000000E+00 0. -1.
         -3   -1    0    0    0  501 -0.00000000000E+00 -0.00000000000E+00 -0.27891928664E+02  0.27892111530E+02  0.10100000000E+00 0.  1.
         23    2    1    2    0    0  0.35527136788E-14 -0.17763568394E-14  0.45894204654E+02  0.10167831397E+03  0.90731480269E+02 0.  0.
    9000005    2    3    3    0    0 -0.30037618297E+02  0.14770444608E+02 -0.91468899585E+01  0.37258234472E+02  0.13567825661E+02 0.  0.
         22    1    3    3    0    0  0.30037618297E+02 -0.14770444608E+02  0.55041094613E+02  0.64420079502E+02  0.00000000000E+00 0. -1.
         22    1    4    4    0    0 -0.22947708832E+02  0.15639295887E+02 -0.31814100375E+01  0.27951856581E+02  0.00000000000E+00 0. -1.
         22    1    4    4    0    0 -0.70899094656E+01 -0.86885127908E+00 -0.59654799209E+01  0.93063778917E+01  0.00000000000E+00 0. -1.
<mgrwt>
<rscale>  0 0.90731480E+02</rscale>
<asrwt>0</asrwt>
<pdfrwt beam="1">  1        3 0.11351732E-01 0.90731480E+02</pdfrwt>
<pdfrwt beam="2">  1       -3 0.42910853E-02 0.90731480E+02</pdfrwt>
<totfact> 0.35010173E+04</totfact>
</mgrwt>
</event>
<event>
 7    1  0.1247599E-009  0.9452243E+02  0.7818608E-02  0.1292255E+00
         -3   -1    0    0    0  501 -0.00000000000E+00  0.00000000000E+00  0.32725628689E+02  0.32725784546E+02  0.10100000000E+00 0.  1.
          3   -1    0    0  501    0  0.00000000000E+00 -0.00000000000E+00 -0.68252653427E+02  0.68252728157E+02  0.10100000000E+00 0. -1.
         23    2    1    2    0    0  0.00000000000E+00 -0.17763568394E-14 -0.35527024738E+02  0.10097851270E+03  0.94522434061E+02 0.  0.
    9000005    2    3    3    0    0  0.43633863779E+02 -0.98232749526E+01 -0.56383216098E+01  0.47184968724E+02  0.13936276543E+02 0.  0.
         22    1    3    3    0    0 -0.43633863779E+02  0.98232749526E+01 -0.29888703128E+02  0.53793543978E+02  0.00000000000E+00 0. -1.
         22    1    4    4    0    0  0.34656986201E+02 -0.83282051513E+01  0.14141461706E+01  0.35671634431E+02  0.00000000000E+00 0. -1.
         22    1    4    4    0    0  0.89768775779E+01 -0.14950698013E+01 -0.70524677804E+01  0.11513334294E+02  0.00000000000E+00 0. -1.
<mgrwt>
<rscale>  0 0.94522434E+02</rscale>
<asrwt>0</asrwt>
<pdfrwt beam="2">  1        3 0.10500426E-01 0.94522434E+02</pdfrwt>
<pdfrwt beam="1">  1       -3 0.50347299E-02 0.94522434E+02</pdfrwt>
<totfact> 0.31355244E+04</totfact>
</mgrwt>
</event>
<event>
 7    1  0.1247599E-009  0.9061485E+02  0.7818608E-02  0.1301370E+00
         -3   -1    0    0    0  501 -0.00000000000E+00  0.00000000000E+00  0.33516883962E+02  0.33517036138E+02  0.10100000000E+00 0.  1.
          3   -1    0    0  501    0  0.00000000000E+00 -0.00000000000E+00 -0.61245305230E+02  0.61245388510E+02  0.10100000000E+00 0. -1.
         23    2    1    2    0    0  0.00000000000E+00  0.88817841970E-15 -0.27728421268E+02  0.94762424648E+02  0.90614854076E+02 0.  0.
    9000005    2    3    3    0    0 -0.27963497116E+02  0.67429320539E+01 -0.49355100404E+02  0.58774405057E+02  0.13823185240E+02 0.  0.
         22    1    3    3    0    0  0.27963497116E+02 -0.67429320539E+01  0.21626679136E+02  0.35988019592E+02  0.00000000000E+00 0.  1.
         22    1    4    4    0    0 -0.14773509920E+02 -0.28276008444E+01 -0.18171079117E+02  0.23588981287E+02  0.00000000000E+00 0.  1.
         22    1    4    4    0    0 -0.13189987197E+02  0.95705328983E+01 -0.31184021287E+02  0.35185423770E+02  0.00000000000E+00 0.  1.
<mgrwt>
<rscale>  0 0.90614854E+02</rscale>
<asrwt>0</asrwt>
<pdfrwt beam="2">  1        3 0.94223727E-02 0.90614854E+02</pdfrwt>
<pdfrwt beam="1">  1       -3 0.51564618E-02 0.90614854E+02</pdfrwt>
<totfact> 0.35658945E+04</totfact>
</mgrwt>
</event>
<event>
 7    1  0.1247599E-009  0.8905917E+02  0.7818608E-02  0.1305146E+00
          3   -1    0    0  501    0  0.00000000000E+00  0.00000000000E+00  0.23624391202E+02  0.23624607101E+02  0.10100000000E+00 0. -1.
         -3   -1    0    0    0  501 -0.00000000000E+00 -0.00000000000E+00 -0.83933122452E+02  0.83933183220E+02  0.10100000000E+00 0.  1.
         23    2    1    2    0    0  0.00000000000E+00  0.00000000000E+00 -0.60308731250E+02  0.10755779032E+03  0.89059166815E+02 0.  0.
    9000005    2    3    3    0    0  0.31370151247E+02 -0.24073520112E+02 -0.98648833474E+01  0.43462528787E+02  0.15101480897E+02 0.  0.
         22    1    3    3    0    0 -0.31370151247E+02  0.24073520112E+02 -0.50443847903E+02  0.64095261534E+02  0.00000000000E+00 0.  1.
         22    1    4    4    0    0  0.26511544319E+02 -0.11793991192E+02 -0.81949365582E+01  0.30151570367E+02  0.00000000000E+00 0. -1.
         22    1    4    4    0    0  0.48586069278E+01 -0.12279528920E+02 -0.16699467892E+01  0.13310958420E+02  0.00000000000E+00 0. -1.
<mgrwt>
<rscale>  0 0.89059167E+02</rscale>
<asrwt>0</asrwt>
<pdfrwt beam="1">  1        3 0.36345430E-02 0.89059167E+02</pdfrwt>
<pdfrwt beam="2">  1       -3 0.12912809E-01 0.89059167E+02</pdfrwt>
<totfact> 0.36366312E+04</totfact>
</mgrwt>
</event>
<event>
 7    1  0.1247599E-009  0.8942778E+02  0.7818608E-02  0.1304243E+00
         -3   -1    0    0    0  501 -0.00000000000E+00  0.00000000000E+00  0.19485465695E+03  0.19485468313E+03  0.10100000000E+00 0.  1.
          3   -1    0    0  501    0  0.00000000000E+00 -0.00000000000E+00 -0.10260356656E+02  0.10260853751E+02  0.10100000000E+00 0. -1.
         23    2    1    2    0    0  0.00000000000E+00 -0.17763568394E-14  0.18459430029E+03  0.20511553688E+03  0.89427779617E+02 0.  0.
    9000005    2    3    3    0    0 -0.40942652663E+02 -0.15657560461E+02  0.87567833922E+02  0.98646784731E+02  0.11899688794E+02 0.  0.
         22    1    3    3    0    0  0.40942652663E+02  0.15657560461E+02  0.97026466373E+02  0.10646875215E+03  0.00000000000E+00 0.  1.
         22    1    4    4    0    0 -0.81339706686E+01 -0.24294962313E+01  0.84361388351E+01  0.11967972645E+02  0.00000000000E+00 0. -1.
         22    1    4    4    0    0 -0.32808681994E+02 -0.13228064230E+02  0.79131695087E+02  0.86678812087E+02  0.00000000000E+00 0. -1.
<mgrwt>
<rscale>  0 0.89427780E+02</rscale>
<asrwt>0</asrwt>
<pdfrwt beam="2">  1        3 0.15785568E-02 0.89427780E+02</pdfrwt>
<pdfrwt beam="1">  1       -3 0.29977677E-01 0.89427780E+02</pdfrwt>
<totfact> 0.29745119E+04</totfact>
</mgrwt>
</event>
<event>
 7    1  0.1247599E-009  0.9035778E+02  0.7818608E-02  0.1301988E+00
         -3   -1    0    0    0  501 -0.00000000000E+00  0.00000000000E+00  0.51904589014E+02  0.51904687281E+02  0.10100000000E+00 0.  1.
          3   -1    0    0  501    0  0.00000000000E+00 -0.00000000000E+00 -0.39324491282E+02  0.39324620985E+02  0.10100000000E+00 0. -1.
         23    2    1    2    0    0  0.00000000000E+00  0.00000000000E+00  0.12580097732E+02  0.91229308266E+02  0.90357776797E+02 0.  0.
    9000005    2    3    3    0    0  0.12819364329E+02 -0.36540336833E+02  0.29338279674E+02  0.49034889444E+02  0.66448032987E+01 0.  0.
         22    1    3    3    0    0 -0.12819364329E+02  0.36540336833E+02 -0.16758181942E+02  0.42194418821E+02  0.00000000000E+00 0.  1.
         22    1    4    4    0    0  0.24867970508E+01 -0.44077000477E+01  0.14874384052E+01  0.52748888416E+01  0.00000000000E+00 0. -1.
         22    1    4    4    0    0  0.10332567278E+02 -0.32132636786E+02  0.27850841269E+02  0.43760000603E+02  0.00000000000E+00 0. -1.
<mgrwt>
<rscale>  0 0.90357777E+02</rscale>
<asrwt>0</asrwt>
<pdfrwt beam="2">  1        3 0.60499393E-02 0.90357777E+02</pdfrwt>
<pdfrwt beam="1">  1       -3 0.79853389E-02 0.90357777E+02</pdfrwt>
<totfact> 0.36213381E+04</totfact>
</mgrwt>
</event>
<event>
 7    1  0.1247599E-009  0.8743669E+02  0.7818608E-02  0.1309181E+00
          3   -1    0    0  501    0  0.00000000000E+00  0.00000000000E+00  0.23164267044E+02  0.23164487231E+02  0.10100000000E+00 0. -1.
         -3   -1    0    0    0  501 -0.00000000000E+00 -0.00000000000E+00 -0.82509787046E+02  0.82509848863E+02  0.10100000000E+00 0.  1.
         23    2    1    2    0    0  0.00000000000E+00  0.00000000000E+00 -0.59345520003E+02  0.10567433609E+03  0.87436688893E+02 0.  0.
    9000005    2    3    3    0    0 -0.12810566941E+02  0.13942237821E+01 -0.79748346155E+02  0.81542825568E+02  0.11107619092E+02 0.  0.
         22    1    3    3    0    0  0.12810566941E+02 -0.13942237821E+01  0.20402826152E+02  0.24131510526E+02  0.00000000000E+00 0. -1.
         22    1    4    4    0    0 -0.70327644275E+01 -0.43460863936E+01 -0.29411890749E+02  0.30551719426E+02  0.00000000000E+00 0.  1.
         22    1    4    4    0    0 -0.57778025132E+01  0.57403101757E+01 -0.50336455406E+02  0.50991106142E+02  0.00000000000E+00 0.  1.
<mgrwt>
<rscale>  0 0.87436689E+02</rscale>
<asrwt>0</asrwt>
<pdfrwt beam="1">  1        3 0.35637551E-02 0.87436689E+02</pdfrwt>
<pdfrwt beam="2">  1       -3 0.12693835E-01 0.87436689E+02</pdfrwt>
<totfact> 0.38373526E+04</totfact>
</mgrwt>
</event>
<event>
 7    1  0.1247599E-009  0.8763863E+02  0.7818608E-02  0.1308673E+00
          3   -1    0    0  501    0  0.00000000000E+00  0.00000000000E+00  0.10618532967E+03  0.10618537770E+03  0.10100000000E+00 0. -1.
         -3   -1    0    0    0  501 -0.00000000000E+00 -0.00000000000E+00 -0.18082645959E+02  0.18082928023E+02  0.10100000000E+00 0.  1.
         23    2    1    2    0    0 -0.17763568394E-14 -0.71054273576E-14  0.88102683711E+02  0.12426830573E+03  0.87638626936E+02 0.  0.
    9000005    2    3    3    0    0 -0.13820639433E+02 -0.32637550055E+02  0.78707319533E+02  0.87600982183E+02  0.14928837307E+02 0.  0.
         22    1    3    3    0    0  0.13820639433E+02  0.32637550055E+02  0.93953641781E+01  0.36667323545E+02  0.00000000000E+00 0.  1.
         22    1    4    4    0    0 -0.88047964369E+01 -0.15674781784E+02  0.23245590874E+02  0.29386743939E+02  0.00000000000E+00 0.  1.
         22    1    4    4    0    0 -0.50158429965E+01 -0.16962768270E+02  0.55461728659E+02  0.58214238243E+02  0.00000000000E+00 0.  1.
<mgrwt>
<rscale>  0 0.87638627E+02</rscale>
<asrwt>0</asrwt>
<pdfrwt beam="1">  1        3 0.16336230E-01 0.87638627E+02</pdfrwt>
<pdfrwt beam="2">  1       -3 0.27819709E-02 0.87638627E+02</pdfrwt>
<totfact> 0.36679910E+04</totfact>
</mgrwt>
</event>
<event>
 7    1  0.1247599E-009  0.9143581E+02  0.7818608E-02  0.1299411E+00
          3   -1    0    0  501    0  0.00000000000E+00  0.00000000000E+00  0.11992446013E+03  0.11992450266E+03  0.10100000000E+00 0. -1.
         -3   -1    0    0    0  501 -0.00000000000E+00 -0.00000000000E+00 -0.17428503474E+02  0.17428796124E+02  0.10100000000E+00 0.  1.
         23    2    1    2    0    0 -0.35527136788E-14  0.00000000000E+00  0.10249595665E+03  0.13735329878E+03  0.91435811124E+02 0.  0.
    9000005    2    3    3    0    0 -0.27568460026E+02 -0.19060097481E+02  0.69589105434E+01  0.36107881683E+02  0.11491100010E+02 0.  0.
         22    1    3    3    0    0  0.27568460026E+02  0.19060097481E+02  0.95537046108E+02  0.10124541710E+03  0.00000000000E+00 0. -1.
         22    1    4    4    0    0 -0.20572004370E+02 -0.74595378594E+01  0.41543340190E+01  0.22273539458E+02  0.00000000000E+00 0.  1.
         22    1    4    4    0    0 -0.69964556564E+01 -0.11600559622E+02  0.28045765244E+01  0.13834342224E+02  0.00000000000E+00 0.  1.
<mgrwt>
<rscale>  0 0.91435811E+02</rscale>
<asrwt>0</asrwt>
<pdfrwt beam="1">  1        3 0.18449943E-01 0.91435811E+02</pdfrwt>
<pdfrwt beam="2">  1       -3 0.26813339E-02 0.91435811E+02</pdfrwt>
<totfact> 0.31852508E+04</totfact>
</mgrwt>
</event>
<event>
 7    1  0.1247599E-009  0.9150466E+02  0.7818608E-02  0.1299248E+00
          3   -1    0    0  501    0  0.00000000000E+00  0.00000000000E+00  0.77184635704E+02  0.77184701785E+02  0.10100000000E+00 0. -1.
         -3   -1    0    0    0  501 -0.00000000000E+00 -0.00000000000E+00 -0.27120193241E+02  0.27120381310E+02  0.10100000000E+00 0.  1.
         23    2    1    2    0    0  0.00000000000E+00 -0.35527136788E-14  0.50064442463E+02  0.10430508310E+03  0.91504655404E+02 0.  0.
    9000005    2    3    3    0    0 -0.36271905346E+02 -0.27764893624E+02  0.25073762144E+02  0.52237103126E+02  0.36716426304E+01 0.  0.
         22    1    3    3    0    0  0.36271905346E+02  0.27764893624E+02  0.24990680319E+02  0.52067979970E+02  0.00000000000E+00 0.  1.
         22    1    4    4    0    0 -0.20868370879E+02 -0.16961019580E+02  0.12884767290E+02  0.29819160224E+02  0.00000000000E+00 0. -1.
         22    1    4    4    0    0 -0.15403534466E+02 -0.10803874044E+02  0.12188994854E+02  0.22417942902E+02  0.00000000000E+00 0. -1.
<mgrwt>
<rscale>  0 0.91504655E+02</rscale>
<asrwt>0</asrwt>
<pdfrwt beam="1">  1        3 0.11874579E-01 0.91504655E+02</pdfrwt>
<pdfrwt beam="2">  1       -3 0.41723570E-02 0.91504655E+02</pdfrwt>
<totfact> 0.34020521E+04</totfact>
</mgrwt>
</event>
<event>
 7    1  0.1247599E-009  0.9196627E+02  0.7818608E-02  0.1298159E+00
         -3   -1    0    0    0  501 -0.00000000000E+00  0.00000000000E+00  0.54942001572E+02  0.54942094406E+02  0.10100000000E+00 0.  1.
          3   -1    0    0  501    0  0.00000000000E+00 -0.00000000000E+00 -0.38484912771E+02  0.38485045303E+02  0.10100000000E+00 0. -1.
         23    2    1    2    0    0  0.00000000000E+00  0.00000000000E+00  0.16457088801E+02  0.93427139709E+02  0.91966269156E+02 0.  0.
    9000005    2    3    3    0    0  0.44272089166E+02  0.36680997976E+01  0.20031349802E+02  0.48859795421E+02  0.35428517416E+01 0.  0.
         22    1    3    3    0    0 -0.44272089166E+02 -0.36680997976E+01 -0.35742610008E+01  0.44567344288E+02  0.00000000000E+00 0. -1.
         22    1    4    4    0    0  0.18023571237E+02 -0.19984720572E+00  0.76445608972E+01  0.19578773464E+02  0.00000000000E+00 0.  1.
         22    1    4    4    0    0  0.26248517929E+02  0.38679470033E+01  0.12386788905E+02  0.29281021957E+02  0.00000000000E+00 0.  1.
<mgrwt>
<rscale>  0 0.91966269E+02</rscale>
<asrwt>0</asrwt>
<pdfrwt beam="2">  1        3 0.59207732E-02 0.91966269E+02</pdfrwt>
<pdfrwt beam="1">  1       -3 0.84526329E-02 0.91966269E+02</pdfrwt>
<totfact> 0.34349199E+04</totfact>
</mgrwt>
</event>
<event>
 7    1  0.1247599E-009  0.9042506E+02  0.7818608E-02  0.1301826E+00
         -3   -1    0    0    0  501 -0.00000000000E+00  0.00000000000E+00  0.11180190982E+03  0.11180195544E+03  0.10100000000E+00 0.  1.
          3   -1    0    0  501    0  0.00000000000E+00 -0.00000000000E+00 -0.18283692556E+02  0.18283971518E+02  0.10100000000E+00 0. -1.
         23    2    1    2    0    0  0.17763568394E-14  0.00000000000E+00  0.93518217267E+02  0.13008592696E+03  0.90425059761E+02 0.  0.
    9000005    2    3    3    0    0  0.10469375665E+02  0.40897190480E+02  0.68889220961E+02  0.81210826195E+02  0.82027745778E+01 0.  0.
         22    1    3    3    0    0 -0.10469375665E+02 -0.40897190480E+02  0.24628996307E+02  0.48875100767E+02  0.00000000000E+00 0.  1.
         22    1    4    4    0    0  0.52445048248E-02 -0.38628943425E+00  0.95919113824E+00  0.10340670537E+01  0.00000000000E+00 0.  1.
         22    1    4    4    0    0  0.10464131160E+02  0.41283479914E+02  0.67930029823E+02  0.80176759142E+02  0.00000000000E+00 0.  1.
<mgrwt>
<rscale>  0 0.90425060E+02</rscale>
<asrwt>0</asrwt>
<pdfrwt beam="2">  1        3 0.28129007E-02 0.90425060E+02</pdfrwt>
<pdfrwt beam="1">  1       -3 0.17200319E-01 0.90425060E+02</pdfrwt>
<totfact> 0.33310495E+04</totfact>
</mgrwt>
</event>
<event>
 7    1  0.1247599E-009  0.9091029E+02  0.7818608E-02  0.1300662E+00
          3   -1    0    0  501    0  0.00000000000E+00  0.00000000000E+00  0.16905013307E+03  0.16905016325E+03  0.10100000000E+00 0. -1.
         -3   -1    0    0    0  501 -0.00000000000E+00 -0.00000000000E+00 -0.12221994477E+02  0.12222411792E+02  0.10100000000E+00 0.  1.
         23    2    1    2    0    0  0.35527136788E-14  0.71054273576E-14  0.15682813860E+03  0.18127257504E+03  0.90910293174E+02 0.  0.
    9000005    2    3    3    0    0  0.17454815578E+02  0.39561835062E+02  0.57256463957E+02  0.72716931375E+02  0.11816939681E+02 0.  0.
         22    1    3    3    0    0 -0.17454815578E+02 -0.39561835062E+02  0.99571674640E+02  0.10855564366E+03  0.00000000000E+00 0. -1.
         22    1    4    4    0    0 -0.71296906987E+00 -0.26670964512E+00  0.17387842051E+00  0.78082817221E+00  0.00000000000E+00 0.  1.
         22    1    4    4    0    0  0.18167784648E+02  0.39828544707E+02  0.57082585536E+02  0.71936103203E+02  0.00000000000E+00 0.  1.
<mgrwt>
<rscale>  0 0.90910293E+02</rscale>
<asrwt>0</asrwt>
<pdfrwt beam="1">  1        3 0.26007746E-01 0.90910293E+02</pdfrwt>
<pdfrwt beam="2">  1       -3 0.18803413E-02 0.90910293E+02</pdfrwt>
<totfact> 0.29730297E+04</totfact>
</mgrwt>
</event>
<event>
 7    1  0.1247599E-009  0.8670637E+02  0.7818608E-02  0.1311030E+00
          3   -1    0    0  501    0  0.00000000000E+00  0.00000000000E+00  0.18832054634E+02  0.18832325473E+02  0.10100000000E+00 0. -1.
         -3   -1    0    0    0  501 -0.00000000000E+00 -0.00000000000E+00 -0.99802157013E+02  0.99802208119E+02  0.10100000000E+00 0.  1.
         23    2    1    2    0    0  0.00000000000E+00 -0.17763568394E-14 -0.80970102379E+02  0.11863453359E+03  0.86706372785E+02 0.  0.
    9000005    2    3    3    0    0 -0.13689622373E+02  0.13374795805E+02 -0.93160335475E+02  0.95943286239E+02  0.12648128122E+02 0.  0.
         22    1    3    3    0    0  0.13689622373E+02 -0.13374795805E+02  0.12190233096E+02  0.22691247354E+02  0.00000000000E+00 0. -1.
         22    1    4    4    0    0 -0.13433174813E+02  0.68481898969E+01 -0.77869033990E+02  0.79315410514E+02  0.00000000000E+00 0.  1.
         22    1    4    4    0    0 -0.25644755993E+00  0.65266059081E+01 -0.15291301485E+02  0.16627875725E+02  0.00000000000E+00 0.  1.
<mgrwt>
<rscale>  0 0.86706373E+02</rscale>
<asrwt>0</asrwt>
<pdfrwt beam="1">  1        3 0.28972640E-02 0.86706373E+02</pdfrwt>
<pdfrwt beam="2">  1       -3 0.15354202E-01 0.86706373E+02</pdfrwt>
<totfact> 0.38197310E+04</totfact>
</mgrwt>
</event>
<event>
 7    1  0.1247599E-009  0.8907641E+02  0.7818608E-02  0.1305104E+00
          3   -1    0    0  501    0  0.00000000000E+00  0.00000000000E+00  0.51112379974E+02  0.51112479763E+02  0.10100000000E+00 0. -1.
         -3   -1    0    0    0  501 -0.00000000000E+00 -0.00000000000E+00 -0.38809407855E+02  0.38809539279E+02  0.10100000000E+00 0.  1.
         23    2    1    2    0    0  0.00000000000E+00  0.00000000000E+00  0.12302972119E+02  0.89922019042E+02  0.89076407570E+02 0.  0.
    9000005    2    3    3    0    0  0.34049819473E+02 -0.24171039528E+02  0.21103027910E+02  0.47248018293E+02  0.65884814418E+01 0.  0.
         22    1    3    3    0    0 -0.34049819473E+02  0.24171039528E+02 -0.88000557907E+01  0.42674000749E+02  0.00000000000E+00 0.  1.
         22    1    4    4    0    0 -0.15895102362E+00 -0.72150828845E+00  0.61429577496E-01  0.74135904338E+00  0.00000000000E+00 0.  1.
         22    1    4    4    0    0  0.34208770496E+02 -0.23449531239E+02  0.21041598332E+02  0.46506659250E+02  0.00000000000E+00 0.  1.
<mgrwt>
<rscale>  0 0.89076408E+02</rscale>
<asrwt>0</asrwt>
<pdfrwt beam="1">  1        3 0.78634608E-02 0.89076408E+02</pdfrwt>
<pdfrwt beam="2">  1       -3 0.59706959E-02 0.89076408E+02</pdfrwt>
<totfact> 0.37752346E+04</totfact>
</mgrwt>
</event>
<event>
 7    1  0.1247599E-009  0.9011842E+02  0.7818608E-02  0.1302565E+00
         -3   -1    0    0    0  501 -0.00000000000E+00  0.00000000000E+00  0.57570047948E+02  0.57570136544E+02  0.10100000000E+00 0.  1.
          3   -1    0    0  501    0  0.00000000000E+00 -0.00000000000E+00 -0.35266977036E+02  0.35267121661E+02  0.10100000000E+00 0. -1.
         23    2    1    2    0    0  0.00000000000E+00 -0.35527136788E-14  0.22303070912E+02  0.92837258205E+02  0.90118419532E+02 0.  0.
    9000005    2    3    3    0    0 -0.36659547897E+02  0.23794033926E+02  0.18928539259E+02  0.49002728821E+02  0.11528197210E+02 0.  0.
         22    1    3    3    0    0  0.36659547897E+02 -0.23794033926E+02  0.33745316529E+01  0.43834529385E+02  0.00000000000E+00 0. -1.
         22    1    4    4    0    0 -0.30582544520E+02  0.24318985990E+02  0.16939388876E+02  0.42586946408E+02  0.00000000000E+00 0. -1.
         22    1    4    4    0    0 -0.60770033776E+01 -0.52495206411E+00  0.19891503824E+01  0.64157824126E+01  0.00000000000E+00 0. -1.
<mgrwt>
<rscale>  0 0.90118420E+02</rscale>
<asrwt>0</asrwt>
<pdfrwt beam="2">  1        3 0.54257067E-02 0.90118420E+02</pdfrwt>
<pdfrwt beam="1">  1       -3 0.88569484E-02 0.90118420E+02</pdfrwt>
<totfact> 0.36347943E+04</totfact>
</mgrwt>
</event>
<event>
 7    1  0.1247599E-009  0.9029580E+02  0.7818608E-02  0.1302137E+00
         -3   -1    0    0    0  501 -0.00000000000E+00  0.00000000000E+00  0.10781461401E+03  0.10781466132E+03  0.10100000000E+00 0.  1.
          3   -1    0    0  501    0  0.00000000000E+00 -0.00000000000E+00 -0.18905720643E+02  0.18905990427E+02  0.10100000000E+00 0. -1.
         23    2    1    2    0    0 -0.71054273576E-14  0.00000000000E+00  0.88908893370E+02  0.12672065175E+03  0.90295804217E+02 0.  0.
    9000005    2    3    3    0    0 -0.38348229379E+02  0.10696567368E+02  0.71827598243E+02  0.83398903247E+02  0.14531687564E+02 0.  0.
         22    1    3    3    0    0  0.38348229379E+02 -0.10696567368E+02  0.17081295127E+02  0.43321748501E+02  0.00000000000E+00 0. -1.
         22    1    4    4    0    0 -0.36797839501E+02  0.71259082832E+01  0.69211110157E+02  0.78708559445E+02  0.00000000000E+00 0.  1.
         22    1    4    4    0    0 -0.15503898780E+01  0.35706590845E+01  0.26164880860E+01  0.46903438015E+01  0.00000000000E+00 0.  1.
<mgrwt>
<rscale>  0 0.90295804E+02</rscale>
<asrwt>0</asrwt>
<pdfrwt beam="2">  1        3 0.29085968E-02 0.90295804E+02</pdfrwt>
<pdfrwt beam="1">  1       -3 0.16586888E-01 0.90295804E+02</pdfrwt>
<totfact> 0.33668759E+04</totfact>
</mgrwt>
</event>
<event>
 7    1  0.1247599E-009  0.9269700E+02  0.7818608E-02  0.1296449E+00
         -3   -1    0    0    0  501 -0.00000000000E+00  0.00000000000E+00  0.24093592154E+02  0.24093803849E+02  0.10100000000E+00 0.  1.
          3   -1    0    0  501    0  0.00000000000E+00 -0.00000000000E+00 -0.89159311091E+02  0.89159368297E+02  0.10100000000E+00 0. -1.
         23    2    1    2    0    0  0.71054273576E-14  0.00000000000E+00 -0.65065718937E+02  0.11325317215E+03  0.92696996825E+02 0.  0.
    9000005    2    3    3    0    0  0.40007635051E+02 -0.99677032433E+01 -0.56810616599E+02  0.71204240115E+02  0.11942850652E+02 0.  0.
         22    1    3    3    0    0 -0.40007635051E+02  0.99677032433E+01 -0.82551023379E+01  0.42048932031E+02  0.00000000000E+00 0.  1.
         22    1    4    4    0    0  0.20380059673E+02 -0.97176362852E+00 -0.35009527076E+02  0.40521082696E+02  0.00000000000E+00 0. -1.
         22    1    4    4    0    0  0.19627575379E+02 -0.89959396147E+01 -0.21801089523E+02  0.30683157419E+02  0.00000000000E+00 0. -1.
<mgrwt>
<rscale>  0 0.92696997E+02</rscale>
<asrwt>0</asrwt>
<pdfrwt beam="2">  1        3 0.13716838E-01 0.92696997E+02</pdfrwt>
<pdfrwt beam="1">  1       -3 0.37067272E-02 0.92696997E+02</pdfrwt>
<totfact> 0.32229179E+04</totfact>
</mgrwt>
</event>
<event>
 7    1  0.1247599E-009  0.9115937E+02  0.7818608E-02  0.1300068E+00
          3   -1    0    0  501    0  0.00000000000E+00  0.00000000000E+00  0.18797354576E+02  0.18797625915E+02  0.10100000000E+00 0. -1.
         -3   -1    0    0    0  501 -0.00000000000E+00 -0.00000000000E+00 -0.11052018804E+03  0.11052023419E+03  0.10100000000E+00 0.  1.
         23    2    1    2    0    0  0.00000000000E+00  0.00000000000E+00 -0.91722833460E+02  0.12931786010E+03  0.91159370133E+02 0.  0.
    9000005    2    3    3    0    0 -0.44276803076E+01 -0.43297284051E+02 -0.62536059483E+02  0.76914358936E+02  0.10526191892E+02 0.  0.
         22    1    3    3    0    0  0.44276803076E+01  0.43297284051E+02 -0.29186773977E+02  0.52403501164E+02  0.00000000000E+00 0. -1.
         22    1    4    4    0    0 -0.59818285641E+01 -0.19900671563E+02 -0.23432446393E+02  0.31319299890E+02  0.00000000000E+00 0. -1.
         22    1    4    4    0    0  0.15541482565E+01 -0.23396612488E+02 -0.39103613090E+02  0.45595059046E+02  0.00000000000E+00 0. -1.
<mgrwt>
<rscale>  0 0.91159370E+02</rscale>
<asrwt>0</asrwt>
<pdfrwt beam="1">  1        3 0.28919252E-02 0.91159370E+02</pdfrwt>
<pdfrwt beam="2">  1       -3 0.17003130E-01 0.91159370E+02</pdfrwt>
<totfact> 0.32639424E+04</totfact>
</mgrwt>
</event>
<event>
 7    1  0.1247599E-009  0.8946597E+02  0.7818608E-02  0.1304150E+00
          3   -1    0    0  501    0  0.00000000000E+00  0.00000000000E+00  0.36928428594E+01  0.36942237864E+01  0.10100000000E+00 0. -1.
         -3   -1    0    0    0  501 -0.00000000000E+00 -0.00000000000E+00 -0.54176704518E+03  0.54176705459E+03  0.10100000000E+00 0.  1.
         23    2    1    2    0    0  0.00000000000E+00 -0.35527136788E-14 -0.53807420232E+03  0.54546127838E+03  0.89465965651E+02 0.  0.
    9000005    2    3    3    0    0 -0.25844183262E+02 -0.16357180506E+02 -0.46482422123E+03  0.46608219491E+03  0.15348505099E+02 0.  0.
         22    1    3    3    0    0  0.25844183262E+02  0.16357180506E+02 -0.73249981083E+02  0.79379083461E+02  0.00000000000E+00 0. -1.
         22    1    4    4    0    0 -0.23341784000E+02 -0.11201076889E+02 -0.28693496183E+03  0.28810063402E+03  0.00000000000E+00 0. -1.
         22    1    4    4    0    0 -0.25023992625E+01 -0.51561036165E+01 -0.17788925941E+03  0.17798156090E+03  0.00000000000E+00 0. -1.
<mgrwt>
<rscale>  0 0.89465966E+02</rscale>
<asrwt>0</asrwt>
<pdfrwt beam="1">  1        3 0.56823705E-03 0.89465966E+02</pdfrwt>
<pdfrwt beam="2">  1       -3 0.83348820E-01 0.89465966E+02</pdfrwt>
<totfact> 0.17709664E+04</totfact>
</mgrwt>
</event>
<event>
 7    1  0.1247599E-009  0.9127793E+02  0.7818608E-02  0.1299786E+00
          3   -1    0    0  501    0  0.00000000000E+00  0.00000000000E+00  0.11417380155E+02  0.11417826878E+02  0.10100000000E+00 0. -1.
         -3   -1    0    0    0  501 -0.00000000000E+00 -0.00000000000E+00 -0.18242967145E+03  0.18242969940E+03  0.10100000000E+00 0.  1.
         23    2    1    2    0    0  0.44408920985E-15  0.00000000000E+00 -0.17101229129E+03  0.19384752628E+03  0.91277925444E+02 0.  0.
    9000005    2    3    3    0    0  0.24587856502E+01 -0.33729972334E+02 -0.20591738129E+02  0.39671978695E+02  0.24677021446E+01 0.  0.
         22    1    3    3    0    0 -0.24587856502E+01  0.33729972334E+02 -0.15042055316E+03  0.15417554759E+03  0.00000000000E+00 0.  1.
         22    1    4    4    0    0  0.67025464772E+00 -0.24385254502E+02 -0.14918261530E+02  0.28594482081E+02  0.00000000000E+00 0.  1.
         22    1    4    4    0    0  0.17885310025E+01 -0.93447178319E+01 -0.56734765991E+01  0.11077496614E+02  0.00000000000E+00 0.  1.
<mgrwt>
<rscale>  0 0.91277925E+02</rscale>
<asrwt>0</asrwt>
<pdfrwt beam="1">  1        3 0.17565567E-02 0.91277925E+02</pdfrwt>
<pdfrwt beam="2">  1       -3 0.28066138E-01 0.91277925E+02</pdfrwt>
<totfact> 0.28732701E+04</totfact>
</mgrwt>
</event>
<event>
 7    1  0.1247599E-009  0.9118370E+02  0.7818608E-02  0.1300010E+00
          3   -1    0    0  501    0  0.00000000000E+00  0.00000000000E+00  0.97128627143E+01  0.97133878285E+01  0.10100000000E+00 0. -1.
         -3   -1    0    0    0  501 -0.00000000000E+00 -0.00000000000E+00 -0.21400027683E+03  0.21400030066E+03  0.10100000000E+00 0.  1.
         23    2    1    2    0    0  0.00000000000E+00  0.00000000000E+00 -0.20428741412E+03  0.22371368849E+03  0.91183698394E+02 0.  0.
    9000005    2    3    3    0    0 -0.38303404540E+01  0.33017850510E+02 -0.17796325782E+03  0.18131308514E+03  0.99329626829E+01 0.  0.
         22    1    3    3    0    0  0.38303404540E+01 -0.33017850510E+02 -0.26324156297E+02  0.42400603357E+02  0.00000000000E+00 0. -1.
         22    1    4    4    0    0 -0.18700710872E+01  0.24638185296E+02 -0.10624925484E+03  0.10908456121E+03  0.00000000000E+00 0.  1.
         22    1    4    4    0    0 -0.19602693668E+01  0.83796652138E+01 -0.71714002980E+02  0.72228523926E+02  0.00000000000E+00 0.  1.
<mgrwt>
<rscale>  0 0.91183698E+02</rscale>
<asrwt>0</asrwt>
<pdfrwt beam="1">  1        3 0.14943290E-02 0.91183698E+02</pdfrwt>
<pdfrwt beam="2">  1       -3 0.32923158E-01 0.91183698E+02</pdfrwt>
<totfact> 0.27309139E+04</totfact>
</mgrwt>
</event>
<event>
 7    1  0.1247599E-009  0.8955484E+02  0.7818608E-02  0.1303933E+00
         -3   -1    0    0    0  501 -0.00000000000E+00  0.00000000000E+00  0.41635008817E+02  0.41635131322E+02  0.10100000000E+00 0.  1.
          3   -1    0    0  501    0  0.00000000000E+00 -0.00000000000E+00 -0.48156759203E+02  0.48156865118E+02  0.10100000000E+00 0. -1.
         23    2    1    2    0    0  0.00000000000E+00  0.00000000000E+00 -0.65217503862E+01  0.89791996440E+02  0.89554840163E+02 0.  0.
    9000005    2    3    3    0    0 -0.31807015873E+02 -0.14510637819E+02  0.23845401413E+02  0.43484234919E+02  0.10001532345E+02 0.  0.
         22    1    3    3    0    0  0.31807015873E+02  0.14510637819E+02 -0.30367151799E+02  0.46307761521E+02  0.00000000000E+00 0. -1.
         22    1    4    4    0    0 -0.17263460507E+01  0.14714202398E+01  0.10646516388E+01  0.25057596295E+01  0.00000000000E+00 0.  1.
         22    1    4    4    0    0 -0.30080669823E+02 -0.15982058059E+02  0.22780749774E+02  0.40978475289E+02  0.00000000000E+00 0.  1.
<mgrwt>
<rscale>  0 0.89554840E+02</rscale>
<asrwt>0</asrwt>
<pdfrwt beam="2">  1        3 0.74087497E-02 0.89554840E+02</pdfrwt>
<pdfrwt beam="1">  1       -3 0.64054036E-02 0.89554840E+02</pdfrwt>
<totfact> 0.37218056E+04</totfact>
</mgrwt>
</event>
<event>
 7    1  0.1247599E-009  0.9333949E+02  0.7818608E-02  0.1294960E+00
          3   -1    0    0  501    0  0.00000000000E+00  0.00000000000E+00  0.29190421687E+02  0.29190596418E+02  0.10100000000E+00 0. -1.
         -3   -1    0    0    0  501 -0.00000000000E+00 -0.00000000000E+00 -0.74615317204E+02  0.74615385561E+02  0.10100000000E+00 0.  1.
         23    2    1    2    0    0  0.00000000000E+00 -0.11102230246E-15 -0.45424895517E+02  0.10380598198E+03  0.93339491974E+02 0.  0.
    9000005    2    3    3    0    0 -0.45305866871E+02  0.55011231229E+00 -0.33521882264E+02  0.56959360746E+02  0.82297016714E+01 0.  0.
         22    1    3    3    0    0  0.45305866871E+02 -0.55011231229E+00 -0.11903013253E+02  0.46846621233E+02  0.00000000000E+00 0. -1.
         22    1    4    4    0    0 -0.68390532171E+01  0.23594016779E+01 -0.78619318016E+01  0.10684072109E+02  0.00000000000E+00 0. -1.
         22    1    4    4    0    0 -0.38466813654E+02 -0.18092893656E+01 -0.25659950463E+02  0.46275288637E+02  0.00000000000E+00 0. -1.
<mgrwt>
<rscale>  0 0.93339492E+02</rscale>
<asrwt>0</asrwt>
<pdfrwt beam="1">  1        3 0.44908528E-02 0.93339492E+02</pdfrwt>
<pdfrwt beam="2">  1       -3 0.11479298E-01 0.93339492E+02</pdfrwt>
<totfact> 0.32261389E+04</totfact>
</mgrwt>
</event>
<event>
 7    1  0.1247599E-009  0.9300383E+02  0.7818608E-02  0.1295736E+00
          3   -1    0    0  501    0  0.00000000000E+00  0.00000000000E+00  0.58722336000E+02  0.58722422858E+02  0.10100000000E+00 0. -1.
         -3   -1    0    0    0  501 -0.00000000000E+00 -0.00000000000E+00 -0.36824445416E+02  0.36824583924E+02  0.10100000000E+00 0.  1.
         23    2    1    2    0    0  0.00000000000E+00  0.00000000000E+00  0.21897890584E+02  0.95547006782E+02  0.93003832679E+02 0.  0.
    9000005    2    3    3    0    0 -0.31534243538E+02 -0.19337565729E+02 -0.16494813970E+02  0.42233315044E+02  0.11967624989E+02 0.  0.
         22    1    3    3    0    0  0.31534243538E+02  0.19337565729E+02  0.38392704554E+02  0.53313691739E+02  0.00000000000E+00 0. -1.
         22    1    4    4    0    0 -0.35118826927E+01  0.11754786014E+01 -0.36673201138E+01  0.52119388721E+01  0.00000000000E+00 0.  1.
         22    1    4    4    0    0 -0.28022360845E+02 -0.20513044330E+02 -0.12827493856E+02  0.37021376172E+02  0.00000000000E+00 0.  1.
<mgrwt>
<rscale>  0 0.93003833E+02</rscale>
<asrwt>0</asrwt>
<pdfrwt beam="1">  1        3 0.90342228E-02 0.93003833E+02</pdfrwt>
<pdfrwt beam="2">  1       -3 0.56653167E-02 0.93003833E+02</pdfrwt>
<totfact> 0.33159484E+04</totfact>
</mgrwt>
</event>
<event>
 7    1  0.1247599E-009  0.8795213E+02  0.7818608E-02  0.1307888E+00
         -3   -1    0    0    0  501 -0.00000000000E+00  0.00000000000E+00  0.42670625670E+01  0.42682577184E+01  0.10100000000E+00 0.  1.
          3   -1    0    0  501    0  0.00000000000E+00 -0.00000000000E+00 -0.45314976446E+03  0.45314977572E+03  0.10100000000E+00 0. -1.
         23    2    1    2    0    0  0.00000000000E+00 -0.71054273576E-14 -0.44888270189E+03  0.45741803343E+03  0.87952130457E+02 0.  0.
    9000005    2    3    3    0    0  0.43634353631E+01 -0.37755694713E+02 -0.33475983360E+03  0.33713270133E+03  0.12238466583E+02 0.  0.
         22    1    3    3    0    0 -0.43634353631E+01  0.37755694713E+02 -0.11412286829E+03  0.12028533210E+03  0.00000000000E+00 0.  1.
         22    1    4    4    0    0  0.56450563181E+00 -0.33499088322E+02 -0.25893911328E+03  0.26109762919E+03  0.00000000000E+00 0.  1.
         22    1    4    4    0    0  0.37989297313E+01 -0.42566063900E+01 -0.75820720326E+02  0.76035072143E+02  0.00000000000E+00 0.  1.
<mgrwt>
<rscale>  0 0.87952130E+02</rscale>
<asrwt>0</asrwt>
<pdfrwt beam="2">  1        3 0.69715403E-01 0.87952130E+02</pdfrwt>
<pdfrwt beam="1">  1       -3 0.65656432E-03 0.87952130E+02</pdfrwt>
<totfact> 0.20901199E+04</totfact>
</mgrwt>
</event>
<event>
 7    1  0.1247599E-009  0.9590391E+02  0.7818608E-02  0.1289153E+00
          3   -1    0    0  501    0  0.00000000000E+00  0.00000000000E+00  0.37271247345E+02  0.37271384193E+02  0.10100000000E+00 0. -1.
         -3   -1    0    0    0  501 -0.00000000000E+00 -0.00000000000E+00 -0.61693115176E+02  0.61693197851E+02  0.10100000000E+00 0.  1.
         23    2    1    2    0    0  0.00000000000E+00  0.35527136788E-14 -0.24421867831E+02  0.98964582044E+02  0.95903914784E+02 0.  0.
    9000005    2    3    3    0    0 -0.11216320978E+02 -0.18741389241E+02 -0.56108465196E+02  0.60479702162E+02  0.57086758591E+01 0.  0.
         22    1    3    3    0    0  0.11216320978E+02  0.18741389241E+02  0.31686597365E+02  0.38484879882E+02  0.00000000000E+00 0. -1.
         22    1    4    4    0    0 -0.66172221575E+01 -0.94839045590E+01 -0.36856377354E+02  0.38628029026E+02  0.00000000000E+00 0.  1.
         22    1    4    4    0    0 -0.45990988208E+01 -0.92574846815E+01 -0.19252087841E+02  0.21851673136E+02  0.00000000000E+00 0.  1.
<mgrwt>
<rscale>  0 0.95903915E+02</rscale>
<asrwt>0</asrwt>
<pdfrwt beam="1">  1        3 0.57340550E-02 0.95903915E+02</pdfrwt>
<pdfrwt beam="2">  1       -3 0.94912653E-02 0.95903915E+02</pdfrwt>
<totfact> 0.30264236E+04</totfact>
</mgrwt>
</event>
<event>
 7    1  0.1247599E-009  0.9071853E+02  0.7818608E-02  0.1301121E+00
         -3   -1    0    0    0  501 -0.00000000000E+00  0.00000000000E+00  0.24991425869E+02  0.24991629958E+02  0.10100000000E+00 0.  1.
          3   -1    0    0  501    0  0.00000000000E+00 -0.00000000000E+00 -0.82326177838E+02  0.82326239792E+02  0.10100000000E+00 0. -1.
         23    2    1    2    0    0  0.00000000000E+00 -0.35527136788E-14 -0.57334751969E+02  0.10731786975E+03  0.90718528341E+02 0.  0.
    9000005    2    3    3    0    0  0.40470721159E+02 -0.17110597301E+02 -0.21512992739E+02  0.50627039403E+02  0.13024455883E+02 0.  0.
         22    1    3    3    0    0 -0.40470721159E+02  0.17110597301E+02 -0.35821759230E+02  0.56690830347E+02  0.00000000000E+00 0. -1.
         22    1    4    4    0    0  0.10320219373E+01 -0.32917345673E+00  0.15995985825E+01  0.19318747550E+01  0.00000000000E+00 0.  1.
         22    1    4    4    0    0  0.39438699221E+02 -0.16781423844E+02 -0.23112591322E+02  0.48695164648E+02  0.00000000000E+00 0.  1.
<mgrwt>
<rscale>  0 0.90718528E+02</rscale>
<asrwt>0</asrwt>
<pdfrwt beam="2">  1        3 0.12665586E-01 0.90718528E+02</pdfrwt>
<pdfrwt beam="1">  1       -3 0.38448553E-02 0.90718528E+02</pdfrwt>
<totfact> 0.34607356E+04</totfact>
</mgrwt>
</event>
<event>
 7    1  0.1247599E-009  0.8953066E+02  0.7818608E-02  0.1303992E+00
         -3   -1    0    0    0  501 -0.00000000000E+00  0.00000000000E+00  0.67099572267E+02  0.67099648281E+02  0.10100000000E+00 0.  1.
          3   -1    0    0  501    0  0.00000000000E+00 -0.00000000000E+00 -0.29864911563E+02  0.29865082348E+02  0.10100000000E+00 0. -1.
         23    2    1    2    0    0 -0.35527136788E-14  0.00000000000E+00  0.37234660704E+02  0.96964730628E+02  0.89530659710E+02 0.  0.
    9000005    2    3    3    0    0  0.25761789283E+02  0.14695847206E+02  0.54089799329E+02  0.62851193576E+02  0.12038622445E+02 0.  0.
         22    1    3    3    0    0 -0.25761789283E+02 -0.14695847206E+02 -0.16855138624E+02  0.34113537052E+02  0.00000000000E+00 0. -1.
         22    1    4    4    0    0  0.19983161402E+02  0.16461903229E+02  0.45471076493E+02  0.52325326516E+02  0.00000000000E+00 0. -1.
         22    1    4    4    0    0  0.57786278807E+01 -0.17660560225E+01  0.86187228356E+01  0.10525867060E+02  0.00000000000E+00 0. -1.
<mgrwt>
<rscale>  0 0.89530660E+02</rscale>
<asrwt>0</asrwt>
<pdfrwt beam="2">  1        3 0.45946208E-02 0.89530660E+02</pdfrwt>
<pdfrwt beam="1">  1       -3 0.10323030E-01 0.89530660E+02</pdfrwt>
<totfact> 0.36669226E+04</totfact>
</mgrwt>
</event>
<event>
 7    1  0.1247599E-009  0.9021413E+02  0.7818608E-02  0.1302334E+00
         -3   -1    0    0    0  501 -0.00000000000E+00  0.00000000000E+00  0.46112323964E+03  0.46112325070E+03  0.10100000000E+00 0.  1.
          3   -1    0    0  501    0  0.00000000000E+00 -0.00000000000E+00 -0.44117825883E+01  0.44129385455E+01  0.10100000000E+00 0. -1.
         23    2    1    2    0    0  0.00000000000E+00  0.00000000000E+00  0.45671145705E+03  0.46553618925E+03  0.90214125812E+02 0.  0.
    9000005    2    3    3    0    0 -0.37740175465E+02  0.12513399845E+02  0.33497974297E+03  0.33747559331E+03  0.98712641571E+01 0.  0.
         22    1    3    3    0    0  0.37740175465E+02 -0.12513399845E+02  0.12173171408E+03  0.12806059594E+03  0.00000000000E+00 0. -1.
         22    1    4    4    0    0 -0.17743693496E+02  0.45626208502E+01  0.11557832208E+03  0.11702138567E+03  0.00000000000E+00 0. -1.
         22    1    4    4    0    0 -0.19996481969E+02  0.79507789952E+01  0.21940142089E+03  0.22045420764E+03  0.00000000000E+00 0. -1.
<mgrwt>
<rscale>  0 0.90214126E+02</rscale>
<asrwt>0</asrwt>
<pdfrwt beam="2">  1        3 0.67882525E-03 0.90214126E+02</pdfrwt>
<pdfrwt beam="1">  1       -3 0.70942158E-01 0.90214126E+02</pdfrwt>
<totfact> 0.19296817E+04</totfact>
</mgrwt>
</event>
<event>
 7    1  0.1247599E-009  0.9131466E+02  0.7818608E-02  0.1299699E+00
         -3   -1    0    0    0  501 -0.00000000000E+00  0.00000000000E+00  0.12986978517E+02  0.12987371250E+02  0.10100000000E+00 0.  1.
          3   -1    0    0  501    0  0.00000000000E+00 -0.00000000000E+00 -0.16051114105E+03  0.16051117282E+03  0.10100000000E+00 0. -1.
         23    2    1    2    0    0  0.00000000000E+00  0.00000000000E+00 -0.14752416253E+03  0.17349854407E+03  0.91314655261E+02 0.  0.
    9000005    2    3    3    0    0 -0.49806984876E+01  0.18547910099E+02 -0.15235164799E+03  0.15369609619E+03  0.65293960443E+01 0.  0.
         22    1    3    3    0    0  0.49806984876E+01 -0.18547910099E+02  0.48274854563E+01  0.19802447886E+02  0.00000000000E+00 0.  1.
         22    1    4    4    0    0 -0.36723931683E+01  0.17987570664E+02 -0.12883912235E+03  0.13014053411E+03  0.00000000000E+00 0.  1.
         22    1    4    4    0    0 -0.13083053192E+01  0.56033943467E+00 -0.23512525637E+02  0.23555562080E+02  0.00000000000E+00 0.  1.
<mgrwt>
<rscale>  0 0.91314655E+02</rscale>
<asrwt>0</asrwt>
<pdfrwt beam="2">  1        3 0.24694053E-01 0.91314655E+02</pdfrwt>
<pdfrwt beam="1">  1       -3 0.19980295E-02 0.91314655E+02</pdfrwt>
<totfact> 0.29806232E+04</totfact>
</mgrwt>
</event>
<event>
 7    1  0.1247599E-009  0.9013292E+02  0.7818608E-02  0.1302530E+00
         -3   -1    0    0    0  501 -0.00000000000E+00  0.00000000000E+00  0.11252796520E+03  0.11252801053E+03  0.10100000000E+00 0. -1.
          3   -1    0    0  501    0  0.00000000000E+00 -0.00000000000E+00 -0.18048529872E+02  0.18048812469E+02  0.10100000000E+00 0.  1.
         23    2    1    2    0    0  0.00000000000E+00  0.35527136788E-14  0.94479435327E+02  0.13057682300E+03  0.90132918536E+02 0.  0.
    9000005    2    3    3    0    0  0.40057721748E+01 -0.29979360718E+02  0.95627509938E+02  0.10030924372E+03  0.15860136227E+01 0.  0.
         22    1    3    3    0    0 -0.40057721748E+01  0.29979360718E+02 -0.11480746105E+01  0.30267579274E+02  0.00000000000E+00 0.  1.
         22    1    4    4    0    0  0.23621370899E+01 -0.11888161103E+02  0.38685467856E+02  0.40539776631E+02  0.00000000000E+00 0.  1.
         22    1    4    4    0    0  0.16436350849E+01 -0.18091199615E+02  0.56942042082E+02  0.59769467090E+02  0.00000000000E+00 0.  1.
<mgrwt>
<rscale>  0 0.90132919E+02</rscale>
<asrwt>0</asrwt>
<pdfrwt beam="2">  1        3 0.27767221E-02 0.90132919E+02</pdfrwt>
<pdfrwt beam="1">  1       -3 0.17312020E-01 0.90132919E+02</pdfrwt>
<totfact> 0.33570019E+04</totfact>
</mgrwt>
</event>
<event>
 7    1  0.1247599E-009  0.9478758E+02  0.7818608E-02  0.1291655E+00
         -3   -1    0    0    0  501 -0.00000000000E+00  0.00000000000E+00  0.67254062539E+01  0.67261646040E+01  0.10100000000E+00 0.  1.
          3   -1    0    0  501    0  0.00000000000E+00 -0.00000000000E+00 -0.33396338173E+03  0.33396339700E+03  0.10100000000E+00 0. -1.
         23    2    1    2    0    0  0.00000000000E+00  0.71054273576E-14 -0.32723797547E+03  0.34068956160E+03  0.94787577213E+02 0.  0.
    9000005    2    3    3    0    0 -0.33562817104E+01 -0.43929788314E+02 -0.11007340646E+03  0.11910088644E+03  0.11303778646E+02 0.  0.
         22    1    3    3    0    0  0.33562817104E+01  0.43929788314E+02 -0.21716456901E+03  0.22158867517E+03  0.00000000000E+00 0. -1.
         22    1    4    4    0    0  0.26800020886E+01 -0.25317042108E+02 -0.53723886830E+02  0.59450744725E+02  0.00000000000E+00 0. -1.
         22    1    4    4    0    0 -0.60362837990E+01 -0.18612746206E+02 -0.56349519631E+02  0.59650141710E+02  0.00000000000E+00 0. -1.
<mgrwt>
<rscale>  0 0.94787577E+02</rscale>
<asrwt>0</asrwt>
<pdfrwt beam="2">  1        3 0.51379028E-01 0.94787577E+02</pdfrwt>
<pdfrwt beam="1">  1       -3 0.10347377E-02 0.94787577E+02</pdfrwt>
<totfact> 0.20302863E+04</totfact>
</mgrwt>
</event>
<event>
 7    1  0.1247599E-009  0.9180842E+02  0.7818608E-02  0.1298531E+00
          3   -1    0    0  501    0  0.00000000000E+00  0.00000000000E+00  0.28918714179E+02  0.28918890552E+02  0.10100000000E+00 0. -1.
         -3   -1    0    0    0  501 -0.00000000000E+00 -0.00000000000E+00 -0.72865758260E+02  0.72865828258E+02  0.10100000000E+00 0.  1.
         23    2    1    2    0    0 -0.17763568394E-14  0.00000000000E+00 -0.43947044081E+02  0.10178471881E+03  0.91808421726E+02 0.  0.
    9000005    2    3    3    0    0  0.14183653086E+02  0.42730333168E+02 -0.26032211512E+02  0.53328567359E+02  0.11798418236E+02 0.  0.
         22    1    3    3    0    0 -0.14183653086E+02 -0.42730333168E+02 -0.17914832569E+02  0.48456151451E+02  0.00000000000E+00 0.  1.
         22    1    4    4    0    0  0.89657539085E+01  0.38938085575E+02 -0.23771508594E+02  0.46493482041E+02  0.00000000000E+00 0. -1.
         22    1    4    4    0    0  0.52178991773E+01  0.37922475927E+01 -0.22607029179E+01  0.68350853185E+01  0.00000000000E+00 0. -1.
<mgrwt>
<rscale>  0 0.91808422E+02</rscale>
<asrwt>0</asrwt>
<pdfrwt beam="1">  1        3 0.44490519E-02 0.91808422E+02</pdfrwt>
<pdfrwt beam="2">  1       -3 0.11210136E-01 0.91808422E+02</pdfrwt>
<totfact> 0.33896505E+04</totfact>
</mgrwt>
</event>
<event>
 7    1  0.1247599E-009  0.8979830E+02  0.7818608E-02  0.1303341E+00
         -3   -1    0    0    0  501 -0.00000000000E+00  0.00000000000E+00  0.87571416905E+01  0.87577241100E+01  0.10100000000E+00 0.  1.
          3   -1    0    0  501    0  0.00000000000E+00 -0.00000000000E+00 -0.23019630386E+03  0.23019632602E+03  0.10100000000E+00 0. -1.
         23    2    1    2    0    0  0.00000000000E+00 -0.35527136788E-14 -0.22143916217E+03  0.23895405013E+03  0.89798304717E+02 0.  0.
    9000005    2    3    3    0    0  0.15000969263E+02  0.30914093355E+02 -0.18739264333E+03  0.19058178853E+03  0.49704224296E+01 0.  0.
         22    1    3    3    0    0 -0.15000969263E+02 -0.30914093355E+02 -0.34046518843E+02  0.48372261599E+02  0.00000000000E+00 0.  1.
         22    1    4    4    0    0  0.13631456932E+02  0.25664001091E+02 -0.14896050307E+03  0.15176853773E+03  0.00000000000E+00 0.  1.
         22    1    4    4    0    0  0.13695123315E+01  0.52500922642E+01 -0.38432140261E+02  0.38813250802E+02  0.00000000000E+00 0.  1.
<mgrwt>
<rscale>  0 0.89798305E+02</rscale>
<asrwt>0</asrwt>
<pdfrwt beam="2">  1        3 0.35414858E-01 0.89798305E+02</pdfrwt>
<pdfrwt beam="1">  1       -3 0.13472993E-02 0.89798305E+02</pdfrwt>
<totfact> 0.27713482E+04</totfact>
</mgrwt>
</event>
<event>
 7    1  0.1247599E-009  0.9816274E+02  0.7818608E-02  0.1284208E+00
         -3   -1    0    0    0  501 -0.00000000000E+00  0.00000000000E+00  0.22393409128E+02  0.22393636895E+02  0.10100000000E+00 0.  1.
          3   -1    0    0  501    0  0.00000000000E+00 -0.00000000000E+00 -0.10757464923E+03  0.10757469665E+03  0.10100000000E+00 0. -1.
         23    2    1    2    0    0  0.00000000000E+00  0.00000000000E+00 -0.85181240104E+02  0.12996833354E+03  0.98162742717E+02 0.  0.
    9000005    2    3    3    0    0  0.38881290016E+02 -0.23061886129E+02 -0.20772944824E+02  0.51278856442E+02  0.12425802837E+02 0.  0.
         22    1    3    3    0    0 -0.38881290016E+02  0.23061886129E+02 -0.64408295280E+02  0.78689477099E+02  0.00000000000E+00 0. -1.
         22    1    4    4    0    0  0.38463726472E+02 -0.20513684519E+02 -0.21486649430E+02  0.48599851959E+02  0.00000000000E+00 0. -1.
         22    1    4    4    0    0  0.41756354474E+00 -0.25482016098E+01  0.71370460592E+00  0.26790044835E+01  0.00000000000E+00 0. -1.
<mgrwt>
<rscale>  0 0.98162743E+02</rscale>
<asrwt>0</asrwt>
<pdfrwt beam="2">  1        3 0.16549967E-01 0.98162743E+02</pdfrwt>
<pdfrwt beam="1">  1       -3 0.34451611E-02 0.98162743E+02</pdfrwt>
<totfact> 0.26634246E+04</totfact>
</mgrwt>
</event>
<event>
 7    1  0.1247599E-009  0.9462849E+02  0.7818608E-02  0.1292015E+00
          3   -1    0    0  501    0  0.00000000000E+00  0.00000000000E+00  0.15726763071E+02  0.15727087387E+02  0.10100000000E+00 0. -1.
         -3   -1    0    0    0  501 -0.00000000000E+00 -0.00000000000E+00 -0.14234393261E+03  0.14234396844E+03  0.10100000000E+00 0.  1.
         23    2    1    2    0    0  0.00000000000E+00  0.00000000000E+00 -0.12661716954E+03  0.15807105583E+03  0.94628489730E+02 0.  0.
    9000005    2    3    3    0    0 -0.38967854964E+02 -0.26468980076E+02 -0.60459476209E+02  0.76855656959E+02  0.56871008720E+01 0.  0.
         22    1    3    3    0    0  0.38967854964E+02  0.26468980076E+02 -0.66157693326E+02  0.81215398866E+02  0.00000000000E+00 0. -1.
         22    1    4    4    0    0 -0.33676025734E+01 -0.10063192219E+01 -0.29750768940E+01  0.46048352841E+01  0.00000000000E+00 0.  1.
         22    1    4    4    0    0 -0.35600252391E+02 -0.25462660854E+02 -0.57484399315E+02  0.72250821675E+02  0.00000000000E+00 0.  1.
<mgrwt>
<rscale>  0 0.94628490E+02</rscale>
<asrwt>0</asrwt>
<pdfrwt beam="1">  1        3 0.24195298E-02 0.94628490E+02</pdfrwt>
<pdfrwt beam="2">  1       -3 0.21899093E-01 0.94628490E+02</pdfrwt>
<totfact> 0.27862440E+04</totfact>
</mgrwt>
</event>
<event>
 7    1  0.1247599E-009  0.9136865E+02  0.7818608E-02  0.1299571E+00
          3   -1    0    0  501    0  0.00000000000E+00  0.00000000000E+00  0.33909306158E+03  0.33909307662E+03  0.10100000000E+00 0. -1.
         -3   -1    0    0    0  501 -0.00000000000E+00 -0.00000000000E+00 -0.61543927792E+01  0.61552214810E+01  0.10100000000E+00 0.  1.
         23    2    1    2    0    0  0.17763568394E-14  0.00000000000E+00  0.33293866880E+03  0.34524829810E+03  0.91368649765E+02 0.  0.
    9000005    2    3    3    0    0  0.14780908675E+02 -0.41538811494E+02  0.15393125446E+03  0.16089102943E+03  0.15720818407E+02 0.  0.
         22    1    3    3    0    0 -0.14780908675E+02  0.41538811494E+02  0.17900741434E+03  0.18435726867E+03  0.00000000000E+00 0.  1.
         22    1    4    4    0    0 -0.13569141000E+01 -0.72387445701E+01  0.43892746988E+02  0.44506335245E+02  0.00000000000E+00 0.  1.
         22    1    4    4    0    0  0.16137822775E+02 -0.34300066924E+02  0.11003850747E+03  0.11638469419E+03  0.00000000000E+00 0.  1.
<mgrwt>
<rscale>  0 0.91368650E+02</rscale>
<asrwt>0</asrwt>
<pdfrwt beam="1">  1        3 0.52168238E-01 0.91368650E+02</pdfrwt>
<pdfrwt beam="2">  1       -3 0.94689439E-03 0.91368650E+02</pdfrwt>
<totfact> 0.22254139E+04</totfact>
</mgrwt>
</event>
<event>
 7    1  0.1247599E-009  0.9109147E+02  0.7818608E-02  0.1300230E+00
          3   -1    0    0  501    0  0.00000000000E+00  0.00000000000E+00  0.72833057736E+01  0.72840060401E+01  0.10100000000E+00 0. -1.
         -3   -1    0    0    0  501 -0.00000000000E+00 -0.00000000000E+00 -0.28480326812E+03  0.28480328603E+03  0.10100000000E+00 0.  1.
         23    2    1    2    0    0  0.00000000000E+00  0.35527136788E-14 -0.27751996234E+03  0.29208729207E+03  0.91091474285E+02 0.  0.
    9000005    2    3    3    0    0  0.35270508391E+02  0.22233664467E+02 -0.84742219909E+02  0.94852400183E+02  0.87971238278E+01 0.  0.
         22    1    3    3    0    0 -0.35270508391E+02 -0.22233664467E+02 -0.19277774243E+03  0.19723489188E+03  0.00000000000E+00 0.  1.
         22    1    4    4    0    0  0.10526868622E+02  0.11434253893E+02 -0.28351598654E+02  0.32332186306E+02  0.00000000000E+00 0. -1.
         22    1    4    4    0    0  0.24743639770E+02  0.10799410574E+02 -0.56390621255E+02  0.62520213878E+02  0.00000000000E+00 0. -1.
<mgrwt>
<rscale>  0 0.91091474E+02</rscale>
<asrwt>0</asrwt>
<pdfrwt beam="1">  1        3 0.11205640E-02 0.91091474E+02</pdfrwt>
<pdfrwt beam="2">  1       -3 0.43815934E-01 0.91091474E+02</pdfrwt>
<totfact> 0.24394795E+04</totfact>
</mgrwt>
</event>
<event>
 7    1  0.1247599E-009  0.9383428E+02  0.7818608E-02  0.1293823E+00
         -3   -1    0    0    0  501 -0.00000000000E+00  0.00000000000E+00  0.21288882222E+02  0.21289121805E+02  0.10100000000E+00 0.  1.
          3   -1    0    0  501    0  0.00000000000E+00 -0.00000000000E+00 -0.10339670368E+03  0.10339675301E+03  0.10100000000E+00 0. -1.
         23    2    1    2    0    0 -0.17763568394E-14 -0.17763568394E-14 -0.82107821457E+02  0.12468587481E+03  0.93834284958E+02 0.  0.
    9000005    2    3    3    0    0  0.15259306826E+02  0.10908611200E+02 -0.97975760346E+02  0.10011687549E+03  0.85026407522E+01 0.  0.
         22    1    3    3    0    0 -0.15259306826E+02 -0.10908611200E+02  0.15867938889E+02  0.24568999322E+02  0.00000000000E+00 0.  1.
         22    1    4    4    0    0  0.69969580184E+00  0.98851067028E+00 -0.25564815296E+02  0.25593485669E+02  0.00000000000E+00 0.  1.
         22    1    4    4    0    0  0.14559611024E+02  0.99201005295E+01 -0.72410945049E+02  0.74523389822E+02  0.00000000000E+00 0.  1.
<mgrwt>
<rscale>  0 0.93834285E+02</rscale>
<asrwt>0</asrwt>
<pdfrwt beam="2">  1        3 0.15907207E-01 0.93834285E+02</pdfrwt>
<pdfrwt beam="1">  1       -3 0.32752349E-02 0.93834285E+02</pdfrwt>
<totfact> 0.30450663E+04</totfact>
</mgrwt>
</event>
<event>
 7    1  0.1419983E-009  0.9239464E+02  0.7818608E-02  0.1297154E+00
         -3   -1    0    0    0  501 -0.00000000000E+00  0.00000000000E+00  0.59571104230E+02  0.59571189850E+02  0.10100000000E+00 0.  1.
          3   -1    0    0  501    0  0.00000000000E+00 -0.00000000000E+00 -0.35825783699E+02  0.35825926068E+02  0.10100000000E+00 0. -1.
         23    2    1    2    0    0  0.88817841970E-15 -0.35527136788E-14  0.23745320532E+02  0.95397115918E+02  0.92394639879E+02 0.  0.
    9000005    2    3    3    0    0 -0.79798228628E+01  0.22027761700E+02 -0.27522225838E+02  0.39029916509E+02  0.14729616734E+02 0.  0.
         22    1    3    3    0    0  0.79798228628E+01 -0.22027761700E+02  0.51267546370E+02  0.56367199409E+02  0.00000000000E+00 0.  1.
         22    1    4    4    0    0 -0.45776687162E+01  0.31189304413E+01 -0.15268856613E+02  0.16242560150E+02  0.00000000000E+00 0. -1.
         22    1    4    4    0    0 -0.34021541466E+01  0.18908831259E+02 -0.12253369226E+02  0.22787356358E+02  0.00000000000E+00 0. -1.
<mgrwt>
<rscale>  0 0.92394640E+02</rscale>
<asrwt>0</asrwt>
<pdfrwt beam="2">  1        3 0.55116766E-02 0.92394640E+02</pdfrwt>
<pdfrwt beam="1">  1       -3 0.91648028E-02 0.92394640E+02</pdfrwt>
<totfact> 0.33771827E+04</totfact>
</mgrwt>
</event>
<event>
 7    1  0.1247599E-009  0.8870927E+02  0.7818608E-02  0.1306008E+00
         -3   -1    0    0    0  501 -0.00000000000E+00  0.00000000000E+00  0.66605113570E+01  0.66612770950E+01  0.10100000000E+00 0.  1.
          3   -1    0    0  501    0  0.00000000000E+00 -0.00000000000E+00 -0.29535498474E+03  0.29535500201E+03  0.10100000000E+00 0. -1.
         23    2    1    2    0    0  0.00000000000E+00  0.00000000000E+00 -0.28869447338E+03  0.30201627910E+03  0.88709266043E+02 0.  0.
    9000005    2    3    3    0    0  0.32003825618E+02 -0.26111368943E+02 -0.94999145335E+02  0.10396596088E+03  0.88337401150E+01 0.  0.
         22    1    3    3    0    0 -0.32003825618E+02  0.26111368943E+02 -0.19369532805E+03  0.19805031822E+03  0.00000000000E+00 0.  1.
         22    1    4    4    0    0  0.19965243751E+02 -0.15305528722E+02 -0.46925987437E+02  0.53243952374E+02  0.00000000000E+00 0.  1.
         22    1    4    4    0    0  0.12038581866E+02 -0.10805840222E+02 -0.48073157898E+02  0.50722008503E+02  0.00000000000E+00 0.  1.
<mgrwt>
<rscale>  0 0.88709266E+02</rscale>
<asrwt>0</asrwt>
<pdfrwt beam="2">  1        3 0.45439279E-01 0.88709266E+02</pdfrwt>
<pdfrwt beam="1">  1       -3 0.10247545E-02 0.88709266E+02</pdfrwt>
<totfact> 0.25778417E+04</totfact>
</mgrwt>
</event>
<event>
 7    1  0.1247599E-009  0.9159327E+02  0.7818608E-02  0.1299039E+00
         -3   -1    0    0    0  501 -0.00000000000E+00  0.00000000000E+00  0.36961902550E+02  0.36962040543E+02  0.10100000000E+00 0.  1.
          3   -1    0    0  501    0  0.00000000000E+00 -0.00000000000E+00 -0.56742779454E+02  0.56742869342E+02  0.10100000000E+00 0. -1.
         23    2    1    2    0    0 -0.35527136788E-14 -0.17763568394E-14 -0.19780876904E+02  0.93704909885E+02  0.91593269652E+02 0.  0.
    9000005    2    3    3    0    0  0.17304205243E+02  0.13138486263E+02 -0.50884532323E+02  0.55764262542E+02  0.69542797440E+01 0.  0.
         22    1    3    3    0    0 -0.17304205243E+02 -0.13138486263E+02  0.31103655419E+02  0.37940647343E+02  0.00000000000E+00 0.  1.
         22    1    4    4    0    0 -0.11350580926E+00  0.50340943004E+00  0.10585965670E-02  0.51604819893E+00  0.00000000000E+00 0. -1.
         22    1    4    4    0    0  0.17417711052E+02  0.12635076833E+02 -0.50885590920E+02  0.55248214343E+02  0.00000000000E+00 0. -1.
<mgrwt>
<rscale>  0 0.91593270E+02</rscale>
<asrwt>0</asrwt>
<pdfrwt beam="2">  1        3 0.87296759E-02 0.91593270E+02</pdfrwt>
<pdfrwt beam="1">  1       -3 0.56864641E-02 0.91593270E+02</pdfrwt>
<totfact> 0.34710956E+04</totfact>
</mgrwt>
</event>
<event>
 7    1  0.1247599E-009  0.9278681E+02  0.7818608E-02  0.1296240E+00
          3   -1    0    0  501    0  0.00000000000E+00  0.00000000000E+00  0.92228119689E+01  0.92233649833E+01  0.10100000000E+00 0. -1.
         -3   -1    0    0    0  501 -0.00000000000E+00 -0.00000000000E+00 -0.23336466515E+03  0.23336468701E+03  0.10100000000E+00 0.  1.
         23    2    1    2    0    0 -0.35527136788E-14  0.00000000000E+00 -0.22414185318E+03  0.24258805199E+03  0.92786812752E+02 0.  0.
    9000005    2    3    3    0    0  0.17677895131E+02 -0.93707267933E+01 -0.22091213215E+03  0.22232109379E+03  0.14972645568E+02 0.  0.
         22    1    3    3    0    0 -0.17677895131E+02  0.93707267933E+01 -0.32297210336E+01  0.20266958204E+02  0.00000000000E+00 0. -1.
         22    1    4    4    0    0  0.78279752265E+01 -0.10780791646E+02 -0.16445730495E+03  0.16499608424E+03  0.00000000000E+00 0.  1.
         22    1    4    4    0    0  0.98499199040E+01  0.14100648522E+01 -0.56454827202E+02  0.57325009546E+02  0.00000000000E+00 0.  1.
<mgrwt>
<rscale>  0 0.92786813E+02</rscale>
<asrwt>0</asrwt>
<pdfrwt beam="1">  1        3 0.14189385E-02 0.92786813E+02</pdfrwt>
<pdfrwt beam="2">  1       -3 0.35902296E-01 0.92786813E+02</pdfrwt>
<totfact> 0.25213580E+04</totfact>
</mgrwt>
</event>
<event>
 7    1  0.1247599E-009  0.9016709E+02  0.7818608E-02  0.1302448E+00
          3   -1    0    0  501    0  0.00000000000E+00  0.00000000000E+00  0.11464256571E+03  0.11464261020E+03  0.10100000000E+00 0. -1.
         -3   -1    0    0    0  501 -0.00000000000E+00 -0.00000000000E+00 -0.17729050885E+02  0.17729338574E+02  0.10100000000E+00 0.  1.
         23    2    1    2    0    0  0.00000000000E+00  0.00000000000E+00  0.96913514825E+02  0.13237194877E+03  0.90167086382E+02 0.  0.
    9000005    2    3    3    0    0  0.13097972079E+02 -0.27008800674E+02  0.22038765388E+01  0.33019305273E+02  0.13578853504E+02 0.  0.
         22    1    3    3    0    0 -0.13097972079E+02  0.27008800674E+02  0.94709638286E+02  0.99352643502E+02  0.00000000000E+00 0. -1.
         22    1    4    4    0    0  0.65880145822E+01 -0.21778595277E+02  0.64517655594E+01  0.23650252160E+02  0.00000000000E+00 0.  1.
         22    1    4    4    0    0  0.65099574973E+01 -0.52302053966E+01 -0.42478890206E+01  0.93690531132E+01  0.00000000000E+00 0.  1.
<mgrwt>
<rscale>  0 0.90167086E+02</rscale>
<asrwt>0</asrwt>
<pdfrwt beam="1">  1        3 0.17637344E-01 0.90167086E+02</pdfrwt>
<pdfrwt beam="2">  1       -3 0.27275718E-02 0.90167086E+02</pdfrwt>
<totfact> 0.33412721E+04</totfact>
</mgrwt>
</event>
<event>
 7    1  0.1247599E-009  0.9086252E+02  0.7818608E-02  0.1300776E+00
          3   -1    0    0  501    0  0.00000000000E+00  0.00000000000E+00  0.93791088211E+02  0.93791142593E+02  0.10100000000E+00 0. -1.
         -3   -1    0    0    0  501 -0.00000000000E+00 -0.00000000000E+00 -0.22006173769E+02  0.22006405544E+02  0.10100000000E+00 0.  1.
         23    2    1    2    0    0  0.00000000000E+00  0.00000000000E+00  0.71784914442E+02  0.11579754814E+03  0.90862523699E+02 0.  0.
    9000005    2    3    3    0    0  0.14479033389E+02 -0.87252083679E+01 -0.15334284798E+02  0.27053384694E+02  0.14524932502E+02 0.  0.
         22    1    3    3    0    0 -0.14479033389E+02  0.87252083679E+01  0.87119199240E+02  0.88744163443E+02  0.00000000000E+00 0. -1.
         22    1    4    4    0    0  0.13904748989E+02 -0.83341309413E+01 -0.53882641888E+01  0.17083125415E+02  0.00000000000E+00 0. -1.
         22    1    4    4    0    0  0.57428440033E+00 -0.39107742659E+00 -0.99460206091E+01  0.99702592786E+01  0.00000000000E+00 0. -1.
<mgrwt>
<rscale>  0 0.90862524E+02</rscale>
<asrwt>0</asrwt>
<pdfrwt beam="1">  1        3 0.14429420E-01 0.90862524E+02</pdfrwt>
<pdfrwt beam="2">  1       -3 0.33855873E-02 0.90862524E+02</pdfrwt>
<totfact> 0.33852204E+04</totfact>
</mgrwt>
</event>
<event>
 7    1  0.1278500E-009  0.9250976E+02  0.7818608E-02  0.1296885E+00
         -3   -1    0    0    0  501 -0.00000000000E+00  0.00000000000E+00  0.10958225496E+03  0.10958230150E+03  0.10100000000E+00 0.  1.
          3   -1    0    0  501    0  0.00000000000E+00 -0.00000000000E+00 -0.19524094120E+02  0.19524355360E+02  0.10100000000E+00 0. -1.
         23    2    1    2    0    0 -0.35527136788E-14  0.00000000000E+00  0.90058160838E+02  0.12910665686E+03  0.92509764419E+02 0.  0.
    9000005    2    3    3    0    0 -0.17381467932E+02 -0.23794310001E+02 -0.14825773765E+01  0.32940179499E+02  0.14648302763E+02 0.  0.
         22    1    3    3    0    0  0.17381467932E+02  0.23794310001E+02  0.91540738214E+02  0.96166477365E+02  0.00000000000E+00 0.  1.
         22    1    4    4    0    0 -0.21012009075E+01 -0.14432136378E+02  0.18869501451E+01  0.14705855518E+02  0.00000000000E+00 0. -1.
         22    1    4    4    0    0 -0.15280267024E+02 -0.93621736234E+01 -0.33695275216E+01  0.18234323980E+02  0.00000000000E+00 0. -1.
<mgrwt>
<rscale>  0 0.92509764E+02</rscale>
<asrwt>0</asrwt>
<pdfrwt beam="2">  1        3 0.30037305E-02 0.92509764E+02</pdfrwt>
<pdfrwt beam="1">  1       -3 0.16858832E-01 0.92509764E+02</pdfrwt>
<totfact> 0.31373025E+04</totfact>
</mgrwt>
</event>
<event>
 7    1  0.1247599E-009  0.9239172E+02  0.7818608E-02  0.1297161E+00
         -3   -1    0    0    0  501 -0.00000000000E+00  0.00000000000E+00  0.81857705395E+02  0.81857767704E+02  0.10100000000E+00 0.  1.
          3   -1    0    0  501    0  0.00000000000E+00 -0.00000000000E+00 -0.26070162743E+02  0.26070358387E+02  0.10100000000E+00 0. -1.
         23    2    1    2    0    0  0.00000000000E+00  0.35527136788E-14  0.55787542651E+02  0.10792812609E+03  0.92391723041E+02 0.  0.
    9000005    2    3    3    0    0  0.10837335632E+02 -0.29229909389E+02  0.66465857716E+02  0.74975707984E+02  0.15225343983E+02 0.  0.
         22    1    3    3    0    0 -0.10837335632E+02  0.29229909389E+02 -0.10678315064E+02  0.32952418107E+02  0.00000000000E+00 0. -1.
         22    1    4    4    0    0  0.10526674542E+02 -0.77520867940E+01  0.21943171530E+02  0.25542288530E+02  0.00000000000E+00 0.  1.
         22    1    4    4    0    0  0.31066108991E+00 -0.21477822595E+02  0.44522686186E+02  0.49433419454E+02  0.00000000000E+00 0.  1.
<mgrwt>
<rscale>  0 0.92391723E+02</rscale>
<asrwt>0</asrwt>
<pdfrwt beam="2">  1        3 0.40108142E-02 0.92391723E+02</pdfrwt>
<pdfrwt beam="1">  1       -3 0.12593513E-01 0.92391723E+02</pdfrwt>
<totfact> 0.32886436E+04</totfact>
</mgrwt>
</event>
<event>
 7    1  0.1257098E-009  0.9272588E+02  0.7818608E-02  0.1296382E+00
          3   -1    0    0  501    0  0.00000000000E+00  0.00000000000E+00  0.49756164431E+02  0.49756266941E+02  0.10100000000E+00 0. -1.
         -3   -1    0    0    0  501 -0.00000000000E+00 -0.00000000000E+00 -0.43200914382E+02  0.43201032446E+02  0.10100000000E+00 0.  1.
         23    2    1    2    0    0  0.35527136788E-14  0.35527136788E-14  0.65552500498E+01  0.92957299387E+02  0.92725876680E+02 0.  0.
    9000005    2    3    3    0    0 -0.18492154446E+02 -0.26132304159E+02  0.36014845438E+02  0.49451841602E+02  0.11115684827E+02 0.  0.
         22    1    3    3    0    0  0.18492154446E+02  0.26132304159E+02 -0.29459595388E+02  0.43505457786E+02  0.00000000000E+00 0.  1.
         22    1    4    4    0    0 -0.13095874540E+02 -0.89678076754E+01  0.15964189428E+02  0.22511749123E+02  0.00000000000E+00 0.  1.
         22    1    4    4    0    0 -0.53962799064E+01 -0.17164496484E+02  0.20050656010E+02  0.26940092479E+02  0.00000000000E+00 0.  1.
<mgrwt>
<rscale>  0 0.92725877E+02</rscale>
<asrwt>0</asrwt>
<pdfrwt beam="1">  1        3 0.76548114E-02 0.92725877E+02</pdfrwt>
<pdfrwt beam="2">  1       -3 0.66463115E-02 0.92725877E+02</pdfrwt>
<totfact> 0.33618978E+04</totfact>
</mgrwt>
</event>
<event>
 7    1  0.1247599E-009  0.9102458E+02  0.7818608E-02  0.1300389E+00
          3   -1    0    0  501    0  0.00000000000E+00  0.00000000000E+00  0.51604979758E+02  0.51605078595E+02  0.10100000000E+00 0. -1.
         -3   -1    0    0    0  501 -0.00000000000E+00 -0.00000000000E+00 -0.40138728035E+02  0.40138855107E+02  0.10100000000E+00 0.  1.
         23    2    1    2    0    0  0.35527136788E-14  0.00000000000E+00  0.11466251722E+02  0.91743933702E+02  0.91024581529E+02 0.  0.
    9000005    2    3    3    0    0 -0.21621476567E+02 -0.28327612506E+02 -0.21099206354E+02  0.43469189385E+02  0.13208029291E+02 0.  0.
         22    1    3    3    0    0  0.21621476567E+02  0.28327612506E+02  0.32565458076E+02  0.48274744318E+02  0.00000000000E+00 0.  1.
         22    1    4    4    0    0 -0.91574666125E+01 -0.41896303220E+01 -0.20155147112E+01  0.10270077728E+02  0.00000000000E+00 0. -1.
         22    1    4    4    0    0 -0.12464009955E+02 -0.24137982184E+02 -0.19083691642E+02  0.33199111656E+02  0.00000000000E+00 0. -1.
<mgrwt>
<rscale>  0 0.91024582E+02</rscale>
<asrwt>0</asrwt>
<pdfrwt beam="1">  1        3 0.79392451E-02 0.91024582E+02</pdfrwt>
<pdfrwt beam="2">  1       -3 0.61752063E-02 0.91024582E+02</pdfrwt>
<totfact> 0.35456702E+04</totfact>
</mgrwt>
</event>
<event>
 7    1  0.1247599E-009  0.8743124E+02  0.7818608E-02  0.1309194E+00
         -3   -1    0    0    0  501 -0.00000000000E+00  0.00000000000E+00  0.46764193759E+01  0.46775099336E+01  0.10100000000E+00 0.  1.
          3   -1    0    0  501    0  0.00000000000E+00 -0.00000000000E+00 -0.40860913394E+03  0.40860914642E+03  0.10100000000E+00 0. -1.
         23    2    1    2    0    0  0.00000000000E+00 -0.17763568394E-14 -0.40393271457E+03  0.41328665636E+03  0.87431243998E+02 0.  0.
    9000005    2    3    3    0    0 -0.39583821943E+02 -0.14784163904E+02 -0.22806563503E+03  0.23241465707E+03  0.14737315813E+02 0.  0.
         22    1    3    3    0    0  0.39583821943E+02  0.14784163904E+02 -0.17586707954E+03  0.18087199929E+03  0.00000000000E+00 0. -1.
         22    1    4    4    0    0 -0.10827877627E+02 -0.11518569201E+02 -0.81388092117E+02  0.82909238984E+02  0.00000000000E+00 0. -1.
         22    1    4    4    0    0 -0.28755944316E+02 -0.32655947025E+01 -0.14667754291E+03  0.14950541808E+03  0.00000000000E+00 0. -1.
<mgrwt>
<rscale>  0 0.87431244E+02</rscale>
<asrwt>0</asrwt>
<pdfrwt beam="2">  1        3 0.62863001E-01 0.87431244E+02</pdfrwt>
<pdfrwt beam="1">  1       -3 0.71953430E-03 0.87431244E+02</pdfrwt>
<totfact> 0.22610790E+04</totfact>
</mgrwt>
</event>
<event>
 7    1  0.1247599E-009  0.9066870E+02  0.7818608E-02  0.1301240E+00
         -3   -1    0    0    0  501 -0.00000000000E+00  0.00000000000E+00  0.17952809612E+02  0.17953093716E+02  0.10100000000E+00 0. -1.
          3   -1    0    0  501    0  0.00000000000E+00 -0.00000000000E+00 -0.11447687790E+03  0.11447692246E+03  0.10100000000E+00 0.  1.
         23    2    1    2    0    0 -0.88817841970E-15  0.71054273576E-14 -0.96524068292E+02  0.13243001617E+03  0.90668701459E+02 0.  0.
    9000005    2    3    3    0    0 -0.54982617682E+01 -0.43963869158E+02 -0.48104695132E+02  0.66798557475E+02  0.13599004125E+02 0.  0.
         22    1    3    3    0    0  0.54982617682E+01  0.43963869158E+02 -0.48419373160E+02  0.65631458700E+02  0.00000000000E+00 0.  1.
         22    1    4    4    0    0 -0.91956477289E+01 -0.24828845711E+02 -0.23427550314E+02  0.35353665018E+02  0.00000000000E+00 0. -1.
         22    1    4    4    0    0  0.36973859607E+01 -0.19135023446E+02 -0.24677144818E+02  0.31444892457E+02  0.00000000000E+00 0. -1.
<mgrwt>
<rscale>  0 0.90668701E+02</rscale>
<asrwt>0</asrwt>
<pdfrwt beam="2">  1        3 0.17611852E-01 0.90668701E+02</pdfrwt>
<pdfrwt beam="1">  1       -3 0.27619961E-02 0.90668701E+02</pdfrwt>
<totfact> 0.32911234E+04</totfact>
</mgrwt>
</event>
<event>
 7    1  0.1247599E-009  0.9393283E+02  0.7818608E-02  0.1293598E+00
         -3   -1    0    0    0  501 -0.00000000000E+00  0.00000000000E+00  0.23196049151E+02  0.23196269036E+02  0.10100000000E+00 0.  1.
          3   -1    0    0  501    0  0.00000000000E+00 -0.00000000000E+00 -0.95094988389E+02  0.95095042025E+02  0.10100000000E+00 0. -1.
         23    2    1    2    0    0  0.71054273576E-14 -0.35527136788E-14 -0.71898939238E+02  0.11829131106E+03  0.93932831369E+02 0.  0.
    9000005    2    3    3    0    0 -0.42024189172E+02  0.18612195971E+02 -0.26617661572E+02  0.53771233400E+02  0.83904302280E+01 0.  0.
         22    1    3    3    0    0  0.42024189172E+02 -0.18612195971E+02 -0.45281277666E+02  0.64520077661E+02  0.00000000000E+00 0. -1.
         22    1    4    4    0    0 -0.32041654274E+01  0.30202578225E+01 -0.50652915284E+01  0.67116176640E+01  0.00000000000E+00 0.  1.
         22    1    4    4    0    0 -0.38820023744E+02  0.15591938148E+02 -0.21552370044E+02  0.47059615736E+02  0.00000000000E+00 0.  1.
<mgrwt>
<rscale>  0 0.93932831E+02</rscale>
<asrwt>0</asrwt>
<pdfrwt beam="2">  1        3 0.14630019E-01 0.93932831E+02</pdfrwt>
<pdfrwt beam="1">  1       -3 0.35686440E-02 0.93932831E+02</pdfrwt>
<totfact> 0.30763012E+04</totfact>
</mgrwt>
</event>
<event>
 7    1  0.1247599E-009  0.9136556E+02  0.7818608E-02  0.1299578E+00
          3   -1    0    0  501    0  0.00000000000E+00  0.00000000000E+00  0.80475650652E+01  0.80481988344E+01  0.10100000000E+00 0. -1.
         -3   -1    0    0    0  501 -0.00000000000E+00 -0.00000000000E+00 -0.25931186477E+03  0.25931188444E+03  0.10100000000E+00 0.  1.
         23    2    1    2    0    0  0.00000000000E+00  0.00000000000E+00 -0.25126429971E+03  0.26736008328E+03  0.91365561467E+02 0.  0.
    9000005    2    3    3    0    0  0.42878706813E+02 -0.11462628847E+02 -0.14319587588E+03  0.15053217742E+03  0.13597875278E+02 0.  0.
         22    1    3    3    0    0 -0.42878706813E+02  0.11462628847E+02 -0.10806842383E+03  0.11682790585E+03  0.00000000000E+00 0.  1.
         22    1    4    4    0    0  0.18122651908E+02 -0.91829031644E+01 -0.47555680156E+02  0.51713624296E+02  0.00000000000E+00 0. -1.
         22    1    4    4    0    0  0.24756054904E+02 -0.22797256829E+01 -0.95640195726E+02  0.98818553127E+02  0.00000000000E+00 0. -1.
<mgrwt>
<rscale>  0 0.91365561E+02</rscale>
<asrwt>0</asrwt>
<pdfrwt beam="1">  1        3 0.12381374E-02 0.91365561E+02</pdfrwt>
<pdfrwt beam="2">  1       -3 0.39894177E-01 0.91365561E+02</pdfrwt>
<totfact> 0.25205406E+04</totfact>
</mgrwt>
</event>
<event>
 7    1  0.1247599E-009  0.9168066E+02  0.7818608E-02  0.1298832E+00
         -3   -1    0    0    0  501 -0.00000000000E+00  0.00000000000E+00  0.11761550000E+04  0.11761550043E+04  0.10100000000E+00 0.  1.
          3   -1    0    0  501    0  0.00000000000E+00 -0.00000000000E+00 -0.17851828986E+01  0.17880377460E+01  0.10100000000E+00 0. -1.
         23    2    1    2    0    0  0.00000000000E+00  0.00000000000E+00  0.11743698171E+04  0.11779430420E+04  0.91680658112E+02 0.  0.
    9000005    2    3    3    0    0 -0.23581728986E+02  0.16093347500E+02  0.10468906575E+04  0.10473060263E+04  0.74006794908E+01 0.  0.
         22    1    3    3    0    0  0.23581728986E+02 -0.16093347500E+02  0.12747915952E+03  0.13063701577E+03  0.00000000000E+00 0. -1.
         22    1    4    4    0    0 -0.28595295560E+01 -0.48050125392E+00  0.12459584200E+03  0.12462957769E+03  0.00000000000E+00 0.  1.
         22    1    4    4    0    0 -0.20722199430E+02  0.16573848754E+02  0.92229481554E+03  0.92267644859E+03  0.00000000000E+00 0.  1.
<mgrwt>
<rscale>  0 0.91680658E+02</rscale>
<asrwt>0</asrwt>
<pdfrwt beam="2">  1        3 0.27486266E-03 0.91680658E+02</pdfrwt>
<pdfrwt beam="1">  1       -3 0.18094767E+00 0.91680658E+02</pdfrwt>
<totfact> 0.82090438E+03</totfact>
</mgrwt>
</event>
<event>
 7    1  0.1247599E-009  0.9063997E+02  0.7818608E-02  0.1301309E+00
          3   -1    0    0  501    0  0.00000000000E+00  0.00000000000E+00  0.94672654966E+02  0.94672708842E+02  0.10100000000E+00 0.  1.
         -3   -1    0    0    0  501 -0.00000000000E+00 -0.00000000000E+00 -0.21694588687E+02  0.21694823791E+02  0.10100000000E+00 0. -1.
         23    2    1    2    0    0 -0.35527136788E-14  0.00000000000E+00  0.72978066279E+02  0.11636753263E+03  0.90639971828E+02 0.  0.
    9000005    2    3    3    0    0 -0.30725279722E+02 -0.29435346706E+01  0.77877729731E+02  0.85115110130E+02  0.15064327864E+02 0.  0.
         22    1    3    3    0    0  0.30725279722E+02  0.29435346706E+01 -0.48996634515E+01  0.31252422502E+02  0.00000000000E+00 0. -1.
         22    1    4    4    0    0 -0.27233779028E+02  0.16964996593E+01  0.53517082024E+02  0.60071914399E+02  0.00000000000E+00 0. -1.
         22    1    4    4    0    0 -0.34915006934E+01 -0.46400343299E+01  0.24360647707E+02  0.25043195731E+02  0.00000000000E+00 0. -1.
<mgrwt>
<rscale>  0 0.90639972E+02</rscale>
<asrwt>0</asrwt>
<pdfrwt beam="1">  1        3 0.14565046E-01 0.90639972E+02</pdfrwt>
<pdfrwt beam="2">  1       -3 0.33376513E-02 0.90639972E+02</pdfrwt>
<totfact> 0.34037684E+04</totfact>
</mgrwt>
</event>
<event>
 7    1  0.1247599E-009  0.9116718E+02  0.7818608E-02  0.1300050E+00
          3   -1    0    0  501    0  0.00000000000E+00  0.00000000000E+00  0.10406684663E+02  0.10407174769E+02  0.10100000000E+00 0. -1.
         -3   -1    0    0    0  501 -0.00000000000E+00 -0.00000000000E+00 -0.19966104543E+03  0.19966107097E+03  0.10100000000E+00 0.  1.
         23    2    1    2    0    0  0.00000000000E+00  0.00000000000E+00 -0.18925436076E+03  0.21006824574E+03  0.91167180502E+02 0.  0.
    9000005    2    3    3    0    0 -0.30106206387E+02 -0.31332899843E+02 -0.77241602267E+02  0.89922532785E+02  0.15220463402E+02 0.  0.
         22    1    3    3    0    0  0.30106206387E+02  0.31332899843E+02 -0.11201275850E+03  0.12014571296E+03  0.00000000000E+00 0.  1.
         22    1    4    4    0    0 -0.13809347828E+02 -0.16888172518E+02 -0.24183046424E+02  0.32568822404E+02  0.00000000000E+00 0.  1.
         22    1    4    4    0    0 -0.16296858559E+02 -0.14444727325E+02 -0.53058555843E+02  0.57353710381E+02  0.00000000000E+00 0.  1.
<mgrwt>
<rscale>  0 0.91167181E+02</rscale>
<asrwt>0</asrwt>
<pdfrwt beam="1">  1        3 0.16010682E-02 0.91167181E+02</pdfrwt>
<pdfrwt beam="2">  1       -3 0.30717121E-01 0.91167181E+02</pdfrwt>
<totfact> 0.27992464E+04</totfact>
</mgrwt>
</event>
<event>
 7    1  0.1247599E-009  0.9074273E+02  0.7818608E-02  0.1301063E+00
         -3   -1    0    0    0  501 -0.00000000000E+00  0.00000000000E+00  0.70803539410E+01  0.70810742780E+01  0.10100000000E+00 0. -1.
          3   -1    0    0  501    0  0.00000000000E+00 -0.00000000000E+00 -0.29072710248E+03  0.29072712002E+03  0.10100000000E+00 0.  1.
         23    2    1    2    0    0 -0.22204460493E-15  0.00000000000E+00 -0.28364674854E+03  0.29780819430E+03  0.90742727734E+02 0.  0.
    9000005    2    3    3    0    0  0.19212154366E+01 -0.37246838690E+02 -0.22538679905E+03  0.22863276676E+03  0.90947671439E+01 0.  0.
         22    1    3    3    0    0 -0.19212154366E+01  0.37246838690E+02 -0.58259949492E+02  0.69175427545E+02  0.00000000000E+00 0. -1.
         22    1    4    4    0    0 -0.27202046145E+01 -0.10952458500E+02 -0.83047941098E+02  0.83811194843E+02  0.00000000000E+00 0. -1.
         22    1    4    4    0    0  0.46414200511E+01 -0.26294380190E+02 -0.14233885795E+03  0.14482157191E+03  0.00000000000E+00 0. -1.
<mgrwt>
<rscale>  0 0.90742728E+02</rscale>
<asrwt>0</asrwt>
<pdfrwt beam="2">  1        3 0.44727294E-01 0.90742728E+02</pdfrwt>
<pdfrwt beam="1">  1       -3 0.10893422E-02 0.90742728E+02</pdfrwt>
<totfact> 0.24426951E+04</totfact>
</mgrwt>
</event>
<event>
 7    1  0.1247599E-009  0.9035014E+02  0.7818608E-02  0.1302006E+00
         -3   -1    0    0    0  501 -0.00000000000E+00  0.00000000000E+00  0.22558783350E+02  0.22559009447E+02  0.10100000000E+00 0.  1.
          3   -1    0    0  501    0  0.00000000000E+00 -0.00000000000E+00 -0.90464594100E+02  0.90464650481E+02  0.10100000000E+00 0. -1.
         23    2    1    2    0    0  0.00000000000E+00  0.00000000000E+00 -0.67905810749E+02  0.11302365993E+03  0.90350144273E+02 0.  0.
    9000005    2    3    3    0    0 -0.29235377545E+02 -0.23280296037E+01  0.58951334360E+01  0.33608885581E+02  0.15319189592E+02 0.  0.
         22    1    3    3    0    0  0.29235377545E+02  0.23280296037E+01 -0.73800944185E+02  0.79414774348E+02  0.00000000000E+00 0. -1.
         22    1    4    4    0    0 -0.19895026856E+02 -0.18974937549E+01 -0.35727922645E+01  0.20302153105E+02  0.00000000000E+00 0. -1.
         22    1    4    4    0    0 -0.93403506887E+01 -0.43053584877E+00  0.94679257005E+01  0.13306732476E+02  0.00000000000E+00 0. -1.
<mgrwt>
<rscale>  0 0.90350144E+02</rscale>
<asrwt>0</asrwt>
<pdfrwt beam="2">  1        3 0.13917651E-01 0.90350144E+02</pdfrwt>
<pdfrwt beam="1">  1       -3 0.34706038E-02 0.90350144E+02</pdfrwt>
<totfact> 0.34574267E+04</totfact>
</mgrwt>
</event>
<event>
 7    1  0.1247599E-009  0.9465535E+02  0.7818608E-02  0.1291954E+00
          3   -1    0    0  501    0  0.00000000000E+00  0.00000000000E+00  0.73582579814E+02  0.73582649130E+02  0.10100000000E+00 0. -1.
         -3   -1    0    0    0  501 -0.00000000000E+00 -0.00000000000E+00 -0.30440582386E+02  0.30440749941E+02  0.10100000000E+00 0.  1.
         23    2    1    2    0    0  0.00000000000E+00 -0.33306690739E-15  0.43141997428E+02  0.10402339907E+03  0.94655351736E+02 0.  0.
    9000005    2    3    3    0    0  0.46224947948E+02 -0.27625636570E+00  0.18170616981E+02  0.51483966530E+02  0.13550105452E+02 0.  0.
         22    1    3    3    0    0 -0.46224947948E+02  0.27625636570E+00  0.24971380447E+02  0.52539432542E+02  0.00000000000E+00 0.  1.
         22    1    4    4    0    0  0.11675345560E+02 -0.34531826951E+01  0.10203732721E+02  0.15885664169E+02  0.00000000000E+00 0. -1.
         22    1    4    4    0    0  0.34549602388E+02  0.31769263294E+01  0.79668842602E+01  0.35598302360E+02  0.00000000000E+00 0. -1.
<mgrwt>
<rscale>  0 0.94655352E+02</rscale>
<asrwt>0</asrwt>
<pdfrwt beam="1">  1        3 0.11320415E-01 0.94655352E+02</pdfrwt>
<pdfrwt beam="2">  1       -3 0.46831847E-02 0.94655352E+02</pdfrwt>
<totfact> 0.31034299E+04</totfact>
</mgrwt>
</event>
<event>
 7    1  0.1247599E-009  0.9186763E+02  0.7818608E-02  0.1298391E+00
         -3   -1    0    0    0  501 -0.00000000000E+00  0.00000000000E+00  0.55976933062E+01  0.55986044110E+01  0.10100000000E+00 0.  1.
          3   -1    0    0  501    0  0.00000000000E+00 -0.00000000000E+00 -0.37689427853E+03  0.37689429206E+03  0.10100000000E+00 0. -1.
         23    2    1    2    0    0  0.35527136788E-14  0.00000000000E+00 -0.37129658522E+03  0.38249289647E+03  0.91867631155E+02 0.  0.
    9000005    2    3    3    0    0  0.17378028137E+02  0.15679237244E+01 -0.36232017871E+03  0.36287071207E+03  0.97358888792E+01 0.  0.
         22    1    3    3    0    0 -0.17378028137E+02 -0.15679237244E+01 -0.89764065108E+01  0.19622184399E+02  0.00000000000E+00 0.  1.
         22    1    4    4    0    0  0.52507907871E+01  0.45892888634E+01 -0.17147144808E+03  0.17161319845E+03  0.00000000000E+00 0. -1.
         22    1    4    4    0    0  0.12127237350E+02 -0.30213651390E+01 -0.19084873063E+03  0.19125751362E+03  0.00000000000E+00 0. -1.
<mgrwt>
<rscale>  0 0.91867631E+02</rscale>
<asrwt>0</asrwt>
<pdfrwt beam="2">  1        3 0.57983786E-01 0.91867631E+02</pdfrwt>
<pdfrwt beam="1">  1       -3 0.86125501E-03 0.91867631E+02</pdfrwt>
<totfact> 0.20730539E+04</totfact>
</mgrwt>
</event>
<event>
 7    1  0.1247599E-009  0.9145426E+02  0.7818608E-02  0.1299368E+00
          3   -1    0    0  501    0  0.00000000000E+00  0.00000000000E+00  0.14581680686E+02  0.14582030470E+02  0.10100000000E+00 0. -1.
         -3   -1    0    0    0  501 -0.00000000000E+00 -0.00000000000E+00 -0.14339499227E+03  0.14339502784E+03  0.10100000000E+00 0.  1.
         23    2    1    2    0    0  0.00000000000E+00  0.00000000000E+00 -0.12881331159E+03  0.15797705831E+03  0.91454260212E+02 0.  0.
    9000005    2    3    3    0    0  0.12372736721E+02  0.12025200070E+02 -0.13750417646E+03  0.13865812504E+03  0.45811619886E+01 0.  0.
         22    1    3    3    0    0 -0.12372736721E+02 -0.12025200070E+02  0.86908648699E+01  0.19318933275E+02  0.00000000000E+00 0. -1.
         22    1    4    4    0    0  0.47553298711E+01  0.78073771572E+01 -0.71648630912E+02  0.72229458061E+02  0.00000000000E+00 0.  1.
         22    1    4    4    0    0  0.76174068499E+01  0.42178229128E+01 -0.65855545545E+02  0.66428666976E+02  0.00000000000E+00 0.  1.
<mgrwt>
<rscale>  0 0.91454260E+02</rscale>
<asrwt>0</asrwt>
<pdfrwt beam="1">  1        3 0.22433652E-02 0.91454260E+02</pdfrwt>
<pdfrwt beam="2">  1       -3 0.22060797E-01 0.91454260E+02</pdfrwt>
<totfact> 0.30573979E+04</totfact>
</mgrwt>
</event>
<event>
 7    1  0.1247599E-009  0.9158668E+02  0.7818608E-02  0.1299054E+00
          3   -1    0    0  501    0  0.00000000000E+00  0.00000000000E+00  0.40503113665E+01  0.40515704567E+01  0.10100000000E+00 0. -1.
         -3   -1    0    0    0  501 -0.00000000000E+00 -0.00000000000E+00 -0.51766366097E+03  0.51766367082E+03  0.10100000000E+00 0.  1.
         23    2    1    2    0    0  0.00000000000E+00  0.35527136788E-14 -0.51361334960E+03  0.52171524128E+03  0.91586680759E+02 0.  0.
    9000005    2    3    3    0    0 -0.19208446463E+02 -0.21530118506E+02 -0.45868349654E+03  0.45966849136E+03  0.84889062669E+01 0.  0.
         22    1    3    3    0    0  0.19208446463E+02  0.21530118506E+02 -0.54929853061E+02  0.62046749920E+02  0.00000000000E+00 0. -1.
         22    1    4    4    0    0  0.17038602031E+00 -0.27029960756E+01 -0.66682462260E+02  0.66737440708E+02  0.00000000000E+00 0. -1.
         22    1    4    4    0    0 -0.19378832483E+02 -0.18827122430E+02 -0.39200103428E+03  0.39293105065E+03  0.00000000000E+00 0. -1.
<mgrwt>
<rscale>  0 0.91586681E+02</rscale>
<asrwt>0</asrwt>
<pdfrwt beam="1">  1        3 0.62322285E-03 0.91586681E+02</pdfrwt>
<pdfrwt beam="2">  1       -3 0.79640608E-01 0.91586681E+02</pdfrwt>
<totfact> 0.17169492E+04</totfact>
</mgrwt>
</event>
<event>
 7    1  0.1247599E-009  0.8781770E+02  0.7818608E-02  0.1308224E+00
         -3   -1    0    0    0  501 -0.00000000000E+00  0.00000000000E+00  0.10048242360E+03  0.10048247436E+03  0.10100000000E+00 0.  1.
          3   -1    0    0  501    0  0.00000000000E+00 -0.00000000000E+00 -0.19187120313E+02  0.19187386140E+02  0.10100000000E+00 0. -1.
         23    2    1    2    0    0 -0.35527136788E-14  0.00000000000E+00  0.81295303287E+02  0.11966986050E+03  0.87817704227E+02 0.  0.
    9000005    2    3    3    0    0 -0.19703163690E+02  0.11885310470E+02  0.90848332131E+02  0.94755293989E+02  0.13988245910E+02 0.  0.
         22    1    3    3    0    0  0.19703163690E+02 -0.11885310470E+02 -0.95530288437E+01  0.24914566511E+02  0.00000000000E+00 0. -1.
         22    1    4    4    0    0 -0.86368750029E+01  0.72153362145E+01  0.20473604014E+02  0.23362901100E+02  0.00000000000E+00 0. -1.
         22    1    4    4    0    0 -0.11066288687E+02  0.46699742557E+01  0.70374728117E+02  0.71392392889E+02  0.00000000000E+00 0. -1.
<mgrwt>
<rscale>  0 0.87817704E+02</rscale>
<asrwt>0</asrwt>
<pdfrwt beam="2">  1        3 0.29518890E-02 0.87817704E+02</pdfrwt>
<pdfrwt beam="1">  1       -3 0.15458859E-01 0.87817704E+02</pdfrwt>
<totfact> 0.36827852E+04</totfact>
</mgrwt>
</event>
<event>
 7    1  0.1247599E-009  0.9455647E+02  0.7818608E-02  0.1292178E+00
          3   -1    0    0  501    0  0.00000000000E+00  0.00000000000E+00  0.22921701109E+02  0.22921923627E+02  0.10100000000E+00 0. -1.
         -3   -1    0    0    0  501 -0.00000000000E+00 -0.00000000000E+00 -0.97515221439E+02  0.97515273743E+02  0.10100000000E+00 0.  1.
         23    2    1    2    0    0  0.00000000000E+00  0.00000000000E+00 -0.74593520329E+02  0.12043719737E+03  0.94556465856E+02 0.  0.
    9000005    2    3    3    0    0  0.62466277960E+00  0.28645130693E+02  0.84997470329E+01  0.32542801662E+02  0.12878451940E+02 0.  0.
         22    1    3    3    0    0 -0.62466277960E+00 -0.28645130693E+02 -0.83093267362E+02  0.87894395708E+02  0.00000000000E+00 0.  1.
         22    1    4    4    0    0 -0.30358147171E+00  0.12226988487E+02  0.10313469363E+02  0.15998720558E+02  0.00000000000E+00 0.  1.
         22    1    4    4    0    0  0.92824425131E+00  0.16418142206E+02 -0.18137223306E+01  0.16544081104E+02  0.00000000000E+00 0.  1.
<mgrwt>
<rscale>  0 0.94556466E+02</rscale>
<asrwt>0</asrwt>
<pdfrwt beam="1">  1        3 0.35264367E-02 0.94556466E+02</pdfrwt>
<pdfrwt beam="2">  1       -3 0.15002363E-01 0.94556466E+02</pdfrwt>
<totfact> 0.30080954E+04</totfact>
</mgrwt>
</event>
<event>
 7    1  0.1247599E-009  0.9084588E+02  0.7818608E-02  0.1300816E+00
         -3   -1    0    0    0  501 -0.00000000000E+00  0.00000000000E+00  0.69546470261E+02  0.69546543601E+02  0.10100000000E+00 0.  1.
          3   -1    0    0  501    0  0.00000000000E+00 -0.00000000000E+00 -0.29666945540E+02  0.29667117465E+02  0.10100000000E+00 0. -1.
         23    2    1    2    0    0  0.88817841970E-15 -0.71054273576E-14  0.39879524721E+02  0.99213661066E+02  0.90845880755E+02 0.  0.
    9000005    2    3    3    0    0  0.60817752416E+01 -0.44016582185E+02  0.10018384403E+02  0.45677363114E+02  0.34067547098E+01 0.  0.
         22    1    3    3    0    0 -0.60817752416E+01  0.44016582185E+02  0.29861140318E+02  0.53536297952E+02  0.00000000000E+00 0.  1.
         22    1    4    4    0    0  0.48253427314E+01 -0.40822456433E+02  0.96592440267E+01  0.42226269986E+02  0.00000000000E+00 0. -1.
         22    1    4    4    0    0  0.12564325102E+01 -0.31941257515E+01  0.35914037615E+00  0.34510931281E+01  0.00000000000E+00 0. -1.
<mgrwt>
<rscale>  0 0.90845881E+02</rscale>
<asrwt>0</asrwt>
<pdfrwt beam="2">  1        3 0.45641643E-02 0.90845881E+02</pdfrwt>
<pdfrwt beam="1">  1       -3 0.10699476E-01 0.90845881E+02</pdfrwt>
<totfact> 0.35076072E+04</totfact>
</mgrwt>
</event>
<event>
 7    1  0.1247599E-009  0.1007342E+03  0.7818608E-02  0.1278760E+00
          3   -1    0    0  501    0  0.00000000000E+00  0.00000000000E+00  0.29807084620E+02  0.29807255736E+02  0.10100000000E+00 0. -1.
         -3   -1    0    0    0  501 -0.00000000000E+00 -0.00000000000E+00 -0.85108313447E+02  0.85108373376E+02  0.10100000000E+00 0.  1.
         23    2    1    2    0    0  0.00000000000E+00  0.17763568394E-14 -0.55301228827E+02  0.11491562911E+03  0.10073418439E+03 0.  0.
    9000005    2    3    3    0    0  0.16572726347E+02 -0.96812645466E+01 -0.80089044583E+02  0.83565701652E+02  0.14162954797E+02 0.  0.
         22    1    3    3    0    0 -0.16572726347E+02  0.96812645466E+01  0.24787815756E+02  0.31349927460E+02  0.00000000000E+00 0. -1.
         22    1    4    4    0    0  0.10923881878E+02  0.11747899609E+01 -0.28484927365E+02  0.30530352336E+02  0.00000000000E+00 0.  1.
         22    1    4    4    0    0  0.56488444696E+01 -0.10856054507E+02 -0.51604117218E+02  0.53035349317E+02  0.00000000000E+00 0.  1.
<mgrwt>
<rscale>  0 0.10073418E+03</rscale>
<asrwt>0</asrwt>
<pdfrwt beam="1">  1        3 0.45857231E-02 0.10073418E+03</pdfrwt>
<pdfrwt beam="2">  1       -3 0.13093604E-01 0.10073418E+03</pdfrwt>
<totfact> 0.25578322E+04</totfact>
</mgrwt>
</event>
<event>
 7    1  0.1247599E-009  0.9200672E+02  0.7818608E-02  0.1298064E+00
         -3   -1    0    0    0  501 -0.00000000000E+00  0.00000000000E+00  0.37811150083E+02  0.37811284977E+02  0.10100000000E+00 0.  1.
          3   -1    0    0  501    0  0.00000000000E+00 -0.00000000000E+00 -0.55970225178E+02  0.55970316306E+02  0.10100000000E+00 0. -1.
         23    2    1    2    0    0 -0.71054273576E-14  0.00000000000E+00 -0.18159075094E+02  0.93781601283E+02  0.92006721119E+02 0.  0.
    9000005    2    3    3    0    0 -0.35751864979E+02 -0.27540812996E+02 -0.47204188559E+01  0.46693495445E+02  0.11013988047E+02 0.  0.
         22    1    3    3    0    0  0.35751864979E+02  0.27540812996E+02 -0.13438656238E+02  0.47088105839E+02  0.00000000000E+00 0.  1.
         22    1    4    4    0    0 -0.35706131291E+02 -0.24872738889E+02 -0.56217221088E+01  0.43876926865E+02  0.00000000000E+00 0. -1.
         22    1    4    4    0    0 -0.45733687725E-01 -0.26680741074E+01  0.90130325289E+00  0.28165685801E+01  0.00000000000E+00 0. -1.
<mgrwt>
<rscale>  0 0.92006721E+02</rscale>
<asrwt>0</asrwt>
<pdfrwt beam="2">  1        3 0.86108213E-02 0.92006721E+02</pdfrwt>
<pdfrwt beam="1">  1       -3 0.58171174E-02 0.92006721E+02</pdfrwt>
<totfact> 0.34281062E+04</totfact>
</mgrwt>
</event>
<event>
 7    1  0.1247599E-009  0.9401709E+02  0.7818608E-02  0.1293405E+00
         -3   -1    0    0    0  501 -0.00000000000E+00  0.00000000000E+00  0.76126947989E+01  0.76133647687E+01  0.10100000000E+00 0.  1.
          3   -1    0    0  501    0  0.00000000000E+00 -0.00000000000E+00 -0.29026528337E+03  0.29026530094E+03  0.10100000000E+00 0. -1.
         23    2    1    2    0    0 -0.35527136788E-14  0.00000000000E+00 -0.28265258857E+03  0.29787866571E+03  0.94017092380E+02 0.  0.
    9000005    2    3    3    0    0  0.23991277696E+02  0.32954595924E+02 -0.67236954411E+02  0.78640251561E+02  0.13763463020E+01 0.  0.
         22    1    3    3    0    0 -0.23991277696E+02 -0.32954595924E+02 -0.21541563416E+03  0.21923841415E+03  0.00000000000E+00 0. -1.
         22    1    4    4    0    0  0.16905587330E+01  0.24059162029E+01 -0.55633285817E+01  0.62926184147E+01  0.00000000000E+00 0. -1.
         22    1    4    4    0    0  0.22300718963E+02  0.30548679721E+02 -0.61673625829E+02  0.72347633146E+02  0.00000000000E+00 0. -1.
<mgrwt>
<rscale>  0 0.94017092E+02</rscale>
<asrwt>0</asrwt>
<pdfrwt beam="2">  1        3 0.44656242E-01 0.94017092E+02</pdfrwt>
<pdfrwt beam="1">  1       -3 0.11712369E-02 0.94017092E+02</pdfrwt>
<totfact> 0.22202040E+04</totfact>
</mgrwt>
</event>
<event>
 7    1  0.1247599E-009  0.9001578E+02  0.7818608E-02  0.1302813E+00
         -3   -1    0    0    0  501 -0.00000000000E+00  0.00000000000E+00  0.33335002747E+03  0.33335004277E+03  0.10100000000E+00 0.  1.
          3   -1    0    0  501    0  0.00000000000E+00 -0.00000000000E+00 -0.60763909481E+01  0.60772302865E+01  0.10100000000E+00 0. -1.
         23    2    1    2    0    0  0.00000000000E+00  0.00000000000E+00  0.32727363652E+03  0.33942727306E+03  0.90015779354E+02 0.  0.
    9000005    2    3    3    0    0 -0.40793968848E+01  0.32106109112E+02  0.28146764008E+03  0.28334132980E+03  0.32913580575E+01 0.  0.
         22    1    3    3    0    0  0.40793968848E+01 -0.32106109112E+02  0.45805996439E+02  0.56085943257E+02  0.00000000000E+00 0. -1.
         22    1    4    4    0    0  0.27100673674E+00  0.17006595636E+01  0.20548508220E+02  0.20620545038E+02  0.00000000000E+00 0.  1.
         22    1    4    4    0    0 -0.43504036215E+01  0.30405449548E+02  0.26091913186E+03  0.26272078476E+03  0.00000000000E+00 0.  1.
<mgrwt>
<rscale>  0 0.90015779E+02</rscale>
<asrwt>0</asrwt>
<pdfrwt beam="2">  1        3 0.93489511E-03 0.90015779E+02</pdfrwt>
<pdfrwt beam="1">  1       -3 0.51284686E-01 0.90015779E+02</pdfrwt>
<totfact> 0.23358620E+04</totfact>
</mgrwt>
</event>
<event>
 7    1  0.1247599E-009  0.9040394E+02  0.7818608E-02  0.1301876E+00
          3   -1    0    0  501    0  0.00000000000E+00  0.00000000000E+00  0.41113933346E+01  0.41126337245E+01  0.10100000000E+00 0. -1.
         -3   -1    0    0    0  501 -0.00000000000E+00 -0.00000000000E+00 -0.49688864427E+03  0.49688865454E+03  0.10100000000E+00 0.  1.
         23    2    1    2    0    0  0.55511151231E-15  0.00000000000E+00 -0.49277725094E+03  0.50100128826E+03  0.90403936851E+02 0.  0.
    9000005    2    3    3    0    0 -0.42288620142E+00  0.40148530061E+02 -0.35187041860E+03  0.35448569627E+03  0.15337342394E+02 0.  0.
         22    1    3    3    0    0  0.42288620142E+00 -0.40148530061E+02 -0.14090683233E+03  0.14651559199E+03  0.00000000000E+00 0. -1.
         22    1    4    4    0    0  0.64903693965E+01  0.28922260189E+02 -0.25693882272E+03  0.25864295979E+03  0.00000000000E+00 0. -1.
         22    1    4    4    0    0 -0.69132555980E+01  0.11226269872E+02 -0.94931595884E+02  0.95842736476E+02  0.00000000000E+00 0. -1.
<mgrwt>
<rscale>  0 0.90403937E+02</rscale>
<asrwt>0</asrwt>
<pdfrwt beam="1">  1        3 0.63261865E-03 0.90403937E+02</pdfrwt>
<pdfrwt beam="2">  1       -3 0.76444456E-01 0.90403937E+02</pdfrwt>
<totfact> 0.18276844E+04</totfact>
</mgrwt>
</event>
<event>
 7    1  0.1247599E-009  0.9387554E+02  0.7818608E-02  0.1293729E+00
          3   -1    0    0  501    0  0.00000000000E+00  0.00000000000E+00  0.88000265436E+02  0.88000323396E+02  0.10100000000E+00 0. -1.
         -3   -1    0    0    0  501 -0.00000000000E+00 -0.00000000000E+00 -0.25035602393E+02  0.25035806122E+02  0.10100000000E+00 0.  1.
         23    2    1    2    0    0  0.00000000000E+00  0.88817841970E-15  0.62964663043E+02  0.11303612952E+03  0.93875544123E+02 0.  0.
    9000005    2    3    3    0    0 -0.25967084856E+02 -0.76653914765E+01 -0.14451383202E+02  0.31022155474E+02  0.45259177357E+01 0.  0.
         22    1    3    3    0    0  0.25967084856E+02  0.76653914765E+01  0.77416046245E+02  0.82013974045E+02  0.00000000000E+00 0. -1.
         22    1    4    4    0    0 -0.89379047757E+01 -0.45885098346E+00 -0.50992236361E+01  0.10300425607E+02  0.00000000000E+00 0.  1.
         22    1    4    4    0    0 -0.17029180081E+02 -0.72065404930E+01 -0.93521595659E+01  0.20721729866E+02  0.00000000000E+00 0.  1.
<mgrwt>
<rscale>  0 0.93875544E+02</rscale>
<asrwt>0</asrwt>
<pdfrwt beam="1">  1        3 0.13538523E-01 0.93875544E+02</pdfrwt>
<pdfrwt beam="2">  1       -3 0.38516513E-02 0.93875544E+02</pdfrwt>
<totfact> 0.31151166E+04</totfact>
</mgrwt>
</event>
<event>
 7    1  0.1247599E-009  0.8944359E+02  0.7818608E-02  0.1304205E+00
         -3   -1    0    0    0  501 -0.00000000000E+00  0.00000000000E+00  0.12997156823E+03  0.12997160747E+03  0.10100000000E+00 0.  1.
          3   -1    0    0  501    0  0.00000000000E+00 -0.00000000000E+00 -0.15388073836E+02  0.15388405290E+02  0.10100000000E+00 0. -1.
         23    2    1    2    0    0  0.00000000000E+00  0.00000000000E+00  0.11458349440E+03  0.14536001276E+03  0.89443591850E+02 0.  0.
    9000005    2    3    3    0    0  0.37127589224E+02  0.20012781435E+02  0.33271169045E+02  0.53759447502E+02  0.20342575494E+01 0.  0.
         22    1    3    3    0    0 -0.37127589224E+02 -0.20012781435E+02  0.81312325350E+02  0.91600565262E+02  0.00000000000E+00 0.  1.
         22    1    4    4    0    0  0.95802364922E+01  0.44497087091E+01  0.91230867534E+01  0.13957490847E+02  0.00000000000E+00 0. -1.
         22    1    4    4    0    0  0.27547352732E+02  0.15563072726E+02  0.24148082291E+02  0.39801956655E+02  0.00000000000E+00 0. -1.
<mgrwt>
<rscale>  0 0.89443592E+02</rscale>
<asrwt>0</asrwt>
<pdfrwt beam="2">  1        3 0.23674245E-02 0.89443592E+02</pdfrwt>
<pdfrwt beam="1">  1       -3 0.19995654E-01 0.89443592E+02</pdfrwt>
<totfact> 0.33276414E+04</totfact>
</mgrwt>
</event>
<event>
 7    1  0.1247599E-009  0.9229733E+02  0.7818608E-02  0.1297382E+00
         -3   -1    0    0    0  501 -0.00000000000E+00  0.00000000000E+00  0.48412554883E+03  0.48412555937E+03  0.10100000000E+00 0.  1.
          3   -1    0    0  501    0  0.00000000000E+00 -0.00000000000E+00 -0.43984736919E+01  0.43996331459E+01  0.10100000000E+00 0. -1.
         23    2    1    2    0    0  0.00000000000E+00  0.00000000000E+00  0.47972707514E+03  0.48852519251E+03  0.92297329852E+02 0.  0.
    9000005    2    3    3    0    0 -0.10704074656E+02  0.11510931712E+02  0.46939660598E+03  0.46971569076E+03  0.72510465729E+01 0.  0.
         22    1    3    3    0    0  0.10704074656E+02 -0.11510931712E+02  0.10330469157E+02  0.18809501751E+02  0.00000000000E+00 0. -1.
         22    1    4    4    0    0 -0.90623294196E+01  0.61747849903E+01  0.36995041629E+03  0.37011290750E+03  0.00000000000E+00 0.  1.
         22    1    4    4    0    0 -0.16417452365E+01  0.53361467222E+01  0.99446189696E+02  0.99602783266E+02  0.00000000000E+00 0.  1.
<mgrwt>
<rscale>  0 0.92297330E+02</rscale>
<asrwt>0</asrwt>
<pdfrwt beam="2">  1        3 0.67677825E-03 0.92297330E+02</pdfrwt>
<pdfrwt beam="1">  1       -3 0.74480945E-01 0.92297330E+02</pdfrwt>
<totfact> 0.17588983E+04</totfact>
</mgrwt>
</event>
<event>
 7    1  0.1247599E-009  0.9176007E+02  0.7818608E-02  0.1298645E+00
         -3   -1    0    0    0  501 -0.00000000000E+00  0.00000000000E+00  0.49686754006E+02  0.49686856659E+02  0.10100000000E+00 0.  1.
          3   -1    0    0  501    0  0.00000000000E+00 -0.00000000000E+00 -0.42364760207E+02  0.42364880602E+02  0.10100000000E+00 0. -1.
         23    2    1    2    0    0  0.00000000000E+00  0.00000000000E+00  0.73219937986E+01  0.92051737260E+02  0.91760071597E+02 0.  0.
    9000005    2    3    3    0    0 -0.32846260784E+02 -0.68208523238E+01 -0.27578973635E+02  0.43642250568E+02  0.43180289428E+01 0.  0.
         22    1    3    3    0    0  0.32846260784E+02  0.68208523238E+01  0.34900967434E+02  0.48409486692E+02  0.00000000000E+00 0.  1.
         22    1    4    4    0    0 -0.42113677945E+01 -0.12501723891E+00 -0.19863952144E+01  0.46580053626E+01  0.00000000000E+00 0.  1.
         22    1    4    4    0    0 -0.28634892990E+02 -0.66958350849E+01 -0.25592578421E+02  0.38984245206E+02  0.00000000000E+00 0.  1.
<mgrwt>
<rscale>  0 0.91760072E+02</rscale>
<asrwt>0</asrwt>
<pdfrwt beam="2">  1        3 0.65176726E-02 0.91760072E+02</pdfrwt>
<pdfrwt beam="1">  1       -3 0.76441332E-02 0.91760072E+02</pdfrwt>
<totfact> 0.34663011E+04</totfact>
</mgrwt>
</event>
<event>
 7    1  0.1511121E-009  0.8604491E+02  0.7818608E-02  0.1312722E+00
          3   -1    0    0  501    0  0.00000000000E+00  0.00000000000E+00  0.18850061869E+03  0.18850064575E+03  0.10100000000E+00 0. -1.
         -3   -1    0    0    0  501 -0.00000000000E+00 -0.00000000000E+00 -0.98189472783E+01  0.98194667194E+01  0.10100000000E+00 0.  1.
         23    2    1    2    0    0  0.35527136788E-14 -0.17763568394E-14  0.17868167142E+03  0.19832011247E+03  0.86044914498E+02 0.  0.
    9000005    2    3    3    0    0 -0.19983265793E+02  0.14976267394E+02  0.16899684712E+03  0.17153550274E+03  0.15520143916E+02 0.  0.
         22    1    3    3    0    0  0.19983265793E+02 -0.14976267394E+02  0.96848242951E+01  0.26784609731E+02  0.00000000000E+00 0.  1.
         22    1    4    4    0    0 -0.13455878254E+02  0.97762157293E+01  0.61317127143E+02  0.63532866570E+02  0.00000000000E+00 0. -1.
         22    1    4    4    0    0 -0.65273875384E+01  0.52000516644E+01  0.10767971998E+03  0.10800263617E+03  0.00000000000E+00 0. -1.
<mgrwt>
<rscale>  0 0.86044914E+02</rscale>
<asrwt>0</asrwt>
<pdfrwt beam="1">  1        3 0.29000134E-01 0.86044914E+02</pdfrwt>
<pdfrwt beam="2">  1       -3 0.15106495E-02 0.86044914E+02</pdfrwt>
<totfact> 0.33397529E+04</totfact>
</mgrwt>
</event>
<event>
 7    1  0.1247599E-009  0.9080988E+02  0.7818608E-02  0.1300902E+00
         -3   -1    0    0    0  501 -0.00000000000E+00  0.00000000000E+00  0.10927018217E+02  0.10927484986E+02  0.10100000000E+00 0.  1.
          3   -1    0    0  501    0  0.00000000000E+00 -0.00000000000E+00 -0.18866622474E+03  0.18866625177E+03  0.10100000000E+00 0. -1.
         23    2    1    2    0    0  0.00000000000E+00 -0.71054273576E-14 -0.17773920652E+03  0.19959373676E+03  0.90809879519E+02 0.  0.
    9000005    2    3    3    0    0 -0.12238852586E+02  0.35977898916E+02 -0.14170277118E+03  0.14722176529E+03  0.12262711479E+02 0.  0.
         22    1    3    3    0    0  0.12238852586E+02 -0.35977898916E+02 -0.36036435342E+02  0.52371971466E+02  0.00000000000E+00 0. -1.
         22    1    4    4    0    0  0.16761861225E+01  0.12547133006E+01 -0.38363936758E+01  0.43705631009E+01  0.00000000000E+00 0.  1.
         22    1    4    4    0    0 -0.13915038709E+02  0.34723185616E+02 -0.13786637750E+03  0.14285120219E+03  0.00000000000E+00 0.  1.
<mgrwt>
<rscale>  0 0.90809880E+02</rscale>
<asrwt>0</asrwt>
<pdfrwt beam="2">  1        3 0.29025609E-01 0.90809880E+02</pdfrwt>
<pdfrwt beam="1">  1       -3 0.16811179E-02 0.90809880E+02</pdfrwt>
<totfact> 0.28831362E+04</totfact>
</mgrwt>
</event>
<event>
 7    1  0.1247599E-009  0.9066660E+02  0.7818608E-02  0.1301245E+00
          3   -1    0    0  501    0  0.00000000000E+00  0.00000000000E+00  0.16993578878E+02  0.16993879018E+02  0.10100000000E+00 0. -1.
         -3   -1    0    0    0  501 -0.00000000000E+00 -0.00000000000E+00 -0.12093299020E+03  0.12093303238E+03  0.10100000000E+00 0.  1.
         23    2    1    2    0    0  0.00000000000E+00  0.00000000000E+00 -0.10393941133E+03  0.13792691140E+03  0.90666596170E+02 0.  0.
    9000005    2    3    3    0    0  0.20566241514E+02  0.34806381538E+02 -0.80796405313E+02  0.91343081445E+02  0.13455293777E+02 0.  0.
         22    1    3    3    0    0 -0.20566241514E+02 -0.34806381538E+02 -0.23143006014E+02  0.46583829954E+02  0.00000000000E+00 0. -1.
         22    1    4    4    0    0  0.91105915748E+01  0.26396190986E+02 -0.59681121549E+02  0.65890803962E+02  0.00000000000E+00 0. -1.
         22    1    4    4    0    0  0.11455649939E+02  0.84101905524E+01 -0.21115283764E+02  0.25452277484E+02  0.00000000000E+00 0. -1.
<mgrwt>
<rscale>  0 0.90666596E+02</rscale>
<asrwt>0</asrwt>
<pdfrwt beam="1">  1        3 0.26144232E-02 0.90666596E+02</pdfrwt>
<pdfrwt beam="2">  1       -3 0.18605101E-01 0.90666596E+02</pdfrwt>
<totfact> 0.32554615E+04</totfact>
</mgrwt>
</event>
<event>
 7    1  0.1247599E-009  0.9146246E+02  0.7818608E-02  0.1299348E+00
         -3   -1    0    0    0  501 -0.00000000000E+00  0.00000000000E+00  0.16503200510E+02  0.16503509568E+02  0.10100000000E+00 0.  1.
          3   -1    0    0  501    0  0.00000000000E+00 -0.00000000000E+00 -0.12672209913E+03  0.12672213938E+03  0.10100000000E+00 0. -1.
         23    2    1    2    0    0  0.00000000000E+00  0.00000000000E+00 -0.11021889862E+03  0.14322564895E+03  0.91462456250E+02 0.  0.
    9000005    2    3    3    0    0 -0.39192776807E+02  0.88924853502E+01 -0.23556534813E+02  0.47698085646E+02  0.10249243505E+02 0.  0.
         22    1    3    3    0    0  0.39192776807E+02 -0.88924853502E+01 -0.86662363806E+02  0.95527563300E+02  0.00000000000E+00 0. -1.
         22    1    4    4    0    0 -0.16418428055E+02  0.89512964931E+01 -0.10770508226E+02  0.21579952181E+02  0.00000000000E+00 0. -1.
         22    1    4    4    0    0 -0.22774348752E+02 -0.58811142956E-01 -0.12786026587E+02  0.26118133465E+02  0.00000000000E+00 0. -1.
<mgrwt>
<rscale>  0 0.91462456E+02</rscale>
<asrwt>0</asrwt>
<pdfrwt beam="2">  1        3 0.19495734E-01 0.91462456E+02</pdfrwt>
<pdfrwt beam="1">  1       -3 0.25389809E-02 0.91462456E+02</pdfrwt>
<totfact> 0.31458420E+04</totfact>
</mgrwt>
</event>
<event>
 7    1  0.1247599E-009  0.9128664E+02  0.7818608E-02  0.1299765E+00
         -3   -1    0    0    0  501 -0.00000000000E+00  0.00000000000E+00  0.12431571168E+02  0.12431981447E+02  0.10100000000E+00 0.  1.
          3   -1    0    0  501    0  0.00000000000E+00 -0.00000000000E+00 -0.16757922266E+03  0.16757925310E+03  0.10100000000E+00 0. -1.
         23    2    1    2    0    0  0.00000000000E+00  0.00000000000E+00 -0.15514765149E+03  0.18001123454E+03  0.91286640853E+02 0.  0.
    9000005    2    3    3    0    0  0.11774099710E+02 -0.36520410526E+02 -0.12473910210E+03  0.13105156047E+03  0.11928876766E+02 0.  0.
         22    1    3    3    0    0 -0.11774099710E+02  0.36520410526E+02 -0.30408549395E+02  0.48959674072E+02  0.00000000000E+00 0.  1.
         22    1    4    4    0    0 -0.19067089357E+01 -0.40542493351E+01 -0.21645261431E+02  0.22104067930E+02  0.00000000000E+00 0. -1.
         22    1    4    4    0    0  0.13680808645E+02 -0.32466161191E+02 -0.10309384067E+03  0.10894749254E+03  0.00000000000E+00 0. -1.
<mgrwt>
<rscale>  0 0.91286641E+02</rscale>
<asrwt>0</asrwt>
<pdfrwt beam="2">  1        3 0.25781451E-01 0.91286641E+02</pdfrwt>
<pdfrwt beam="1">  1       -3 0.19125834E-02 0.91286641E+02</pdfrwt>
<totfact> 0.29469357E+04</totfact>
</mgrwt>
</event>
<event>
 7    1  0.1247599E-009  0.9334479E+02  0.7818608E-02  0.1294948E+00
          3   -1    0    0  501    0  0.00000000000E+00  0.00000000000E+00  0.89105687990E+02  0.89105745231E+02  0.10100000000E+00 0. -1.
         -3   -1    0    0    0  501 -0.00000000000E+00 -0.00000000000E+00 -0.24446221082E+02  0.24446429723E+02  0.10100000000E+00 0.  1.
         23    2    1    2    0    0  0.00000000000E+00  0.00000000000E+00  0.64659466908E+02  0.11355217495E+03  0.93344789763E+02 0.  0.
    9000005    2    3    3    0    0 -0.13440060757E+02 -0.36561597104E+02  0.62935218141E+02  0.74560398259E+02  0.90014271204E+01 0.  0.
         22    1    3    3    0    0  0.13440060757E+02  0.36561597104E+02  0.17242487678E+01  0.38991776694E+02  0.00000000000E+00 0. -1.
         22    1    4    4    0    0 -0.78844046951E+01 -0.11669991745E+02  0.27559755741E+02  0.30949841376E+02  0.00000000000E+00 0.  1.
         22    1    4    4    0    0 -0.55556560618E+01 -0.24891605359E+02  0.35375462400E+02  0.43610556883E+02  0.00000000000E+00 0.  1.
<mgrwt>
<rscale>  0 0.93344790E+02</rscale>
<asrwt>0</asrwt>
<pdfrwt beam="1">  1        3 0.13708588E-01 0.93344790E+02</pdfrwt>
<pdfrwt beam="2">  1       -3 0.37609774E-02 0.93344790E+02</pdfrwt>
<totfact> 0.31603066E+04</totfact>
</mgrwt>
</event>
<event>
 7    1  0.1247599E-009  0.9300753E+02  0.7818608E-02  0.1295728E+00
         -3   -1    0    0    0  501 -0.00000000000E+00  0.00000000000E+00  0.44878750521E+02  0.44878864172E+02  0.10100000000E+00 0.  1.
          3   -1    0    0  501    0  0.00000000000E+00 -0.00000000000E+00 -0.48187393951E+02  0.48187499798E+02  0.10100000000E+00 0. -1.
         23    2    1    2    0    0 -0.71054273576E-14  0.00000000000E+00 -0.33086434302E+01  0.93066363970E+02  0.93007531852E+02 0.  0.
    9000005    2    3    3    0    0 -0.42534858245E+02 -0.15617950371E+02 -0.95811874183E+01  0.47322737663E+02  0.97215126320E+01 0.  0.
         22    1    3    3    0    0  0.42534858245E+02  0.15617950371E+02  0.62725439882E+01  0.45743626308E+02  0.00000000000E+00 0. -1.
         22    1    4    4    0    0 -0.31143123899E+02 -0.12446633873E+02 -0.11262763889E+02  0.35378845535E+02  0.00000000000E+00 0.  1.
         22    1    4    4    0    0 -0.11391734346E+02 -0.31713164974E+01  0.16815764707E+01  0.11943892127E+02  0.00000000000E+00 0.  1.
<mgrwt>
<rscale>  0 0.93007532E+02</rscale>
<asrwt>0</asrwt>
<pdfrwt beam="2">  1        3 0.74134622E-02 0.93007532E+02</pdfrwt>
<pdfrwt beam="1">  1       -3 0.69044400E-02 0.93007532E+02</pdfrwt>
<totfact> 0.33333367E+04</totfact>
</mgrwt>
</event>
<event>
 7    1  0.1247599E-009  0.9255034E+02  0.7818608E-02  0.1296791E+00
          3   -1    0    0  501    0  0.00000000000E+00  0.00000000000E+00  0.76301594818E+02  0.76301661665E+02  0.10100000000E+00 0. -1.
         -3   -1    0    0    0  501 -0.00000000000E+00 -0.00000000000E+00 -0.28064658793E+02  0.28064840534E+02  0.10100000000E+00 0.  1.
         23    2    1    2    0    0  0.88817841970E-15  0.00000000000E+00  0.48236936025E+02  0.10436650220E+03  0.92550336488E+02 0.  0.
    9000005    2    3    3    0    0 -0.60311537963E+01 -0.28212898319E+02 -0.14425493499E+02  0.35381558033E+02  0.14540197334E+02 0.  0.
         22    1    3    3    0    0  0.60311537963E+01  0.28212898319E+02  0.62662429524E+02  0.68984944165E+02  0.00000000000E+00 0. -1.
         22    1    4    4    0    0 -0.92414760777E+01 -0.23632295075E+02 -0.74614605264E+01  0.26449265468E+02  0.00000000000E+00 0.  1.
         22    1    4    4    0    0  0.32103222814E+01 -0.45806032438E+01 -0.69640329726E+01  0.89322925652E+01  0.00000000000E+00 0.  1.
<mgrwt>
<rscale>  0 0.92550336E+02</rscale>
<asrwt>0</asrwt>
<pdfrwt beam="1">  1        3 0.11738726E-01 0.92550336E+02</pdfrwt>
<pdfrwt beam="2">  1       -3 0.43176589E-02 0.92550336E+02</pdfrwt>
<totfact> 0.32977909E+04</totfact>
</mgrwt>
</event>
<event>
 7    1  0.1247599E-009  0.1184530E+03  0.7818608E-02  0.1245671E+00
          3   -1    0    0  501    0  0.00000000000E+00  0.00000000000E+00  0.36778978904E+02  0.36779117583E+02  0.10100000000E+00 0. -1.
         -3   -1    0    0    0  501 -0.00000000000E+00 -0.00000000000E+00 -0.95374150186E+02  0.95374203665E+02  0.10100000000E+00 0.  1.
         23    2    1    2    0    0  0.35527136788E-14  0.00000000000E+00 -0.58595171282E+02  0.13215332125E+03  0.11845297050E+03 0.  0.
    9000005    2    3    3    0    0 -0.30609742107E+02 -0.10021886062E+02 -0.84302918801E+02  0.90943094427E+02  0.11236983294E+02 0.  0.
         22    1    3    3    0    0  0.30609742107E+02  0.10021886062E+02  0.25707747519E+02  0.41210226821E+02  0.00000000000E+00 0. -1.
         22    1    4    4    0    0 -0.36546729037E+01 -0.57350605997E+01 -0.18027846527E+02  0.19267869746E+02  0.00000000000E+00 0.  1.
         22    1    4    4    0    0 -0.26955069204E+02 -0.42868254618E+01 -0.66275072274E+02  0.71675224682E+02  0.00000000000E+00 0.  1.
<mgrwt>
<rscale>  0 0.11845297E+03</rscale>
<asrwt>0</asrwt>
<pdfrwt beam="1">  1        3 0.56583193E-02 0.11845297E+03</pdfrwt>
<pdfrwt beam="2">  1       -3 0.14672961E-01 0.11845297E+03</pdfrwt>
<totfact> 0.15759325E+04</totfact>
</mgrwt>
</event>
<event>
 7    1  0.1247599E-009  0.9020108E+02  0.7818608E-02  0.1302365E+00
          3   -1    0    0  501    0  0.00000000000E+00  0.00000000000E+00  0.93475442981E+01  0.93480899335E+01  0.10100000000E+00 0. -1.
         -3   -1    0    0    0  501 -0.00000000000E+00 -0.00000000000E+00 -0.21759661254E+03  0.21759663598E+03  0.10100000000E+00 0.  1.
         23    2    1    2    0    0  0.00000000000E+00  0.71054273576E-14 -0.20824906824E+03  0.22694472591E+03  0.90201076471E+02 0.  0.
    9000005    2    3    3    0    0  0.24009487497E+02  0.32571422493E+02 -0.55363704598E+02  0.68795152820E+02  0.55027458282E+01 0.  0.
         22    1    3    3    0    0 -0.24009487497E+02 -0.32571422493E+02 -0.15288536364E+03  0.15814957309E+03  0.00000000000E+00 0.  1.
         22    1    4    4    0    0  0.17401491836E+02  0.24624787909E+02 -0.44923058413E+02  0.54104281483E+02  0.00000000000E+00 0.  1.
         22    1    4    4    0    0  0.66079956612E+01  0.79466345840E+01 -0.10440646185E+02  0.14690871337E+02  0.00000000000E+00 0.  1.
<mgrwt>
<rscale>  0 0.90201076E+02</rscale>
<asrwt>0</asrwt>
<pdfrwt beam="1">  1        3 0.14381277E-02 0.90201076E+02</pdfrwt>
<pdfrwt beam="2">  1       -3 0.33476442E-01 0.90201076E+02</pdfrwt>
<totfact> 0.27957438E+04</totfact>
</mgrwt>
</event>
<event>
 7    1  0.1247599E-009  0.9037584E+02  0.7818608E-02  0.1301944E+00
          3   -1    0    0  501    0  0.00000000000E+00  0.00000000000E+00  0.10697070145E+03  0.10697074914E+03  0.10100000000E+00 0. -1.
         -3   -1    0    0    0  501 -0.00000000000E+00 -0.00000000000E+00 -0.19088669610E+02  0.19088936809E+02  0.10100000000E+00 0.  1.
         23    2    1    2    0    0 -0.35527136788E-14  0.00000000000E+00  0.87882031845E+02  0.12605968594E+03  0.90375842455E+02 0.  0.
    9000005    2    3    3    0    0 -0.19443041614E+02 -0.17245926294E+02  0.95232562517E+02  0.99050721838E+02  0.81455934146E+01 0.  0.
         22    1    3    3    0    0  0.19443041614E+02  0.17245926294E+02 -0.73505306728E+01  0.27008964107E+02  0.00000000000E+00 0.  1.
         22    1    4    4    0    0 -0.19255528165E+02 -0.13723445816E+02  0.84978665383E+02  0.88207039970E+02  0.00000000000E+00 0.  1.
         22    1    4    4    0    0 -0.18751344860E+00 -0.35224804786E+01  0.10253897134E+02  0.10843681868E+02  0.00000000000E+00 0.  1.
<mgrwt>
<rscale>  0 0.90375842E+02</rscale>
<asrwt>0</asrwt>
<pdfrwt beam="1">  1        3 0.16457055E-01 0.90375842E+02</pdfrwt>
<pdfrwt beam="2">  1       -3 0.29367426E-02 0.90375842E+02</pdfrwt>
<totfact> 0.33631553E+04</totfact>
</mgrwt>
</event>
<event>
 7    1  0.1247599E-009  0.9136940E+02  0.7818608E-02  0.1299569E+00
          3   -1    0    0  501    0  0.00000000000E+00  0.00000000000E+00  0.29239081102E+02  0.29239255543E+02  0.10100000000E+00 0. -1.
         -3   -1    0    0    0  501 -0.00000000000E+00 -0.00000000000E+00 -0.71379785875E+02  0.71379857331E+02  0.10100000000E+00 0.  1.
         23    2    1    2    0    0  0.00000000000E+00  0.35527136788E-14 -0.42140704773E+02  0.10061911287E+03  0.91369397923E+02 0.  0.
    9000005    2    3    3    0    0 -0.88257764280E+01  0.25461352289E+02  0.18423211330E+02  0.34330631796E+02  0.10630276285E+02 0.  0.
         22    1    3    3    0    0  0.88257764280E+01 -0.25461352289E+02 -0.60563916102E+02  0.66288481078E+02  0.00000000000E+00 0.  1.
         22    1    4    4    0    0 -0.21419418364E+01  0.62933725573E+00  0.46511936990E+01  0.51592231041E+01  0.00000000000E+00 0. -1.
         22    1    4    4    0    0 -0.66838345916E+01  0.24832015034E+02  0.13772017631E+02  0.29171408692E+02  0.00000000000E+00 0. -1.
<mgrwt>
<rscale>  0 0.91369398E+02</rscale>
<asrwt>0</asrwt>
<pdfrwt beam="1">  1        3 0.44983391E-02 0.91369398E+02</pdfrwt>
<pdfrwt beam="2">  1       -3 0.10981524E-01 0.91369398E+02</pdfrwt>
<totfact> 0.34427938E+04</totfact>
</mgrwt>
</event>
<event>
 7    1  0.1247599E-009  0.9026992E+02  0.7818608E-02  0.1302199E+00
         -3   -1    0    0    0  501 -0.00000000000E+00  0.00000000000E+00  0.47671280139E+03  0.47671281209E+03  0.10100000000E+00 0.  1.
          3   -1    0    0  501    0  0.00000000000E+00 -0.00000000000E+00 -0.42727508931E+01  0.42739444538E+01  0.10100000000E+00 0. -1.
         23    2    1    2    0    0 -0.71054273576E-14  0.00000000000E+00  0.47244005050E+03  0.48098675655E+03  0.90269921105E+02 0.  0.
    9000005    2    3    3    0    0 -0.43767980017E+02 -0.93303604856E+01  0.23966133070E+03  0.24394535912E+03  0.83122260721E+01 0.  0.
         22    1    3    3    0    0  0.43767980017E+02  0.93303604856E+01  0.23277871980E+03  0.23704139742E+03  0.00000000000E+00 0. -1.
         22    1    4    4    0    0 -0.11966897481E+02 -0.34914181312E+00  0.48982856602E+02  0.50424684196E+02  0.00000000000E+00 0.  1.
         22    1    4    4    0    0 -0.31801082536E+02 -0.89812186725E+01  0.19067847410E+03  0.19352067493E+03  0.00000000000E+00 0.  1.
<mgrwt>
<rscale>  0 0.90269921E+02</rscale>
<asrwt>0</asrwt>
<pdfrwt beam="2">  1        3 0.65743884E-03 0.90269921E+02</pdfrwt>
<pdfrwt beam="1">  1       -3 0.73340533E-01 0.90269921E+02</pdfrwt>
<totfact> 0.18857526E+04</totfact>
</mgrwt>
</event>
<event>
 7    1  0.1247599E-009  0.9256196E+02  0.7818608E-02  0.1296764E+00
          3   -1    0    0  501    0  0.00000000000E+00  0.00000000000E+00  0.18930981381E+02  0.18931250806E+02  0.10100000000E+00 0. -1.
         -3   -1    0    0    0  501 -0.00000000000E+00 -0.00000000000E+00 -0.11314302118E+03  0.11314306626E+03  0.10100000000E+00 0.  1.
         23    2    1    2    0    0  0.00000000000E+00 -0.22204460493E-15 -0.94212039801E+02  0.13207431707E+03  0.92561961872E+02 0.  0.
    9000005    2    3    3    0    0 -0.18773318963E+02  0.36696193108E-01  0.12909762936E+02  0.23319917281E+02  0.49716910046E+01 0.  0.
         22    1    3    3    0    0  0.18773318963E+02 -0.36696193108E-01 -0.10712180274E+03  0.10875439979E+03  0.00000000000E+00 0.  1.
         22    1    4    4    0    0 -0.11769327302E+02  0.22742948118E+01  0.69574524174E+01  0.13859856643E+02  0.00000000000E+00 0.  1.
         22    1    4    4    0    0 -0.70039916613E+01 -0.22375986187E+01  0.59523105182E+01  0.94600606380E+01  0.00000000000E+00 0.  1.
<mgrwt>
<rscale>  0 0.92561962E+02</rscale>
<asrwt>0</asrwt>
<pdfrwt beam="1">  1        3 0.29124829E-02 0.92561962E+02</pdfrwt>
<pdfrwt beam="2">  1       -3 0.17406642E-01 0.92561962E+02</pdfrwt>
<totfact> 0.31138442E+04</totfact>
</mgrwt>
</event>
<event>
 7    1  0.1247599E-009  0.9118653E+02  0.7818608E-02  0.1300004E+00
         -3   -1    0    0    0  501 -0.00000000000E+00  0.00000000000E+00  0.18177246177E+02  0.18177526773E+02  0.10100000000E+00 0.  1.
          3   -1    0    0  501    0  0.00000000000E+00 -0.00000000000E+00 -0.11435858575E+03  0.11435863035E+03  0.10100000000E+00 0. -1.
         23    2    1    2    0    0  0.00000000000E+00 -0.71054273576E-14 -0.96181339571E+02  0.13253615712E+03  0.91186527860E+02 0.  0.
    9000005    2    3    3    0    0  0.11581669222E+01  0.34689147291E+02 -0.90120180552E+02  0.97302424151E+02  0.11892708378E+02 0.  0.
         22    1    3    3    0    0 -0.11581669222E+01 -0.34689147291E+02 -0.60611590189E+01  0.35233732971E+02  0.00000000000E+00 0.  1.
         22    1    4    4    0    0 -0.26097840047E+01  0.10234145943E+01 -0.62981118052E+01  0.68938060818E+01  0.00000000000E+00 0. -1.
         22    1    4    4    0    0  0.37679509269E+01  0.33665732697E+02 -0.83822068747E+02  0.90408618069E+02  0.00000000000E+00 0. -1.
<mgrwt>
<rscale>  0 0.91186528E+02</rscale>
<asrwt>0</asrwt>
<pdfrwt beam="2">  1        3 0.17593653E-01 0.91186528E+02</pdfrwt>
<pdfrwt beam="1">  1       -3 0.27965245E-02 0.91186528E+02</pdfrwt>
<totfact> 0.32400424E+04</totfact>
</mgrwt>
</event>
<event>
 7    1  0.1247599E-009  0.9564136E+02  0.7818608E-02  0.1289738E+00
          3   -1    0    0  501    0  0.00000000000E+00  0.00000000000E+00  0.13372031131E+03  0.13372034945E+03  0.10100000000E+00 0. -1.
         -3   -1    0    0    0  501 -0.00000000000E+00 -0.00000000000E+00 -0.17101306997E+02  0.17101605246E+02  0.10100000000E+00 0.  1.
         23    2    1    2    0    0  0.00000000000E+00  0.00000000000E+00  0.11661900431E+03  0.15082195469E+03  0.95641360571E+02 0.  0.
    9000005    2    3    3    0    0 -0.12561260342E+02 -0.29932530208E+02  0.11255056019E+03  0.11810660870E+03  0.15093071047E+02 0.  0.
         22    1    3    3    0    0  0.12561260342E+02  0.29932530208E+02  0.40684441202E+01  0.32715345995E+02  0.00000000000E+00 0.  1.
         22    1    4    4    0    0 -0.73386465377E+01 -0.25923153931E+02  0.10327748764E+03  0.10673380484E+03  0.00000000000E+00 0. -1.
         22    1    4    4    0    0 -0.52226138045E+01 -0.40093762770E+01  0.92730725456E+01  0.11372803855E+02  0.00000000000E+00 0. -1.
<mgrwt>
<rscale>  0 0.95641361E+02</rscale>
<asrwt>0</asrwt>
<pdfrwt beam="1">  1        3 0.20572382E-01 0.95641361E+02</pdfrwt>
<pdfrwt beam="2">  1       -3 0.26309961E-02 0.95641361E+02</pdfrwt>
<totfact> 0.27446817E+04</totfact>
</mgrwt>
</event>
<event>
 7    1  0.1247599E-009  0.9250102E+02  0.7818608E-02  0.1296906E+00
          3   -1    0    0  501    0  0.00000000000E+00  0.00000000000E+00  0.31588680527E+02  0.31588841993E+02  0.10100000000E+00 0. -1.
         -3   -1    0    0    0  501 -0.00000000000E+00 -0.00000000000E+00 -0.67717225570E+02  0.67717300890E+02  0.10100000000E+00 0.  1.
         23    2    1    2    0    0  0.00000000000E+00  0.35527136788E-14 -0.36128545042E+02  0.99306142883E+02  0.92501017548E+02 0.  0.
    9000005    2    3    3    0    0 -0.27061888154E+02 -0.27544949717E+02 -0.44037831270E+02  0.59890069335E+02  0.12506789221E+02 0.  0.
         22    1    3    3    0    0  0.27061888154E+02  0.27544949717E+02  0.79092862278E+01  0.39416073549E+02  0.00000000000E+00 0. -1.
         22    1    4    4    0    0 -0.19867621426E+02 -0.22396841677E+02 -0.25410403685E+02  0.39268683625E+02  0.00000000000E+00 0. -1.
         22    1    4    4    0    0 -0.71942667278E+01 -0.51481080399E+01 -0.18627427585E+02  0.20621385710E+02  0.00000000000E+00 0. -1.
<mgrwt>
<rscale>  0 0.92501018E+02</rscale>
<asrwt>0</asrwt>
<pdfrwt beam="1">  1        3 0.48598152E-02 0.92501018E+02</pdfrwt>
<pdfrwt beam="2">  1       -3 0.10418053E-01 0.92501018E+02</pdfrwt>
<totfact> 0.33383994E+04</totfact>
</mgrwt>
</event>
<event>
 7    1  0.1247599E-009  0.9213726E+02  0.7818608E-02  0.1297757E+00
         -3   -1    0    0    0  501 -0.00000000000E+00  0.00000000000E+00  0.90520128389E+01  0.90525762872E+01  0.10100000000E+00 0.  1.
          3   -1    0    0  501    0  0.00000000000E+00 -0.00000000000E+00 -0.23445033000E+03  0.23445035176E+03  0.10100000000E+00 0. -1.
         23    2    1    2    0    0  0.00000000000E+00 -0.71054273576E-14 -0.22539831717E+03  0.24350292805E+03  0.92137259490E+02 0.  0.
    9000005    2    3    3    0    0  0.90745515242E+01  0.40315205435E+02 -0.16568173283E+03  0.17088245078E+03  0.65354505676E+01 0.  0.
         22    1    3    3    0    0 -0.90745515242E+01 -0.40315205435E+02 -0.59716584333E+02  0.72620477271E+02  0.00000000000E+00 0.  1.
         22    1    4    4    0    0  0.81927094632E+01  0.36942237211E+02 -0.14243016143E+03  0.14737096140E+03  0.00000000000E+00 0. -1.
         22    1    4    4    0    0  0.88184206106E+00  0.33729682246E+01 -0.23251571403E+02  0.23511489378E+02  0.00000000000E+00 0. -1.
<mgrwt>
<rscale>  0 0.92137259E+02</rscale>
<asrwt>0</asrwt>
<pdfrwt beam="2">  1        3 0.36069322E-01 0.92137259E+02</pdfrwt>
<pdfrwt beam="1">  1       -3 0.13926626E-02 0.92137259E+02</pdfrwt>
<totfact> 0.25659790E+04</totfact>
</mgrwt>
</event>
<event>
 7    1  0.1337365E-009  0.8960831E+02  0.7818608E-02  0.1303803E+00
         -3   -1    0    0    0  501 -0.00000000000E+00  0.00000000000E+00  0.25148218855E+02  0.25148421672E+02  0.10100000000E+00 0.  1.
          3   -1    0    0  501    0  0.00000000000E+00 -0.00000000000E+00 -0.79822676505E+02  0.79822740402E+02  0.10100000000E+00 0. -1.
         23    2    1    2    0    0  0.00000000000E+00  0.00000000000E+00 -0.54674457649E+02  0.10497116207E+03  0.89608306245E+02 0.  0.
    9000005    2    3    3    0    0  0.34794322101E+02  0.18021899923E+02 -0.50736850906E+02  0.65589205874E+02  0.13866584296E+02 0.  0.
         22    1    3    3    0    0 -0.34794322101E+02 -0.18021899923E+02 -0.39376067429E+01  0.39381956200E+02  0.00000000000E+00 0.  1.
         22    1    4    4    0    0  0.10856816664E+02  0.15030778622E+00 -0.81806692612E+01  0.13594719934E+02  0.00000000000E+00 0. -1.
         22    1    4    4    0    0  0.23937505437E+02  0.17871592137E+02 -0.42556181645E+02  0.51994485941E+02  0.00000000000E+00 0. -1.
<mgrwt>
<rscale>  0 0.89608306E+02</rscale>
<asrwt>0</asrwt>
<pdfrwt beam="2">  1        3 0.12280432E-01 0.89608306E+02</pdfrwt>
<pdfrwt beam="1">  1       -3 0.38689773E-02 0.89608306E+02</pdfrwt>
<totfact> 0.35960261E+04</totfact>
</mgrwt>
</event>
<event>
 7    1  0.1247599E-009  0.9078817E+02  0.7818608E-02  0.1300954E+00
          3   -1    0    0  501    0  0.00000000000E+00  0.00000000000E+00  0.23080204679E+03  0.23080206889E+03  0.10100000000E+00 0. -1.
         -3   -1    0    0    0  501 -0.00000000000E+00 -0.00000000000E+00 -0.89277889447E+01  0.89283602325E+01  0.10100000000E+00 0.  1.
         23    2    1    2    0    0  0.35527136788E-14  0.17763568394E-14  0.22187425784E+03  0.23973042912E+03  0.90788172976E+02 0.  0.
    9000005    2    3    3    0    0 -0.24664766365E+02 -0.14111828406E+02  0.20389348847E+03  0.20610302262E+03  0.99200247881E+01 0.  0.
         22    1    3    3    0    0  0.24664766365E+02  0.14111828406E+02  0.17980769378E+02  0.33627406504E+02  0.00000000000E+00 0.  1.
         22    1    4    4    0    0 -0.19727575598E+00 -0.55079182410E-01 -0.54699564473E-01  0.21199877968E+00  0.00000000000E+00 0. -1.
         22    1    4    4    0    0 -0.24467490609E+02 -0.14056749224E+02  0.20394818803E+03  0.20589102384E+03  0.00000000000E+00 0. -1.
<mgrwt>
<rscale>  0 0.90788173E+02</rscale>
<asrwt>0</asrwt>
<pdfrwt beam="1">  1        3 0.35508054E-01 0.90788173E+02</pdfrwt>
<pdfrwt beam="2">  1       -3 0.13735516E-02 0.90788173E+02</pdfrwt>
<totfact> 0.26873832E+04</totfact>
</mgrwt>
</event>
<event>
 7    1  0.1247599E-009  0.9005615E+02  0.7818608E-02  0.1302716E+00
         -3   -1    0    0    0  501 -0.00000000000E+00  0.00000000000E+00  0.17056161186E+02  0.17056460225E+02  0.10100000000E+00 0.  1.
          3   -1    0    0  501    0  0.00000000000E+00 -0.00000000000E+00 -0.11887225978E+03  0.11887230269E+03  0.10100000000E+00 0. -1.
         23    2    1    2    0    0 -0.71054273576E-14  0.00000000000E+00 -0.10181609859E+03  0.13592876291E+03  0.90056152783E+02 0.  0.
    9000005    2    3    3    0    0  0.33610074140E+02  0.17785089914E+02 -0.87174388095E+02  0.95181662484E+02  0.37720586673E+01 0.  0.
         22    1    3    3    0    0 -0.33610074140E+02 -0.17785089914E+02 -0.14641710499E+02  0.40747100428E+02  0.00000000000E+00 0.  1.
         22    1    4    4    0    0  0.17013060256E+02  0.10616586902E+02 -0.48898550325E+02  0.52850963668E+02  0.00000000000E+00 0.  1.
         22    1    4    4    0    0  0.16597013885E+02  0.71685030119E+01 -0.38275837769E+02  0.42330698816E+02  0.00000000000E+00 0.  1.
<mgrwt>
<rscale>  0 0.90056153E+02</rscale>
<asrwt>0</asrwt>
<pdfrwt beam="2">  1        3 0.18288066E-01 0.90056153E+02</pdfrwt>
<pdfrwt beam="1">  1       -3 0.26240512E-02 0.90056153E+02</pdfrwt>
<totfact> 0.33285645E+04</totfact>
</mgrwt>
</event>
<event>
 7    1  0.1247599E-009  0.9048398E+02  0.7818608E-02  0.1301684E+00
          3   -1    0    0  501    0  0.00000000000E+00  0.00000000000E+00  0.77041573941E+01  0.77048194108E+01  0.10100000000E+00 0. -1.
         -3   -1    0    0    0  501 -0.00000000000E+00 -0.00000000000E+00 -0.26566754042E+03  0.26566755962E+03  0.10100000000E+00 0.  1.
         23    2    1    2    0    0  0.00000000000E+00  0.00000000000E+00 -0.25796338302E+03  0.27337237903E+03  0.90483979985E+02 0.  0.
    9000005    2    3    3    0    0 -0.44579104188E+01  0.10304561915E+02 -0.26125974079E+03  0.26167097159E+03  0.94333585733E+01 0.  0.
         22    1    3    3    0    0  0.44579104188E+01 -0.10304561915E+02  0.32963577636E+01  0.11701407439E+02  0.00000000000E+00 0. -1.
         22    1    4    4    0    0 -0.29216905984E+01  0.11392929867E+02 -0.24794247881E+03  0.24822128822E+03  0.00000000000E+00 0. -1.
         22    1    4    4    0    0 -0.15362198204E+01 -0.10883679527E+01 -0.13317261972E+02  0.13449683363E+02  0.00000000000E+00 0. -1.
<mgrwt>
<rscale>  0 0.90483980E+02</rscale>
<asrwt>0</asrwt>
<pdfrwt beam="1">  1        3 0.11853076E-02 0.90483980E+02</pdfrwt>
<pdfrwt beam="2">  1       -3 0.40871975E-01 0.90483980E+02</pdfrwt>
<totfact> 0.25612416E+04</totfact>
</mgrwt>
</event>
<event>
 7    1  0.1247599E-009  0.9153835E+02  0.7818608E-02  0.1299169E+00
         -3   -1    0    0    0  501 -0.00000000000E+00  0.00000000000E+00  0.79708664274E+02  0.79708728263E+02  0.10100000000E+00 0.  1.
          3   -1    0    0  501    0  0.00000000000E+00 -0.00000000000E+00 -0.26280755692E+02  0.26280949769E+02  0.10100000000E+00 0. -1.
         23    2    1    2    0    0 -0.17763568394E-14  0.00000000000E+00  0.53427908581E+02  0.10598967803E+03  0.91538354988E+02 0.  0.
    9000005    2    3    3    0    0 -0.14724978533E+02 -0.14051332019E+02 -0.18198785598E+02  0.31527283205E+02  0.15764163942E+02 0.  0.
         22    1    3    3    0    0  0.14724978533E+02  0.14051332019E+02  0.71626694179E+02  0.74462394827E+02  0.00000000000E+00 0.  1.
         22    1    4    4    0    0 -0.12523228554E+02 -0.10418286348E+02 -0.20895740277E+02  0.26495356302E+02  0.00000000000E+00 0. -1.
         22    1    4    4    0    0 -0.22017499794E+01 -0.36330456707E+01  0.26969546795E+01  0.50319269034E+01  0.00000000000E+00 0. -1.
<mgrwt>
<rscale>  0 0.91538355E+02</rscale>
<asrwt>0</asrwt>
<pdfrwt beam="2">  1        3 0.40432131E-02 0.91538355E+02</pdfrwt>
<pdfrwt beam="1">  1       -3 0.12262891E-01 0.91538355E+02</pdfrwt>
<totfact> 0.33867010E+04</totfact>
</mgrwt>
</event>
<event>
 7    1  0.1247599E-009  0.9125063E+02  0.7818608E-02  0.1299851E+00
         -3   -1    0    0    0  501 -0.00000000000E+00  0.00000000000E+00  0.19559832872E+02  0.19560093634E+02  0.10100000000E+00 0.  1.
          3   -1    0    0  501    0  0.00000000000E+00 -0.00000000000E+00 -0.10642472027E+03  0.10642476819E+03  0.10100000000E+00 0. -1.
         23    2    1    2    0    0  0.71054273576E-14 -0.88817841970E-15 -0.86864887395E+02  0.12598486183E+03  0.91250626010E+02 0.  0.
    9000005    2    3    3    0    0  0.36442256011E+02 -0.61250415515E+01 -0.78837148788E+02  0.88169537627E+02  0.13893062263E+02 0.  0.
         22    1    3    3    0    0 -0.36442256011E+02  0.61250415515E+01 -0.80277386066E+01  0.37815324200E+02  0.00000000000E+00 0.  1.
         22    1    4    4    0    0  0.44577785714E+01 -0.54890188260E+01 -0.19754967699E+02  0.20982370368E+02  0.00000000000E+00 0.  1.
         22    1    4    4    0    0  0.31984477440E+02 -0.63602272552E+00 -0.59082181089E+02  0.67187167258E+02  0.00000000000E+00 0.  1.
<mgrwt>
<rscale>  0 0.91250626E+02</rscale>
<asrwt>0</asrwt>
<pdfrwt beam="2">  1        3 0.16373057E-01 0.91250626E+02</pdfrwt>
<pdfrwt beam="1">  1       -3 0.30092289E-02 0.91250626E+02</pdfrwt>
<totfact> 0.32769743E+04</totfact>
</mgrwt>
</event>
<event>
 7    1  0.1247599E-009  0.9124210E+02  0.7818608E-02  0.1299871E+00
         -3   -1    0    0    0  501 -0.00000000000E+00  0.00000000000E+00  0.58024612389E+01  0.58033401959E+01  0.10100000000E+00 0. -1.
          3   -1    0    0  501    0  0.00000000000E+00 -0.00000000000E+00 -0.35866116197E+03  0.35866117619E+03  0.10100000000E+00 0.  1.
         23    2    1    2    0    0  0.00000000000E+00  0.00000000000E+00 -0.35285870073E+03  0.36446451639E+03  0.91242101156E+02 0.  0.
    9000005    2    3    3    0    0  0.98430160986E+01 -0.10564923146E+02 -0.34928823625E+03  0.34959001527E+03  0.15505558047E+01 0.  0.
         22    1    3    3    0    0 -0.98430160986E+01  0.10564923146E+02 -0.35704644806E+01  0.14874501121E+02  0.00000000000E+00 0. -1.
         22    1    4    4    0    0  0.34386532687E+01 -0.27191191914E+01 -0.99375614401E+02  0.99472260872E+02  0.00000000000E+00 0.  1.
         22    1    4    4    0    0  0.64043628299E+01 -0.78458039548E+01 -0.24991262185E+03  0.25011775439E+03  0.00000000000E+00 0.  1.
<mgrwt>
<rscale>  0 0.91242101E+02</rscale>
<asrwt>0</asrwt>
<pdfrwt beam="2">  1        3 0.55178692E-01 0.91242101E+02</pdfrwt>
<pdfrwt beam="1">  1       -3 0.89275533E-03 0.91242101E+02</pdfrwt>
<totfact> 0.21692037E+04</totfact>
</mgrwt>
</event>
<event>
 7    1  0.1247599E-009  0.9336721E+02  0.7818608E-02  0.1294896E+00
         -3   -1    0    0    0  501 -0.00000000000E+00  0.00000000000E+00  0.77761360582E+02  0.77761426173E+02  0.10100000000E+00 0.  1.
          3   -1    0    0  501    0  0.00000000000E+00 -0.00000000000E+00 -0.28026074769E+02  0.28026256760E+02  0.10100000000E+00 0. -1.
         23    2    1    2    0    0  0.00000000000E+00  0.00000000000E+00  0.49735285812E+02  0.10578768293E+03  0.93367206264E+02 0.  0.
    9000005    2    3    3    0    0  0.29547359373E+02  0.33101740103E+02  0.10494977269E+02  0.46554470474E+02  0.94022619322E+01 0.  0.
         22    1    3    3    0    0 -0.29547359373E+02 -0.33101740103E+02  0.39240308543E+02  0.59233212460E+02  0.00000000000E+00 0.  1.
         22    1    4    4    0    0  0.29432032501E+02  0.32994545938E+02  0.11380358103E+02  0.45655198492E+02  0.00000000000E+00 0.  1.
         22    1    4    4    0    0  0.11532687230E+00  0.10719416524E+00 -0.88538083392E+00  0.89927198199E+00  0.00000000000E+00 0.  1.
<mgrwt>
<rscale>  0 0.93367206E+02</rscale>
<asrwt>0</asrwt>
<pdfrwt beam="2">  1        3 0.43117230E-02 0.93367206E+02</pdfrwt>
<pdfrwt beam="1">  1       -3 0.11963305E-01 0.93367206E+02</pdfrwt>
<totfact> 0.32101039E+04</totfact>
</mgrwt>
</event>
<event>
 7    1  0.1247599E-009  0.9173282E+02  0.7818608E-02  0.1298709E+00
         -3   -1    0    0    0  501 -0.00000000000E+00  0.00000000000E+00  0.37568545938E+03  0.37568547295E+03  0.10100000000E+00 0.  1.
          3   -1    0    0  501    0  0.00000000000E+00 -0.00000000000E+00 -0.55992356741E+01  0.56001465279E+01  0.10100000000E+00 0. -1.
         23    2    1    2    0    0  0.00000000000E+00  0.00000000000E+00  0.37008622370E+03  0.38128561948E+03  0.91732822090E+02 0.  0.
    9000005    2    3    3    0    0 -0.43511591508E+02 -0.10732171549E+02  0.20126303521E+03  0.20661533845E+03  0.13215545405E+02 0.  0.
         22    1    3    3    0    0  0.43511591508E+02  0.10732171549E+02  0.16882318849E+03  0.17467028103E+03  0.00000000000E+00 0.  1.
         22    1    4    4    0    0 -0.13624289206E+02  0.20459496333E+01  0.47689041080E+02  0.49639216406E+02  0.00000000000E+00 0. -1.
         22    1    4    4    0    0 -0.29887302301E+02 -0.12778121182E+02  0.15357399413E+03  0.15697612204E+03  0.00000000000E+00 0. -1.
<mgrwt>
<rscale>  0 0.91732822E+02</rscale>
<asrwt>0</asrwt>
<pdfrwt beam="2">  1        3 0.86149226E-03 0.91732822E+02</pdfrwt>
<pdfrwt beam="1">  1       -3 0.57797816E-01 0.91732822E+02</pdfrwt>
<totfact> 0.20836617E+04</totfact>
</mgrwt>
</event>
<event>
 7    1  0.1247599E-009  0.9002783E+02  0.7818608E-02  0.1302784E+00
          3   -1    0    0  501    0  0.00000000000E+00  0.00000000000E+00  0.25487388020E+02  0.25487588138E+02  0.10100000000E+00 0. -1.
         -3   -1    0    0    0  501 -0.00000000000E+00 -0.00000000000E+00 -0.79499662457E+02  0.79499726614E+02  0.10100000000E+00 0.  1.
         23    2    1    2    0    0 -0.71054273576E-14  0.00000000000E+00 -0.54012274436E+02  0.10498731475E+03  0.90027831636E+02 0.  0.
    9000005    2    3    3    0    0  0.37932959522E+02  0.23499149155E+02 -0.22376023892E+02  0.50288395406E+02  0.60923589988E+01 0.  0.
         22    1    3    3    0    0 -0.37932959522E+02 -0.23499149155E+02 -0.31636250545E+02  0.54698919346E+02  0.00000000000E+00 0. -1.
         22    1    4    4    0    0  0.34239442909E+02  0.18953260999E+02 -0.20191460674E+02  0.44037037109E+02  0.00000000000E+00 0. -1.
         22    1    4    4    0    0  0.36935166128E+01  0.45458881561E+01 -0.21845632178E+01  0.62513582964E+01  0.00000000000E+00 0. -1.
<mgrwt>
<rscale>  0 0.90027832E+02</rscale>
<asrwt>0</asrwt>
<pdfrwt beam="1">  1        3 0.39211570E-02 0.90027832E+02</pdfrwt>
<pdfrwt beam="2">  1       -3 0.12230737E-01 0.90027832E+02</pdfrwt>
<totfact> 0.35508331E+04</totfact>
</mgrwt>
</event>
<event>
 7    1  0.1247599E-009  0.8576714E+02  0.7818608E-02  0.1313438E+00
          3   -1    0    0  501    0  0.00000000000E+00  0.00000000000E+00  0.51019635572E+02  0.51019735543E+02  0.10100000000E+00 0. -1.
         -3   -1    0    0    0  501 -0.00000000000E+00 -0.00000000000E+00 -0.36044751461E+02  0.36044892965E+02  0.10100000000E+00 0.  1.
         23    2    1    2    0    0  0.00000000000E+00  0.00000000000E+00  0.14974884111E+02  0.87064628508E+02  0.85767140463E+02 0.  0.
    9000005    2    3    3    0    0 -0.10681834610E+02 -0.32851014768E+01 -0.33689338852E+02  0.37133675393E+02  0.10910765948E+02 0.  0.
         22    1    3    3    0    0  0.10681834610E+02  0.32851014768E+01  0.48664222963E+02  0.49930953115E+02  0.00000000000E+00 0. -1.
         22    1    4    4    0    0 -0.10961825237E+02 -0.62645134775E+01 -0.27130933978E+02  0.29924794404E+02  0.00000000000E+00 0. -1.
         22    1    4    4    0    0  0.27999062651E+00  0.29794120007E+01 -0.65584048738E+01  0.72088809887E+01  0.00000000000E+00 0. -1.
<mgrwt>
<rscale>  0 0.85767140E+02</rscale>
<asrwt>0</asrwt>
<pdfrwt beam="1">  1        3 0.78491932E-02 0.85767140E+02</pdfrwt>
<pdfrwt beam="2">  1       -3 0.55453650E-02 0.85767140E+02</pdfrwt>
<totfact> 0.42092117E+04</totfact>
</mgrwt>
</event>
<event>
 7    1  0.1247599E-009  0.9174680E+02  0.7818608E-02  0.1298676E+00
         -3   -1    0    0    0  501 -0.00000000000E+00  0.00000000000E+00  0.72399827625E+02  0.72399898074E+02  0.10100000000E+00 0.  1.
          3   -1    0    0  501    0  0.00000000000E+00 -0.00000000000E+00 -0.29065764367E+02  0.29065939848E+02  0.10100000000E+00 0. -1.
         23    2    1    2    0    0  0.00000000000E+00 -0.35527136788E-14  0.43334063258E+02  0.10146583792E+03  0.91746799546E+02 0.  0.
    9000005    2    3    3    0    0  0.32491606998E+02  0.29717274592E+02  0.35298197138E+02  0.56706525162E+02  0.55539481677E+01 0.  0.
         22    1    3    3    0    0 -0.32491606998E+02 -0.29717274592E+02  0.80358661200E+01  0.44759312761E+02  0.00000000000E+00 0. -1.
         22    1    4    4    0    0  0.18272232543E+02  0.17279538786E+02  0.16646563062E+02  0.30158995417E+02  0.00000000000E+00 0. -1.
         22    1    4    4    0    0  0.14219374455E+02  0.12437735806E+02  0.18651634076E+02  0.26547529745E+02  0.00000000000E+00 0. -1.
<mgrwt>
<rscale>  0 0.91746800E+02</rscale>
<asrwt>0</asrwt>
<pdfrwt beam="2">  1        3 0.44716750E-02 0.91746800E+02</pdfrwt>
<pdfrwt beam="1">  1       -3 0.11138454E-01 0.91746800E+02</pdfrwt>
<totfact> 0.33981681E+04</totfact>
</mgrwt>
</event>
<event>
 7    1  0.1247599E-009  0.9064608E+02  0.7818608E-02  0.1301295E+00
         -3   -1    0    0    0  501 -0.00000000000E+00  0.00000000000E+00  0.55046290938E+02  0.55046383596E+02  0.10100000000E+00 0.  1.
          3   -1    0    0  501    0  0.00000000000E+00 -0.00000000000E+00 -0.37317087625E+02  0.37317224304E+02  0.10100000000E+00 0. -1.
         23    2    1    2    0    0 -0.88817841970E-15  0.00000000000E+00  0.17729203313E+02  0.92363607901E+02  0.90646077766E+02 0.  0.
    9000005    2    3    3    0    0  0.62124260982E+01  0.21914828448E+02  0.47966033411E+02  0.54507038612E+02  0.12305403415E+02 0.  0.
         22    1    3    3    0    0 -0.62124260982E+01 -0.21914828448E+02 -0.30236830097E+02  0.37856569288E+02  0.00000000000E+00 0. -1.
         22    1    4    4    0    0  0.39155131849E+01  0.19512926040E+02  0.47009411695E+02  0.51048705312E+02  0.00000000000E+00 0. -1.
         22    1    4    4    0    0  0.22969129134E+01  0.24019024080E+01  0.95662171582E+00  0.34583333003E+01  0.00000000000E+00 0. -1.
<mgrwt>
<rscale>  0 0.90646078E+02</rscale>
<asrwt>0</asrwt>
<pdfrwt beam="2">  1        3 0.57411081E-02 0.90646078E+02</pdfrwt>
<pdfrwt beam="1">  1       -3 0.84686777E-02 0.90646078E+02</pdfrwt>
<totfact> 0.35812738E+04</totfact>
</mgrwt>
</event>
<event>
 7    1  0.1247599E-009  0.9343840E+02  0.7818608E-02  0.1294732E+00
         -3   -1    0    0    0  501 -0.00000000000E+00  0.00000000000E+00  0.46092984548E+02  0.46093095205E+02  0.10100000000E+00 0.  1.
          3   -1    0    0  501    0  0.00000000000E+00 -0.00000000000E+00 -0.47353704360E+02  0.47353812071E+02  0.10100000000E+00 0. -1.
         23    2    1    2    0    0  0.00000000000E+00  0.00000000000E+00 -0.12607198121E+01  0.93446907275E+02  0.93438402517E+02 0.  0.
    9000005    2    3    3    0    0 -0.44298107355E+02  0.82756118088E+01  0.88543897718E+01  0.47261157222E+02  0.11153864696E+02 0.  0.
         22    1    3    3    0    0  0.44298107355E+02 -0.82756118088E+01 -0.10115109584E+02  0.46185750053E+02  0.00000000000E+00 0.  1.
         22    1    4    4    0    0 -0.19089256535E+02  0.84276646485E+01  0.68921298263E+01  0.21975593281E+02  0.00000000000E+00 0.  1.
         22    1    4    4    0    0 -0.25208850820E+02 -0.15205283967E+00  0.19622599455E+01  0.25285563941E+02  0.00000000000E+00 0.  1.
<mgrwt>
<rscale>  0 0.93438403E+02</rscale>
<asrwt>0</asrwt>
<pdfrwt beam="2">  1        3 0.72852021E-02 0.93438403E+02</pdfrwt>
<pdfrwt beam="1">  1       -3 0.70912451E-02 0.93438403E+02</pdfrwt>
<totfact> 0.32887529E+04</totfact>
</mgrwt>
</event>
<event>
 7    1  0.1247599E-009  0.9087789E+02  0.7818608E-02  0.1300740E+00
          3   -1    0    0  501    0  0.00000000000E+00  0.00000000000E+00  0.64462889502E+02  0.64462968625E+02  0.10100000000E+00 0. -1.
         -3   -1    0    0    0  501 -0.00000000000E+00 -0.00000000000E+00 -0.32029067168E+02  0.32029226414E+02  0.10100000000E+00 0.  1.
         23    2    1    2    0    0  0.00000000000E+00  0.00000000000E+00  0.32433822333E+02  0.96492195039E+02  0.90877889898E+02 0.  0.
    9000005    2    3    3    0    0  0.27473130448E+02 -0.16053635524E+01  0.54030430726E+02  0.61509862600E+02  0.10335650145E+02 0.  0.
         22    1    3    3    0    0 -0.27473130448E+02  0.16053635524E+01 -0.21596608392E+02  0.34982332438E+02  0.00000000000E+00 0.  1.
         22    1    4    4    0    0  0.18966889464E+02  0.12943028701E+01  0.26976019836E+02  0.33001875130E+02  0.00000000000E+00 0.  1.
         22    1    4    4    0    0  0.85062409840E+01 -0.28996664225E+01  0.27054410890E+02  0.28507987471E+02  0.00000000000E+00 0.  1.
<mgrwt>
<rscale>  0 0.90877890E+02</rscale>
<asrwt>0</asrwt>
<pdfrwt beam="1">  1        3 0.99173859E-02 0.90877890E+02</pdfrwt>
<pdfrwt beam="2">  1       -3 0.49275672E-02 0.90877890E+02</pdfrwt>
<totfact> 0.35246938E+04</totfact>
</mgrwt>
</event>
<event>
 7    1  0.1247599E-009  0.9204466E+02  0.7818608E-02  0.1297974E+00
          3   -1    0    0  501    0  0.00000000000E+00  0.00000000000E+00  0.36996580575E+01  0.37010364417E+01  0.10100000000E+00 0. -1.
         -3   -1    0    0    0  501 -0.00000000000E+00 -0.00000000000E+00 -0.57239218321E+03  0.57239219212E+03  0.10100000000E+00 0.  1.
         23    2    1    2    0    0  0.00000000000E+00 -0.23592239273E-15 -0.56869252516E+03  0.57609322857E+03  0.92044662155E+02 0.  0.
    9000005    2    3    3    0    0 -0.23507949899E+02 -0.64494929745E-01 -0.53161109184E+03  0.53218809715E+03  0.78223980395E+01 0.  0.
         22    1    3    3    0    0  0.23507949899E+02  0.64494929745E-01 -0.37081433318E+02  0.43905131420E+02  0.00000000000E+00 0. -1.
         22    1    4    4    0    0 -0.37426156684E+01 -0.20904530933E+01 -0.14878921411E+03  0.14885095700E+03  0.00000000000E+00 0. -1.
         22    1    4    4    0    0 -0.19765334231E+02  0.20259581635E+01 -0.38282187773E+03  0.38333714014E+03  0.00000000000E+00 0. -1.
<mgrwt>
<rscale>  0 0.92044662E+02</rscale>
<asrwt>0</asrwt>
<pdfrwt beam="1">  1        3 0.56928533E-03 0.92044662E+02</pdfrwt>
<pdfrwt beam="2">  1       -3 0.88060372E-01 0.92044662E+02</pdfrwt>
<totfact> 0.15780852E+04</totfact>
</mgrwt>
</event>
<event>
 7    1  0.1247599E-009  0.9032174E+02  0.7818608E-02  0.1302074E+00
          3   -1    0    0  501    0  0.00000000000E+00  0.00000000000E+00  0.24329043907E+01  0.24349999536E+01  0.10100000000E+00 0. -1.
         -3   -1    0    0    0  501 -0.00000000000E+00 -0.00000000000E+00 -0.83793714517E+03  0.83793715125E+03  0.10100000000E+00 0.  1.
         23    2    1    2    0    0  0.00000000000E+00  0.00000000000E+00 -0.83550424077E+03  0.84037215121E+03  0.90321736974E+02 0.  0.
    9000005    2    3    3    0    0  0.26762573430E+02 -0.21669752811E+02 -0.68195166361E+03  0.68300567614E+03  0.15901842779E+02 0.  0.
         22    1    3    3    0    0 -0.26762573430E+02  0.21669752811E+02 -0.15355257716E+03  0.15736647507E+03  0.00000000000E+00 0. -1.
         22    1    4    4    0    0  0.25329150723E+02 -0.23134417973E+02 -0.56761318815E+03  0.56864883587E+03  0.00000000000E+00 0. -1.
         22    1    4    4    0    0  0.14334227063E+01  0.14646651620E+01 -0.11433847546E+03  0.11435684026E+03  0.00000000000E+00 0. -1.
<mgrwt>
<rscale>  0 0.90321737E+02</rscale>
<asrwt>0</asrwt>
<pdfrwt beam="1">  1        3 0.37445532E-03 0.90321737E+02</pdfrwt>
<pdfrwt beam="2">  1       -3 0.12891334E+00 0.90321737E+02</pdfrwt>
<totfact> 0.12130168E+04</totfact>
</mgrwt>
</event>
<event>
 7    1  0.1267449E-009  0.9055335E+02  0.7818608E-02  0.1301517E+00
         -3   -1    0    0    0  501 -0.00000000000E+00  0.00000000000E+00  0.40851362135E+01  0.40863845735E+01  0.10100000000E+00 0. -1.
          3   -1    0    0  501    0  0.00000000000E+00 -0.00000000000E+00 -0.50173577592E+03  0.50173578608E+03  0.10100000000E+00 0.  1.
         23    2    1    2    0    0  0.00000000000E+00 -0.17763568394E-14 -0.49765063970E+03  0.50582217065E+03  0.90553349635E+02 0.  0.
    9000005    2    3    3    0    0 -0.33411851689E+01  0.14371169077E+02 -0.48736013394E+03  0.48783360407E+03  0.15621494388E+02 0.  0.
         22    1    3    3    0    0  0.33411851689E+01 -0.14371169077E+02 -0.10290505764E+02  0.17988566587E+02  0.00000000000E+00 0. -1.
         22    1    4    4    0    0 -0.38474345270E+01 -0.24857861217E+01 -0.11725240466E+03  0.11734184370E+03  0.00000000000E+00 0. -1.
         22    1    4    4    0    0  0.50624935817E+00  0.16856955199E+02 -0.37010772928E+03  0.37049176036E+03  0.00000000000E+00 0. -1.
<mgrwt>
<rscale>  0 0.90553350E+02</rscale>
<asrwt>0</asrwt>
<pdfrwt beam="2">  1        3 0.77190167E-01 0.90553350E+02</pdfrwt>
<pdfrwt beam="1">  1       -3 0.62857970E-03 0.90553350E+02</pdfrwt>
<totfact> 0.18100110E+04</totfact>
</mgrwt>
</event>
<event>
 7    1  0.1247599E-009  0.8978149E+02  0.7818608E-02  0.1303382E+00
          3   -1    0    0  501    0  0.00000000000E+00  0.00000000000E+00  0.68295336783E+02  0.68295411466E+02  0.10100000000E+00 0. -1.
         -3   -1    0    0    0  501 -0.00000000000E+00 -0.00000000000E+00 -0.29506653933E+02  0.29506826792E+02  0.10100000000E+00 0.  1.
         23    2    1    2    0    0  0.00000000000E+00  0.35527136788E-14  0.38788682850E+02  0.97802238257E+02  0.89781489690E+02 0.  0.
    9000005    2    3    3    0    0 -0.16213804145E+02  0.23589288826E+02  0.57022603709E+02  0.63863796012E+02  0.27685944204E+01 0.  0.
         22    1    3    3    0    0  0.16213804145E+02 -0.23589288826E+02 -0.18233920859E+02  0.33938442246E+02  0.00000000000E+00 0.  1.
         22    1    4    4    0    0 -0.17854764707E+01  0.13239447842E+01  0.41506730308E+01  0.47083800428E+01  0.00000000000E+00 0.  1.
         22    1    4    4    0    0 -0.14428327674E+02  0.22265344042E+02  0.52871930678E+02  0.59155415969E+02  0.00000000000E+00 0.  1.
<mgrwt>
<rscale>  0 0.89781490E+02</rscale>
<asrwt>0</asrwt>
<pdfrwt beam="1">  1        3 0.10506994E-01 0.89781490E+02</pdfrwt>
<pdfrwt beam="2">  1       -3 0.45395043E-02 0.89781490E+02</pdfrwt>
<totfact> 0.36324976E+04</totfact>
</mgrwt>
</event>
<event>
 7    1  0.1247599E-009  0.9268519E+02  0.7818608E-02  0.1296476E+00
          3   -1    0    0  501    0  0.00000000000E+00  0.00000000000E+00  0.20671582121E+02  0.20671828859E+02  0.10100000000E+00 0. -1.
         -3   -1    0    0    0  501 -0.00000000000E+00 -0.00000000000E+00 -0.10389227461E+03  0.10389232370E+03  0.10100000000E+00 0.  1.
         23    2    1    2    0    0  0.00000000000E+00 -0.22204460493E-15 -0.83220692488E+02  0.12456415256E+03  0.92685189999E+02 0.  0.
    9000005    2    3    3    0    0 -0.20173814147E+02  0.14792655920E+01  0.11797364349E+02  0.27416830782E+02  0.14259516143E+02 0.  0.
         22    1    3    3    0    0  0.20173814147E+02 -0.14792655920E+01 -0.95018056837E+02  0.97147321780E+02  0.00000000000E+00 0.  1.
         22    1    4    4    0    0 -0.14047313733E+02 -0.35826360994E+01  0.12885147663E+02  0.19395600914E+02  0.00000000000E+00 0. -1.
         22    1    4    4    0    0 -0.61265004141E+01  0.50619016914E+01 -0.10877833140E+01  0.80212298680E+01  0.00000000000E+00 0. -1.
<mgrwt>
<rscale>  0 0.92685190E+02</rscale>
<asrwt>0</asrwt>
<pdfrwt beam="1">  1        3 0.31802662E-02 0.92685190E+02</pdfrwt>
<pdfrwt beam="2">  1       -3 0.15983449E-01 0.92685190E+02</pdfrwt>
<totfact> 0.31500103E+04</totfact>
</mgrwt>
</event>
<event>
 7    1  0.1247599E-009  0.1067053E+03  0.7818608E-02  0.1266796E+00
         -3   -1    0    0    0  501 -0.00000000000E+00  0.00000000000E+00  0.11933998291E+02  0.11934425676E+02  0.10100000000E+00 0.  1.
          3   -1    0    0  501    0  0.00000000000E+00 -0.00000000000E+00 -0.23851592199E+03  0.23851594338E+03  0.10100000000E+00 0. -1.
         23    2    1    2    0    0  0.00000000000E+00  0.35527136788E-14 -0.22658192370E+03  0.25045036905E+03  0.10670529139E+03 0.  0.
    9000005    2    3    3    0    0 -0.42524581429E+02  0.23262233489E+02 -0.16340552863E+03  0.17082167807E+03  0.11366942465E+02 0.  0.
         22    1    3    3    0    0  0.42524581429E+02 -0.23262233489E+02 -0.63176395073E+02  0.79628690979E+02  0.00000000000E+00 0.  1.
         22    1    4    4    0    0 -0.39576498165E+02  0.19329621763E+02 -0.13526739237E+03  0.14225751623E+03  0.00000000000E+00 0. -1.
         22    1    4    4    0    0 -0.29480832642E+01  0.39326117256E+01 -0.28138136255E+02  0.28564161844E+02  0.00000000000E+00 0. -1.
<mgrwt>
<rscale>  0 0.10670529E+03</rscale>
<asrwt>0</asrwt>
<pdfrwt beam="2">  1        3 0.36694788E-01 0.10670529E+03</pdfrwt>
<pdfrwt beam="1">  1       -3 0.18360344E-02 0.10670529E+03</pdfrwt>
<totfact> 0.17014601E+04</totfact>
</mgrwt>
</event>
<event>
 7    1  0.1247599E-009  0.9129486E+02  0.7818608E-02  0.1299746E+00
         -3   -1    0    0    0  501 -0.00000000000E+00  0.00000000000E+00  0.34788296162E+03  0.34788297628E+03  0.10100000000E+00 0. -1.
          3   -1    0    0  501    0  0.00000000000E+00 -0.00000000000E+00 -0.59891824346E+01  0.59900339928E+01  0.10100000000E+00 0.  1.
         23    2    1    2    0    0  0.00000000000E+00 -0.88817841970E-15  0.34189377918E+03  0.35387301027E+03  0.91294858316E+02 0.  0.
    9000005    2    3    3    0    0 -0.30215884066E+02  0.67761225701E+01  0.29959628323E+03  0.30145170114E+03  0.12501188341E+02 0.  0.
         22    1    3    3    0    0  0.30215884066E+02 -0.67761225701E+01  0.42297495957E+02  0.52421309133E+02  0.00000000000E+00 0.  1.
         22    1    4    4    0    0 -0.13775476375E+02 -0.99031127157E+00  0.17383913592E+03  0.17438689642E+03  0.00000000000E+00 0. -1.
         22    1    4    4    0    0 -0.16440407691E+02  0.77664338417E+01  0.12575714731E+03  0.12706480472E+03  0.00000000000E+00 0. -1.
<mgrwt>
<rscale>  0 0.91294858E+02</rscale>
<asrwt>0</asrwt>
<pdfrwt beam="2">  1        3 0.92147954E-03 0.91294858E+02</pdfrwt>
<pdfrwt beam="1">  1       -3 0.53520509E-01 0.91294858E+02</pdfrwt>
<totfact> 0.21998202E+04</totfact>
</mgrwt>
</event>
<event>
 7    1  0.1247599E-009  0.8831563E+02  0.7818608E-02  0.1306983E+00
          3   -1    0    0  501    0  0.00000000000E+00  0.00000000000E+00  0.10058398729E+03  0.10058403800E+03  0.10100000000E+00 0. -1.
         -3   -1    0    0    0  501 -0.00000000000E+00 -0.00000000000E+00 -0.19385728930E+02  0.19385992034E+02  0.10100000000E+00 0.  1.
         23    2    1    2    0    0  0.35527136788E-14  0.44408920985E-15  0.81198258357E+02  0.11997003003E+03  0.88315632507E+02 0.  0.
    9000005    2    3    3    0    0 -0.26658251682E+02 -0.31117643369E+01  0.87279746963E+02  0.92450401331E+02  0.14456037368E+02 0.  0.
         22    1    3    3    0    0  0.26658251682E+02  0.31117643369E+01 -0.60814886057E+01  0.27519628699E+02  0.00000000000E+00 0.  1.
         22    1    4    4    0    0 -0.17036202323E+02  0.32265035553E+01  0.36912217446E+02  0.40781788970E+02  0.00000000000E+00 0.  1.
         22    1    4    4    0    0 -0.96220493592E+01 -0.63382678922E+01  0.50367529517E+02  0.51668612361E+02  0.00000000000E+00 0.  1.
<mgrwt>
<rscale>  0 0.88315633E+02</rscale>
<asrwt>0</asrwt>
<pdfrwt beam="1">  1        3 0.15474484E-01 0.88315633E+02</pdfrwt>
<pdfrwt beam="2">  1       -3 0.29824440E-02 0.88315633E+02</pdfrwt>
<totfact> 0.36245188E+04</totfact>
</mgrwt>
</event>
<event>
 7    1  0.1247599E-009  0.1088967E+03  0.7818608E-02  0.1262627E+00
          3   -1    0    0  501    0  0.00000000000E+00  0.00000000000E+00  0.50447515442E+01  0.50457624937E+01  0.10100000000E+00 0. -1.
         -3   -1    0    0    0  501 -0.00000000000E+00 -0.00000000000E+00 -0.58760494689E+03  0.58760495557E+03  0.10100000000E+00 0.  1.
         23    2    1    2    0    0  0.71054273576E-14  0.35527136788E-14 -0.58256019534E+03  0.59265071806E+03  0.10889670528E+03 0.  0.
    9000005    2    3    3    0    0  0.32163944083E+02  0.18299791240E+02 -0.50791245715E+03  0.50933393419E+03  0.87516126125E+01 0.  0.
         22    1    3    3    0    0 -0.32163944083E+02 -0.18299791240E+02 -0.74647738186E+02  0.83316783872E+02  0.00000000000E+00 0. -1.
         22    1    4    4    0    0  0.25586908788E+02  0.10100968920E+02 -0.36314081106E+03  0.36418122980E+03  0.00000000000E+00 0.  1.
         22    1    4    4    0    0  0.65770352953E+01  0.81988223194E+01 -0.14477164609E+03  0.14515270439E+03  0.00000000000E+00 0.  1.
<mgrwt>
<rscale>  0 0.10889671E+03</rscale>
<asrwt>0</asrwt>
<pdfrwt beam="1">  1        3 0.77619452E-03 0.10889671E+03</pdfrwt>
<pdfrwt beam="2">  1       -3 0.90400786E-01 0.10889671E+03</pdfrwt>
<totfact> 0.98261580E+03</totfact>
</mgrwt>
</event>
<event>
 7    1  0.1247599E-009  0.9991724E+02  0.7818608E-02  0.1280470E+00
          3   -1    0    0  501    0  0.00000000000E+00  0.00000000000E+00  0.11229617663E+03  0.11229622205E+03  0.10100000000E+00 0. -1.
         -3   -1    0    0    0  501 -0.00000000000E+00 -0.00000000000E+00 -0.22225559441E+02  0.22225788928E+02  0.10100000000E+00 0.  1.
         23    2    1    2    0    0  0.00000000000E+00  0.00000000000E+00  0.90070617193E+02  0.13452201098E+03  0.99917242542E+02 0.  0.
    9000005    2    3    3    0    0  0.20381580136E+02  0.28738065513E+02 -0.46178627704E+00  0.37375722858E+02  0.12467806314E+02 0.  0.
         22    1    3    3    0    0 -0.20381580136E+02 -0.28738065513E+02  0.90532403470E+02  0.97146288125E+02  0.00000000000E+00 0. -1.
         22    1    4    4    0    0  0.19992358401E+02  0.18883170727E+02  0.40424472544E-01  0.27500366639E+02  0.00000000000E+00 0. -1.
         22    1    4    4    0    0  0.38922173493E+00  0.98548947867E+01 -0.50221074958E+00  0.98753562190E+01  0.00000000000E+00 0. -1.
<mgrwt>
<rscale>  0 0.99917243E+02</rscale>
<asrwt>0</asrwt>
<pdfrwt beam="1">  1        3 0.17276356E-01 0.99917243E+02</pdfrwt>
<pdfrwt beam="2">  1       -3 0.34193380E-02 0.99917243E+02</pdfrwt>
<totfact> 0.25142998E+04</totfact>
</mgrwt>
</event>
<event>
 7    1  0.1247599E-009  0.9340855E+02  0.7818608E-02  0.1294801E+00
          3   -1    0    0  501    0  0.00000000000E+00  0.00000000000E+00  0.10719586364E+03  0.10719591122E+03  0.10100000000E+00 0. -1.
         -3   -1    0    0    0  501 -0.00000000000E+00 -0.00000000000E+00 -0.20348454945E+02  0.20348705601E+02  0.10100000000E+00 0.  1.
         23    2    1    2    0    0  0.00000000000E+00  0.00000000000E+00  0.86847408698E+02  0.12754461683E+03  0.93408548236E+02 0.  0.
    9000005    2    3    3    0    0 -0.40794719495E+02  0.15781725759E+02  0.62502201572E+02  0.77485041152E+02  0.13569612906E+02 0.  0.
         22    1    3    3    0    0  0.40794719495E+02 -0.15781725759E+02  0.24345207126E+02  0.50059575673E+02  0.00000000000E+00 0.  1.
         22    1    4    4    0    0 -0.83589873988E+00  0.39961736848E+01  0.67159770523E+01  0.78595469710E+01  0.00000000000E+00 0.  1.
         22    1    4    4    0    0 -0.39958820755E+02  0.11785552074E+02  0.55786224519E+02  0.69625494181E+02  0.00000000000E+00 0.  1.
<mgrwt>
<rscale>  0 0.93408548E+02</rscale>
<asrwt>0</asrwt>
<pdfrwt beam="1">  1        3 0.16491695E-01 0.93408548E+02</pdfrwt>
<pdfrwt beam="2">  1       -3 0.31305544E-02 0.93408548E+02</pdfrwt>
<totfact> 0.30652557E+04</totfact>
</mgrwt>
</event>
<event>
 7    1  0.1852909E-009  0.8847440E+02  0.7818608E-02  0.1306589E+00
          3   -1    0    0  501    0  0.00000000000E+00  0.00000000000E+00  0.74899709933E+02  0.74899778030E+02  0.10100000000E+00 0. -1.
         -3   -1    0    0    0  501 -0.00000000000E+00 -0.00000000000E+00 -0.26127156830E+02  0.26127352048E+02  0.10100000000E+00 0.  1.
         23    2    1    2    0    0  0.00000000000E+00  0.00000000000E+00  0.48772553102E+02  0.10102713008E+03  0.88474397854E+02 0.  0.
    9000005    2    3    3    0    0  0.20832262361E+02 -0.20746852823E+02  0.60839312155E+02  0.69246291021E+02  0.15139744368E+02 0.  0.
         22    1    3    3    0    0 -0.20832262361E+02  0.20746852823E+02 -0.12066759052E+02  0.31780839057E+02  0.00000000000E+00 0.  1.
         22    1    4    4    0    0  0.14417492967E+02 -0.75163084740E+01  0.43907566037E+02  0.46821291650E+02  0.00000000000E+00 0. -1.
         22    1    4    4    0    0  0.64147693940E+01 -0.13230544350E+02  0.16931746118E+02  0.22424999370E+02  0.00000000000E+00 0. -1.
<mgrwt>
<rscale>  0 0.88474398E+02</rscale>
<asrwt>0</asrwt>
<pdfrwt beam="1">  1        3 0.11523052E-01 0.88474398E+02</pdfrwt>
<pdfrwt beam="2">  1       -3 0.40195830E-02 0.88474398E+02</pdfrwt>
<totfact> 0.37536765E+04</totfact>
</mgrwt>
</event>
<event>
 7    1  0.1247599E-009  0.9314985E+02  0.7818608E-02  0.1295398E+00
         -3   -1    0    0    0  501 -0.00000000000E+00  0.00000000000E+00  0.14287246816E+03  0.14287250386E+03  0.10100000000E+00 0.  1.
          3   -1    0    0  501    0  0.00000000000E+00 -0.00000000000E+00 -0.15182731194E+02  0.15183067131E+02  0.10100000000E+00 0. -1.
         23    2    1    2    0    0  0.00000000000E+00  0.00000000000E+00  0.12768973697E+03  0.15805557099E+03  0.93149850214E+02 0.  0.
    9000005    2    3    3    0    0  0.36777359060E+02 -0.46916539787E+01  0.11063597967E+03  0.11724605747E+03  0.11477466471E+02 0.  0.
         22    1    3    3    0    0 -0.36777359060E+02  0.46916539787E+01  0.17053757297E+02  0.40809513528E+02  0.00000000000E+00 0. -1.
         22    1    4    4    0    0  0.34175441173E+02 -0.74311093210E+01  0.10163813173E+03  0.10748717127E+03  0.00000000000E+00 0. -1.
         22    1    4    4    0    0  0.26019178873E+01  0.27394553423E+01  0.89978479412E+01  0.97588861986E+01  0.00000000000E+00 0. -1.
<mgrwt>
<rscale>  0 0.93149850E+02</rscale>
<asrwt>0</asrwt>
<pdfrwt beam="2">  1        3 0.23358333E-02 0.93149850E+02</pdfrwt>
<pdfrwt beam="1">  1       -3 0.21980409E-01 0.93149850E+02</pdfrwt>
<totfact> 0.29082443E+04</totfact>
</mgrwt>
</event>
<event>
 7    1  0.1247599E-009  0.9108118E+02  0.7818608E-02  0.1300254E+00
         -3   -1    0    0    0  501 -0.00000000000E+00  0.00000000000E+00  0.24762166656E+01  0.24782756052E+01  0.10100000000E+00 0.  1.
          3   -1    0    0  501    0  0.00000000000E+00 -0.00000000000E+00 -0.83719579913E+03  0.83719580522E+03  0.10100000000E+00 0. -1.
         23    2    1    2    0    0  0.00000000000E+00  0.00000000000E+00 -0.83471958247E+03  0.83967408083E+03  0.91081176233E+02 0.  0.
    9000005    2    3    3    0    0 -0.84654141470E+01  0.14718702763E+02 -0.80607767844E+03  0.80637750272E+03  0.13969601325E+02 0.  0.
         22    1    3    3    0    0  0.84654141470E+01 -0.14718702763E+02 -0.28641904023E+02  0.33296578109E+02  0.00000000000E+00 0.  1.
         22    1    4    4    0    0 -0.33417050207E+01  0.91511945279E+01 -0.68186193965E+03  0.68193153329E+03  0.00000000000E+00 0. -1.
         22    1    4    4    0    0 -0.51237091263E+01  0.55675082353E+01 -0.12421573879E+03  0.12444596943E+03  0.00000000000E+00 0. -1.
<mgrwt>
<rscale>  0 0.91081176E+02</rscale>
<asrwt>0</asrwt>
<pdfrwt beam="2">  1        3 0.12879929E+00 0.91081176E+02</pdfrwt>
<pdfrwt beam="1">  1       -3 0.38111593E-03 0.91081176E+02</pdfrwt>
<totfact> 0.11909021E+04</totfact>
</mgrwt>
</event>
<event>
 7    1  0.1247599E-009  0.9062688E+02  0.7818608E-02  0.1301341E+00
         -3   -1    0    0    0  501 -0.00000000000E+00  0.00000000000E+00  0.10618541293E+03  0.10618546096E+03  0.10100000000E+00 0.  1.
          3   -1    0    0  501    0  0.00000000000E+00 -0.00000000000E+00 -0.19336820109E+02  0.19337083878E+02  0.10100000000E+00 0. -1.
         23    2    1    2    0    0  0.00000000000E+00  0.00000000000E+00  0.86848592822E+02  0.12552254484E+03  0.90626878953E+02 0.  0.
    9000005    2    3    3    0    0 -0.35292462524E+02  0.36048031884E+01  0.76638427959E+01  0.38754018558E+02  0.13586278040E+02 0.  0.
         22    1    3    3    0    0  0.35292462524E+02 -0.36048031884E+01  0.79184750026E+02  0.86768526285E+02  0.00000000000E+00 0.  1.
         22    1    4    4    0    0 -0.35478268186E+02  0.21477334862E+01  0.91106228737E+01  0.36692284226E+02  0.00000000000E+00 0.  1.
         22    1    4    4    0    0  0.18580566228E+00  0.14570697021E+01 -0.14467800778E+01  0.20617343317E+01  0.00000000000E+00 0.  1.
<mgrwt>
<rscale>  0 0.90626879E+02</rscale>
<asrwt>0</asrwt>
<pdfrwt beam="2">  1        3 0.29749194E-02 0.90626879E+02</pdfrwt>
<pdfrwt beam="1">  1       -3 0.16336241E-01 0.90626879E+02</pdfrwt>
<totfact> 0.33418187E+04</totfact>
</mgrwt>
</event>
<event>
 7    1  0.1247599E-009  0.9066516E+02  0.7818608E-02  0.1301249E+00
          3   -1    0    0  501    0  0.00000000000E+00  0.00000000000E+00  0.28386470678E+03  0.28386472475E+03  0.10100000000E+00 0. -1.
         -3   -1    0    0    0  501 -0.00000000000E+00 -0.00000000000E+00 -0.72391446834E+01  0.72398492213E+01  0.10100000000E+00 0.  1.
         23    2    1    2    0    0  0.00000000000E+00  0.35527136788E-14  0.27662556210E+03  0.29110457397E+03  0.90665160788E+02 0.  0.
    9000005    2    3    3    0    0  0.25655523982E+02  0.18362263886E+02  0.24274489917E+03  0.24480902379E+03  0.33156314779E+01 0.  0.
         22    1    3    3    0    0 -0.25655523982E+02 -0.18362263886E+02  0.33880662932E+02  0.46295550181E+02  0.00000000000E+00 0.  1.
         22    1    4    4    0    0  0.23155262855E+02  0.17600341002E+02  0.22522661478E+03  0.22709682122E+03  0.00000000000E+00 0. -1.
         22    1    4    4    0    0  0.25002611277E+01  0.76192288405E+00  0.17518284388E+02  0.17712202576E+02  0.00000000000E+00 0. -1.
<mgrwt>
<rscale>  0 0.90665161E+02</rscale>
<asrwt>0</asrwt>
<pdfrwt beam="1">  1        3 0.43671540E-01 0.90665161E+02</pdfrwt>
<pdfrwt beam="2">  1       -3 0.11137704E-02 0.90665161E+02</pdfrwt>
<totfact> 0.24750298E+04</totfact>
</mgrwt>
</event>
<event>
 7    1  0.1247599E-009  0.9251602E+02  0.7818608E-02  0.1296871E+00
         -3   -1    0    0    0  501 -0.00000000000E+00  0.00000000000E+00  0.46346746100E+02  0.46346856150E+02  0.10100000000E+00 0.  1.
          3   -1    0    0  501    0  0.00000000000E+00 -0.00000000000E+00 -0.46169221949E+02  0.46169332423E+02  0.10100000000E+00 0. -1.
         23    2    1    2    0    0  0.00000000000E+00  0.00000000000E+00  0.17752415022E+00  0.92516188574E+02  0.92516018253E+02 0.  0.
    9000005    2    3    3    0    0  0.29922441498E+02  0.59067372177E+01  0.33102903695E+02  0.47634982396E+02  0.15589973224E+02 0.  0.
         22    1    3    3    0    0 -0.29922441498E+02 -0.59067372177E+01 -0.32925379545E+02  0.44881206177E+02  0.00000000000E+00 0. -1.
         22    1    4    4    0    0  0.31714803189E+02  0.64742837831E+01  0.31454969235E+02  0.45134910894E+02  0.00000000000E+00 0.  1.
         22    1    4    4    0    0 -0.17923616909E+01 -0.56754656535E+00  0.16479344600E+01  0.25000715029E+01  0.00000000000E+00 0.  1.
<mgrwt>
<rscale>  0 0.92516018E+02</rscale>
<asrwt>0</asrwt>
<pdfrwt beam="2">  1        3 0.71029742E-02 0.92516018E+02</pdfrwt>
<pdfrwt beam="1">  1       -3 0.71302856E-02 0.92516018E+02</pdfrwt>
<totfact> 0.33860093E+04</totfact>
</mgrwt>
</event>
<event>
 7    1  0.1247599E-009  0.9350552E+02  0.7818608E-02  0.1294578E+00
         -3   -1    0    0    0  501 -0.00000000000E+00  0.00000000000E+00  0.19418621936E+03  0.19418624563E+03  0.10100000000E+00 0.  1.
          3   -1    0    0  501    0  0.00000000000E+00 -0.00000000000E+00 -0.11256057994E+02  0.11256511118E+02  0.10100000000E+00 0. -1.
         23    2    1    2    0    0  0.71054273576E-14  0.00000000000E+00  0.18293016137E+03  0.20544275675E+03  0.93505520486E+02 0.  0.
    9000005    2    3    3    0    0  0.35529758083E+02 -0.20731507041E+02  0.50993364582E+02  0.67241897705E+02  0.15132431462E+02 0.  0.
         22    1    3    3    0    0 -0.35529758083E+02  0.20731507041E+02  0.13193679679E+03  0.13820085904E+03  0.00000000000E+00 0.  1.
         22    1    4    4    0    0  0.15824246425E+02 -0.12412950707E+02  0.35603579200E+02  0.40891355713E+02  0.00000000000E+00 0.  1.
         22    1    4    4    0    0  0.19705511658E+02 -0.83185563340E+01  0.15389785382E+02  0.26350541992E+02  0.00000000000E+00 0.  1.
<mgrwt>
<rscale>  0 0.93505520E+02</rscale>
<asrwt>0</asrwt>
<pdfrwt beam="2">  1        3 0.17317382E-02 0.93505520E+02</pdfrwt>
<pdfrwt beam="1">  1       -3 0.29874839E-01 0.93505520E+02</pdfrwt>
<totfact> 0.26357368E+04</totfact>
</mgrwt>
</event>
<event>
 7    1  0.1247599E-009  0.9097952E+02  0.7818608E-02  0.1300497E+00
         -3   -1    0    0    0  501 -0.00000000000E+00  0.00000000000E+00  0.55063979555E+02  0.55064072183E+02  0.10100000000E+00 0.  1.
          3   -1    0    0  501    0  0.00000000000E+00 -0.00000000000E+00 -0.37580063690E+02  0.37580199413E+02  0.10100000000E+00 0. -1.
         23    2    1    2    0    0  0.00000000000E+00 -0.35527136788E-14  0.17483915865E+02  0.92644271597E+02  0.90979523771E+02 0.  0.
    9000005    2    3    3    0    0 -0.41177330732E+01 -0.31659681029E+02 -0.22710932315E+02  0.41312829490E+02  0.13102377851E+02 0.  0.
         22    1    3    3    0    0  0.41177330732E+01  0.31659681029E+02  0.40194848180E+02  0.51331442107E+02  0.00000000000E+00 0.  1.
         22    1    4    4    0    0  0.24146283220E+00 -0.14889754487E+02 -0.17990221549E+02  0.23354039573E+02  0.00000000000E+00 0. -1.
         22    1    4    4    0    0 -0.43591959054E+01 -0.16769926542E+02 -0.47207107662E+01  0.17958789917E+02  0.00000000000E+00 0. -1.
<mgrwt>
<rscale>  0 0.90979524E+02</rscale>
<asrwt>0</asrwt>
<pdfrwt beam="2">  1        3 0.57815659E-02 0.90979524E+02</pdfrwt>
<pdfrwt beam="1">  1       -3 0.84713990E-02 0.90979524E+02</pdfrwt>
<totfact> 0.35435520E+04</totfact>
</mgrwt>
</event>
<event>
 6    1  0.1293325E-009  0.2092632E+03  0.7818608E-02  0.1142151E+00
         -3   -1    0    0    0  501 -0.00000000000E+00  0.00000000000E+00  0.34432154301E+03  0.34432155783E+03  0.10100000000E+00 0.  1.
          3   -1    0    0  501    0  0.00000000000E+00 -0.00000000000E+00 -0.31795093247E+02  0.31795253664E+02  0.10100000000E+00 0. -1.
    9000005    2    1    2    0    0 -0.58634642723E+02 -0.56749400869E+02  0.41071491173E+02  0.92662564087E+02  0.15523130153E+02 0.  0.
         22    1    1    2    0    0  0.58634642723E+02  0.56749400869E+02  0.27145495859E+03  0.28345424740E+03  0.00000000000E+00 0.  1.
         22    1    3    3    0    0 -0.29709452740E+02 -0.22718026267E+02  0.11621780050E+02  0.39164091603E+02  0.00000000000E+00 0. -1.
         22    1    3    3    0    0 -0.28925189983E+02 -0.34031374602E+02  0.29449711123E+02  0.53498472483E+02  0.00000000000E+00 0. -1.
<mgrwt>
<rscale>  0 0.20926317E+03</rscale>
<asrwt>0</asrwt>
<pdfrwt beam="2">  1        3 0.48915657E-02 0.20926317E+03</pdfrwt>
<pdfrwt beam="1">  1       -3 0.52972565E-01 0.20926317E+03</pdfrwt>
<totfact> 0.20641867E+03</totfact>
</mgrwt>
</event>
<event>
 7    1  0.1247599E-009  0.9044428E+02  0.7818608E-02  0.1301779E+00
          3   -1    0    0  501    0  0.00000000000E+00  0.00000000000E+00  0.12119547142E+03  0.12119551350E+03  0.10100000000E+00 0.  1.
         -3   -1    0    0    0  501 -0.00000000000E+00 -0.00000000000E+00 -0.16873716944E+02  0.16874019216E+02  0.10100000000E+00 0. -1.
         23    2    1    2    0    0  0.00000000000E+00  0.00000000000E+00  0.10432175447E+03  0.13806953272E+03  0.90444277922E+02 0.  0.
    9000005    2    3    3    0    0 -0.34589037150E+02  0.16664827932E+02  0.20735883057E+02  0.46087382921E+02  0.14830780069E+02 0.  0.
         22    1    3    3    0    0  0.34589037150E+02 -0.16664827932E+02  0.83585871416E+02  0.91982149797E+02  0.00000000000E+00 0.  1.
         22    1    4    4    0    0 -0.33564573706E+02  0.13289192795E+02  0.22074920328E+02  0.42314127200E+02  0.00000000000E+00 0. -1.
         22    1    4    4    0    0 -0.10244634437E+01  0.33756351377E+01 -0.13390372707E+01  0.37732557219E+01  0.00000000000E+00 0. -1.
<mgrwt>
<rscale>  0 0.90444278E+02</rscale>
<asrwt>0</asrwt>
<pdfrwt beam="1">  1        3 0.18645484E-01 0.90444278E+02</pdfrwt>
<pdfrwt beam="2">  1       -3 0.25959829E-02 0.90444278E+02</pdfrwt>
<totfact> 0.32760625E+04</totfact>
</mgrwt>
</event>
<event>
 7    1  0.1247599E-009  0.9353533E+02  0.7818608E-02  0.1294509E+00
         -3   -1    0    0    0  501 -0.00000000000E+00  0.00000000000E+00  0.23129307292E+03  0.23129309498E+03  0.10100000000E+00 0.  1.
          3   -1    0    0  501    0  0.00000000000E+00 -0.00000000000E+00 -0.94561711094E+01  0.94567104772E+01  0.10100000000E+00 0. -1.
         23    2    1    2    0    0  0.00000000000E+00  0.00000000000E+00  0.22183690181E+03  0.24074980545E+03  0.93535329256E+02 0.  0.
    9000005    2    3    3    0    0  0.33669061379E+02  0.18963935299E+02  0.17686141050E+03  0.18145367274E+03  0.12338569174E+02 0.  0.
         22    1    3    3    0    0 -0.33669061379E+02 -0.18963935299E+02  0.44975491314E+02  0.59296132717E+02  0.00000000000E+00 0. -1.
         22    1    4    4    0    0  0.98444806924E+01  0.12364890731E+01  0.29317036654E+02  0.30950465966E+02  0.00000000000E+00 0. -1.
         22    1    4    4    0    0  0.23824580687E+02  0.17727446226E+02  0.14754437385E+03  0.15050320677E+03  0.00000000000E+00 0. -1.
<mgrwt>
<rscale>  0 0.93535329E+02</rscale>
<asrwt>0</asrwt>
<pdfrwt beam="2">  1        3 0.14548387E-02 0.93535329E+02</pdfrwt>
<pdfrwt beam="1">  1       -3 0.35583593E-01 0.93535329E+02</pdfrwt>
<totfact> 0.24750161E+04</totfact>
</mgrwt>
</event>
<event>
 7    1  0.1247599E-009  0.8868185E+02  0.7818608E-02  0.1306076E+00
          3   -1    0    0  501    0  0.00000000000E+00  0.00000000000E+00  0.20592119692E+02  0.20592367382E+02  0.10100000000E+00 0. -1.
         -3   -1    0    0    0  501 -0.00000000000E+00 -0.00000000000E+00 -0.95478271260E+02  0.95478324681E+02  0.10100000000E+00 0.  1.
         23    2    1    2    0    0  0.00000000000E+00  0.00000000000E+00 -0.74886151569E+02  0.11607069206E+03  0.88681846278E+02 0.  0.
    9000005    2    3    3    0    0 -0.37439823924E+02 -0.16282663403E+02 -0.56029779715E+02  0.71099275558E+02  0.15776730553E+02 0.  0.
         22    1    3    3    0    0  0.37439823924E+02  0.16282663403E+02 -0.18856371854E+02  0.44971416505E+02  0.00000000000E+00 0.  1.
         22    1    4    4    0    0 -0.52675569925E+01 -0.57769332980E+01 -0.20920943990E+02  0.22333965444E+02  0.00000000000E+00 0. -1.
         22    1    4    4    0    0 -0.32172266932E+02 -0.10505730105E+02 -0.35108835725E+02  0.48765310114E+02  0.00000000000E+00 0. -1.
<mgrwt>
<rscale>  0 0.88681846E+02</rscale>
<asrwt>0</asrwt>
<pdfrwt beam="1">  1        3 0.31680416E-02 0.88681846E+02</pdfrwt>
<pdfrwt beam="2">  1       -3 0.14688988E-01 0.88681846E+02</pdfrwt>
<totfact> 0.36134946E+04</totfact>
</mgrwt>
</event>
<event>
 7    1  0.1247599E-009  0.9172458E+02  0.7818608E-02  0.1298728E+00
          3   -1    0    0  501    0  0.00000000000E+00  0.00000000000E+00  0.39960673645E+02  0.39960801282E+02  0.10100000000E+00 0. -1.
         -3   -1    0    0    0  501 -0.00000000000E+00 -0.00000000000E+00 -0.52635232439E+02  0.52635329342E+02  0.10100000000E+00 0.  1.
         23    2    1    2    0    0  0.00000000000E+00  0.00000000000E+00 -0.12674558794E+02  0.92596130624E+02  0.91724582124E+02 0.  0.
    9000005    2    3    3    0    0 -0.58000353800E+01  0.33733640523E+02  0.23482987789E+02  0.42806903996E+02  0.10458556347E+02 0.  0.
         22    1    3    3    0    0  0.58000353800E+01 -0.33733640523E+02 -0.36157546583E+02  0.49789226628E+02  0.00000000000E+00 0.  1.
         22    1    4    4    0    0 -0.86496829251E+00  0.13124690771E+02  0.15079503505E+02  0.20009925135E+02  0.00000000000E+00 0. -1.
         22    1    4    4    0    0 -0.49350670875E+01  0.20608949752E+02  0.84034842844E+01  0.22796978860E+02  0.00000000000E+00 0. -1.
<mgrwt>
<rscale>  0 0.91724582E+02</rscale>
<asrwt>0</asrwt>
<pdfrwt beam="1">  1        3 0.61478132E-02 0.91724582E+02</pdfrwt>
<pdfrwt beam="2">  1       -3 0.80977454E-02 0.91724582E+02</pdfrwt>
<totfact> 0.34659255E+04</totfact>
</mgrwt>
</event>
<event>
 7    1  0.1247599E-009  0.9073265E+02  0.7818608E-02  0.1301087E+00
         -3   -1    0    0    0  501 -0.00000000000E+00  0.00000000000E+00  0.12685176416E+03  0.12685180437E+03  0.10100000000E+00 0.  1.
          3   -1    0    0  501    0  0.00000000000E+00 -0.00000000000E+00 -0.16224278083E+02  0.16224592454E+02  0.10100000000E+00 0. -1.
         23    2    1    2    0    0  0.00000000000E+00  0.00000000000E+00  0.11062748608E+03  0.14307639683E+03  0.90732654829E+02 0.  0.
    9000005    2    3    3    0    0 -0.28051434558E+01  0.30173217414E+02  0.53487314199E+01  0.33523176600E+02  0.13300472273E+02 0.  0.
         22    1    3    3    0    0  0.28051434558E+01 -0.30173217414E+02  0.10527875466E+03  0.10955322023E+03  0.00000000000E+00 0.  1.
         22    1    4    4    0    0 -0.56491975481E+00 -0.40948771936E-01 -0.22231915777E+01  0.22942083433E+01  0.00000000000E+00 0. -1.
         22    1    4    4    0    0 -0.22402237010E+01  0.30214166186E+02  0.75719229976E+01  0.31228968257E+02  0.00000000000E+00 0. -1.
<mgrwt>
<rscale>  0 0.90732655E+02</rscale>
<asrwt>0</asrwt>
<pdfrwt beam="2">  1        3 0.24960701E-02 0.90732655E+02</pdfrwt>
<pdfrwt beam="1">  1       -3 0.19515683E-01 0.90732655E+02</pdfrwt>
<totfact> 0.32159685E+04</totfact>
</mgrwt>
</event>
<event>
 7    1  0.1247599E-009  0.1011888E+03  0.7818608E-02  0.1277816E+00
          3   -1    0    0  501    0  0.00000000000E+00  0.00000000000E+00  0.84792801323E+02  0.84792861476E+02  0.10100000000E+00 0. -1.
         -3   -1    0    0    0  501 -0.00000000000E+00 -0.00000000000E+00 -0.30188649413E+02  0.30188818367E+02  0.10100000000E+00 0.  1.
         23    2    1    2    0    0  0.00000000000E+00  0.35527136788E-14  0.54604151910E+02  0.11498167984E+03  0.10118880024E+03 0.  0.
    9000005    2    3    3    0    0  0.39610311243E+02 -0.29414725295E+02  0.17233199319E+02  0.53088296364E+02  0.93370890047E+01 0.  0.
         22    1    3    3    0    0 -0.39610311243E+02  0.29414725295E+02  0.37370952591E+02  0.61893383479E+02  0.00000000000E+00 0. -1.
         22    1    4    4    0    0  0.15323022416E+01 -0.81896805381E+00  0.28603071682E+01  0.33466424860E+01  0.00000000000E+00 0. -1.
         22    1    4    4    0    0  0.38078009001E+02 -0.28595757241E+02  0.14372892151E+02  0.49741653878E+02  0.00000000000E+00 0. -1.
<mgrwt>
<rscale>  0 0.10118880E+03</rscale>
<asrwt>0</asrwt>
<pdfrwt beam="1">  1        3 0.13045064E-01 0.10118880E+03</pdfrwt>
<pdfrwt beam="2">  1       -3 0.46444252E-02 0.10118880E+03</pdfrwt>
<totfact> 0.25258989E+04</totfact>
</mgrwt>
</event>
<event>
 7    1  0.1247599E-009  0.8587067E+02  0.7818608E-02  0.1313171E+00
         -3   -1    0    0    0  501 -0.00000000000E+00  0.00000000000E+00  0.19172991054E+03  0.19172993715E+03  0.10100000000E+00 0.  1.
          3   -1    0    0  501    0  0.00000000000E+00 -0.00000000000E+00 -0.96144979013E+01  0.96150283876E+01  0.10100000000E+00 0. -1.
         23    2    1    2    0    0  0.00000000000E+00  0.00000000000E+00  0.18211541264E+03  0.20134496553E+03  0.85870668007E+02 0.  0.
    9000005    2    3    3    0    0 -0.27998694412E+02 -0.25758765691E+02  0.47920226569E+02  0.61860956185E+02  0.91098236553E+01 0.  0.
         22    1    3    3    0    0  0.27998694412E+02  0.25758765691E+02  0.13419518607E+03  0.13948400935E+03  0.00000000000E+00 0.  1.
         22    1    4    4    0    0 -0.82888703197E+01 -0.13463680096E+02  0.17486474751E+02  0.23574410960E+02  0.00000000000E+00 0. -1.
         22    1    4    4    0    0 -0.19709824092E+02 -0.12295085595E+02  0.30433751819E+02  0.38286545225E+02  0.00000000000E+00 0. -1.
<mgrwt>
<rscale>  0 0.85870668E+02</rscale>
<asrwt>0</asrwt>
<pdfrwt beam="2">  1        3 0.14791964E-02 0.85870668E+02</pdfrwt>
<pdfrwt beam="1">  1       -3 0.29496951E-01 0.85870668E+02</pdfrwt>
<totfact> 0.33393041E+04</totfact>
</mgrwt>
</event>
<event>
 7    1  0.1247599E-009  0.7320348E+02  0.7818608E-02  0.1349526E+00
          3   -1    0    0  501    0  0.00000000000E+00  0.00000000000E+00  0.10102545831E+03  0.10102550880E+03  0.10100000000E+00 0. -1.
         -3   -1    0    0    0  501 -0.00000000000E+00 -0.00000000000E+00 -0.13260644144E+02  0.13261028773E+02  0.10100000000E+00 0.  1.
         23    2    1    2    0    0  0.00000000000E+00  0.00000000000E+00  0.87764814166E+02  0.11428653757E+03  0.73203483963E+02 0.  0.
    9000005    2    3    3    0    0 -0.53840098327E+01  0.23591245564E+02  0.86331827786E+02  0.90046325544E+02  0.83439694403E+01 0.  0.
         22    1    3    3    0    0  0.53840098327E+01 -0.23591245564E+02  0.14329863796E+01  0.24240212026E+02  0.00000000000E+00 0.  1.
         22    1    4    4    0    0  0.12022631787E+01  0.45278012210E+00  0.22546882306E+01  0.25950078241E+01  0.00000000000E+00 0. -1.
         22    1    4    4    0    0 -0.65862730114E+01  0.23138465441E+02  0.84077139555E+02  0.87451317720E+02  0.00000000000E+00 0. -1.
<mgrwt>
<rscale>  0 0.73203484E+02</rscale>
<asrwt>0</asrwt>
<pdfrwt beam="1">  1        3 0.15542412E-01 0.73203484E+02</pdfrwt>
<pdfrwt beam="2">  1       -3 0.20401325E-02 0.73203484E+02</pdfrwt>
<totfact> 0.60577113E+04</totfact>
</mgrwt>
</event>
<event>
 7    1  0.1247599E-009  0.9361781E+02  0.7818608E-02  0.1294320E+00
          3   -1    0    0  501    0  0.00000000000E+00  0.00000000000E+00  0.40768166021E+02  0.40768291130E+02  0.10100000000E+00 0. -1.
         -3   -1    0    0    0  501 -0.00000000000E+00 -0.00000000000E+00 -0.53744458161E+02  0.53744553063E+02  0.10100000000E+00 0.  1.
         23    2    1    2    0    0  0.35527136788E-14  0.00000000000E+00 -0.12976292140E+02  0.94512844194E+02  0.93617805785E+02 0.  0.
    9000005    2    3    3    0    0  0.29149728693E+02  0.33403096338E+02 -0.20516218103E+02  0.49542587230E+02  0.82510130513E+01 0.  0.
         22    1    3    3    0    0 -0.29149728693E+02 -0.33403096338E+02  0.75399259632E+01  0.44970256964E+02  0.00000000000E+00 0. -1.
         22    1    4    4    0    0  0.16655986333E+02  0.23568768043E+02 -0.16070381969E+02  0.33032800130E+02  0.00000000000E+00 0.  1.
         22    1    4    4    0    0  0.12493742360E+02  0.98343282952E+01 -0.44458361343E+01  0.16509787101E+02  0.00000000000E+00 0.  1.
<mgrwt>
<rscale>  0 0.93617806E+02</rscale>
<asrwt>0</asrwt>
<pdfrwt beam="1">  1        3 0.62720425E-02 0.93617806E+02</pdfrwt>
<pdfrwt beam="2">  1       -3 0.82683951E-02 0.93617806E+02</pdfrwt>
<totfact> 0.32641249E+04</totfact>
</mgrwt>
</event>
<event>
 7    1  0.1247599E-009  0.8999183E+02  0.7818608E-02  0.1302871E+00
         -3   -1    0    0    0  501 -0.00000000000E+00  0.00000000000E+00  0.13511663109E+03  0.13511666884E+03  0.10100000000E+00 0.  1.
          3   -1    0    0  501    0  0.00000000000E+00 -0.00000000000E+00 -0.14984121344E+02  0.14984461734E+02  0.10100000000E+00 0. -1.
         23    2    1    2    0    0  0.00000000000E+00  0.00000000000E+00  0.12013250975E+03  0.15010113057E+03  0.89991830193E+02 0.  0.
    9000005    2    3    3    0    0 -0.44407858359E+02  0.53431084087E+01  0.65651316431E+02  0.79611364531E+02  0.52218121296E+01 0.  0.
         22    1    3    3    0    0  0.44407858359E+02 -0.53431084087E+01  0.54481193314E+02  0.70489766041E+02  0.00000000000E+00 0. -1.
         22    1    4    4    0    0 -0.13615982025E+02  0.39010636149E+01  0.22297829930E+02  0.26416027019E+02  0.00000000000E+00 0.  1.
         22    1    4    4    0    0 -0.30791876334E+02  0.14420447938E+01  0.43353486500E+02  0.53195337513E+02  0.00000000000E+00 0.  1.
<mgrwt>
<rscale>  0 0.89991830E+02</rscale>
<asrwt>0</asrwt>
<pdfrwt beam="2">  1        3 0.23052785E-02 0.89991830E+02</pdfrwt>
<pdfrwt beam="1">  1       -3 0.20787204E-01 0.89991830E+02</pdfrwt>
<totfact> 0.32428381E+04</totfact>
</mgrwt>
</event>
<event>
 7    1  0.1247599E-009  0.9128416E+02  0.7818608E-02  0.1299771E+00
         -3   -1    0    0    0  501 -0.00000000000E+00  0.00000000000E+00  0.31128531920E+01  0.31144912900E+01  0.10100000000E+00 0.  1.
          3   -1    0    0  501    0  0.00000000000E+00 -0.00000000000E+00 -0.66904746654E+03  0.66904747417E+03  0.10100000000E+00 0. -1.
         23    2    1    2    0    0  0.00000000000E+00  0.00000000000E+00 -0.66593461335E+03  0.67216196546E+03  0.91284163728E+02 0.  0.
    9000005    2    3    3    0    0 -0.12562746573E+02  0.31329129098E+02 -0.55698446120E+03  0.55810289048E+03  0.10383130975E+02 0.  0.
         22    1    3    3    0    0  0.12562746573E+02 -0.31329129098E+02 -0.10895015215E+03  0.11405907498E+03  0.00000000000E+00 0.  1.
         22    1    4    4    0    0 -0.92127262796E+01  0.95522180756E+01 -0.21612928672E+03  0.21653634285E+03  0.00000000000E+00 0. -1.
         22    1    4    4    0    0 -0.33500202931E+01  0.21776911022E+02 -0.34085517448E+03  0.34156654763E+03  0.00000000000E+00 0. -1.
<mgrwt>
<rscale>  0 0.91284164E+02</rscale>
<asrwt>0</asrwt>
<pdfrwt beam="2">  1        3 0.10293039E+00 0.91284164E+02</pdfrwt>
<pdfrwt beam="1">  1       -3 0.47902762E-03 0.91284164E+02</pdfrwt>
<totfact> 0.14346172E+04</totfact>
</mgrwt>
</event>
<event>
 7    1  0.1247599E-009  0.9205456E+02  0.7818608E-02  0.1297951E+00
         -3   -1    0    0    0  501 -0.00000000000E+00  0.00000000000E+00  0.76560497504E+01  0.76567159266E+01  0.10100000000E+00 0.  1.
          3   -1    0    0  501    0  0.00000000000E+00 -0.00000000000E+00 -0.27669794690E+03  0.27669796534E+03  0.10100000000E+00 0. -1.
         23    2    1    2    0    0  0.00000000000E+00 -0.22204460493E-15 -0.26904189715E+03  0.28435468126E+03  0.92054561716E+02 0.  0.
    9000005    2    3    3    0    0 -0.43950018033E+02  0.17849353996E+01 -0.16875106686E+03  0.17484193899E+03  0.12569446440E+02 0.  0.
         22    1    3    3    0    0  0.43950018033E+02 -0.17849353996E+01 -0.10029083029E+03  0.10951274227E+03  0.00000000000E+00 0. -1.
         22    1    4    4    0    0 -0.25088309066E+02 -0.47661821250E+01 -0.85664609532E+02  0.89389960679E+02  0.00000000000E+00 0.  1.
         22    1    4    4    0    0 -0.18861708967E+02  0.65511175247E+01 -0.83086457326E+02  0.85451978309E+02  0.00000000000E+00 0.  1.
<mgrwt>
<rscale>  0 0.92054562E+02</rscale>
<asrwt>0</asrwt>
<pdfrwt beam="2">  1        3 0.42568960E-01 0.92054562E+02</pdfrwt>
<pdfrwt beam="1">  1       -3 0.11779067E-02 0.92054562E+02</pdfrwt>
<totfact> 0.24022065E+04</totfact>
</mgrwt>
</event>
<event>
 7    1  0.1854186E-009  0.8835780E+02  0.7818608E-02  0.1306878E+00
          3   -1    0    0  501    0  0.00000000000E+00  0.00000000000E+00  0.60330901210E+02  0.60330985752E+02  0.10100000000E+00 0. -1.
         -3   -1    0    0    0  501 -0.00000000000E+00 -0.00000000000E+00 -0.32350981117E+02  0.32351138778E+02  0.10100000000E+00 0.  1.
         23    2    1    2    0    0  0.17763568394E-14  0.00000000000E+00  0.27979920093E+02  0.92682124530E+02  0.88357796934E+02 0.  0.
    9000005    2    3    3    0    0 -0.12627348178E+02 -0.39292919959E+02  0.26562472510E+01  0.44260312429E+02  0.15765028572E+02 0.  0.
         22    1    3    3    0    0  0.12627348178E+02  0.39292919959E+02  0.25323672842E+02  0.48421812101E+02  0.00000000000E+00 0.  1.
         22    1    4    4    0    0 -0.78948067157E+01 -0.28994656274E+02 -0.51636943234E+01  0.30490683899E+02  0.00000000000E+00 0. -1.
         22    1    4    4    0    0 -0.47325414625E+01 -0.10298263685E+02  0.78199415744E+01  0.13769628530E+02  0.00000000000E+00 0. -1.
<mgrwt>
<rscale>  0 0.88357797E+02</rscale>
<asrwt>0</asrwt>
<pdfrwt beam="1">  1        3 0.92816957E-02 0.88357797E+02</pdfrwt>
<pdfrwt beam="2">  1       -3 0.49770927E-02 0.88357797E+02</pdfrwt>
<totfact> 0.38357881E+04</totfact>
</mgrwt>
</event>
<event>
 7    1  0.1247599E-009  0.9030841E+02  0.7818608E-02  0.1302107E+00
          3   -1    0    0  501    0  0.00000000000E+00  0.00000000000E+00  0.97951208773E+02  0.97951260845E+02  0.10100000000E+00 0. -1.
         -3   -1    0    0    0  501 -0.00000000000E+00 -0.00000000000E+00 -0.20815309307E+02  0.20815554342E+02  0.10100000000E+00 0.  1.
         23    2    1    2    0    0  0.00000000000E+00  0.00000000000E+00  0.77135899465E+02  0.11876681519E+03  0.90308412694E+02 0.  0.
    9000005    2    3    3    0    0  0.60078993598E+01  0.25237861348E+02  0.86476622026E+02  0.91193393235E+02  0.12844621930E+02 0.  0.
         22    1    3    3    0    0 -0.60078993598E+01 -0.25237861348E+02 -0.93407225607E+01  0.27573421952E+02  0.00000000000E+00 0.  1.
         22    1    4    4    0    0  0.72434674302E+01  0.24379409445E+02  0.67095317798E+02  0.71753781056E+02  0.00000000000E+00 0.  1.
         22    1    4    4    0    0 -0.12355680704E+01  0.85845190346E+00  0.19381304228E+02  0.19439612179E+02  0.00000000000E+00 0.  1.
<mgrwt>
<rscale>  0 0.90308413E+02</rscale>
<asrwt>0</asrwt>
<pdfrwt beam="1">  1        3 0.15069439E-01 0.90308413E+02</pdfrwt>
<pdfrwt beam="2">  1       -3 0.32023782E-02 0.90308413E+02</pdfrwt>
<totfact> 0.34207046E+04</totfact>
</mgrwt>
</event>
<event>
 7    1  0.1247599E-009  0.9138999E+02  0.7818608E-02  0.1299520E+00
          3   -1    0    0  501    0  0.00000000000E+00  0.00000000000E+00  0.25186382498E+02  0.25186585008E+02  0.10100000000E+00 0. -1.
         -3   -1    0    0    0  501 -0.00000000000E+00 -0.00000000000E+00 -0.82902674281E+02  0.82902735804E+02  0.10100000000E+00 0.  1.
         23    2    1    2    0    0  0.00000000000E+00  0.00000000000E+00 -0.57716291782E+02  0.10808932081E+03  0.91389993635E+02 0.  0.
    9000005    2    3    3    0    0 -0.21041273389E+02  0.34138438778E+02 -0.53363714560E+02  0.67751830601E+02  0.11595530612E+02 0.  0.
         22    1    3    3    0    0  0.21041273389E+02 -0.34138438778E+02 -0.43525772223E+01  0.40337490211E+02  0.00000000000E+00 0.  1.
         22    1    4    4    0    0 -0.20280146636E+02  0.32216365257E+02 -0.44089490236E+02  0.58249993023E+02  0.00000000000E+00 0.  1.
         22    1    4    4    0    0 -0.76112675288E+00  0.19220735214E+01 -0.92742243234E+01  0.95018375779E+01  0.00000000000E+00 0.  1.
<mgrwt>
<rscale>  0 0.91389994E+02</rscale>
<asrwt>0</asrwt>
<pdfrwt beam="1">  1        3 0.38748484E-02 0.91389994E+02</pdfrwt>
<pdfrwt beam="2">  1       -3 0.12754278E-01 0.91389994E+02</pdfrwt>
<totfact> 0.33866965E+04</totfact>
</mgrwt>
</event>
<event>
 7    1  0.1247599E-009  0.9428415E+02  0.7818608E-02  0.1292797E+00
          3   -1    0    0  501    0  0.00000000000E+00  0.00000000000E+00  0.92168015154E+02  0.92168070493E+02  0.10100000000E+00 0. -1.
         -3   -1    0    0    0  501 -0.00000000000E+00 -0.00000000000E+00 -0.24112048341E+02  0.24112259874E+02  0.10100000000E+00 0.  1.
         23    2    1    2    0    0  0.00000000000E+00  0.00000000000E+00  0.68055966813E+02  0.11628033037E+03  0.94284148251E+02 0.  0.
    9000005    2    3    3    0    0 -0.18460725302E+02  0.16858478897E+02  0.82665261475E+02  0.87324533366E+02  0.12923698520E+02 0.  0.
         22    1    3    3    0    0  0.18460725302E+02 -0.16858478897E+02 -0.14609294663E+02  0.28955797000E+02  0.00000000000E+00 0.  1.
         22    1    4    4    0    0  0.32799713258E+00  0.56572537443E+01  0.25381710619E+02  0.26006601777E+02  0.00000000000E+00 0. -1.
         22    1    4    4    0    0 -0.18788722435E+02  0.11201225153E+02  0.57283550856E+02  0.61317931589E+02  0.00000000000E+00 0. -1.
<mgrwt>
<rscale>  0 0.94284148E+02</rscale>
<asrwt>0</asrwt>
<pdfrwt beam="1">  1        3 0.14179715E-01 0.94284148E+02</pdfrwt>
<pdfrwt beam="2">  1       -3 0.37095665E-02 0.94284148E+02</pdfrwt>
<totfact> 0.30577560E+04</totfact>
</mgrwt>
</event>
<event>
 7    1  0.1247599E-009  0.9191119E+02  0.7818608E-02  0.1298288E+00
         -3   -1    0    0    0  501 -0.00000000000E+00  0.00000000000E+00  0.27298526515E+02  0.27298713356E+02  0.10100000000E+00 0.  1.
          3   -1    0    0  501    0  0.00000000000E+00 -0.00000000000E+00 -0.77363282464E+02  0.77363348393E+02  0.10100000000E+00 0. -1.
         23    2    1    2    0    0  0.00000000000E+00 -0.35527136788E-14 -0.50064755948E+02  0.10466206175E+03  0.91911192906E+02 0.  0.
    9000005    2    3    3    0    0  0.35123718903E+02 -0.25992560541E+02 -0.41215605571E+02  0.60079595515E+02  0.12421036988E+01 0.  0.
         22    1    3    3    0    0 -0.35123718903E+02  0.25992560541E+02 -0.88491503771E+01  0.44582466234E+02  0.00000000000E+00 0. -1.
         22    1    4    4    0    0  0.10476975228E+02 -0.77291126521E+01 -0.13067677010E+02  0.18446419023E+02  0.00000000000E+00 0. -1.
         22    1    4    4    0    0  0.24646743675E+02 -0.18263447889E+02 -0.28147928561E+02  0.41633176492E+02  0.00000000000E+00 0. -1.
<mgrwt>
<rscale>  0 0.91911193E+02</rscale>
<asrwt>0</asrwt>
<pdfrwt beam="2">  1        3 0.11902063E-01 0.91911193E+02</pdfrwt>
<pdfrwt beam="1">  1       -3 0.41997928E-02 0.91911193E+02</pdfrwt>
<totfact> 0.33586436E+04</totfact>
</mgrwt>
</event>
<event>
 7    1  0.1247599E-009  0.8996879E+02  0.7818608E-02  0.1302927E+00
          3   -1    0    0  501    0  0.00000000000E+00  0.00000000000E+00  0.18949592408E+02  0.18949861567E+02  0.10100000000E+00 0. -1.
         -3   -1    0    0    0  501 -0.00000000000E+00 -0.00000000000E+00 -0.10678730721E+03  0.10678735497E+03  0.10100000000E+00 0.  1.
         23    2    1    2    0    0  0.00000000000E+00  0.00000000000E+00 -0.87837714800E+02  0.12573721654E+03  0.89968791708E+02 0.  0.
    9000005    2    3    3    0    0 -0.68955157221E+01  0.20455908769E+02  0.77847475406E+01  0.27708406259E+02  0.15529363880E+02 0.  0.
         22    1    3    3    0    0  0.68955157221E+01 -0.20455908769E+02 -0.95622462340E+02  0.98028810279E+02  0.00000000000E+00 0.  1.
         22    1    4    4    0    0 -0.27924410505E+01  0.21568147754E+02  0.85873411095E+01  0.23382154561E+02  0.00000000000E+00 0. -1.
         22    1    4    4    0    0 -0.41030746716E+01 -0.11122389856E+01 -0.80259356889E+00  0.43262516985E+01  0.00000000000E+00 0. -1.
<mgrwt>
<rscale>  0 0.89968792E+02</rscale>
<asrwt>0</asrwt>
<pdfrwt beam="1">  1        3 0.29153463E-02 0.89968792E+02</pdfrwt>
<pdfrwt beam="2">  1       -3 0.16428841E-01 0.89968792E+02</pdfrwt>
<totfact> 0.34069085E+04</totfact>
</mgrwt>
</event>
<event>
 7    1  0.1247599E-009  0.9191651E+02  0.7818608E-02  0.1298276E+00
         -3   -1    0    0    0  501 -0.00000000000E+00  0.00000000000E+00  0.16675164362E+03  0.16675167421E+03  0.10100000000E+00 0.  1.
          3   -1    0    0  501    0  0.00000000000E+00 -0.00000000000E+00 -0.12666275300E+02  0.12666677977E+02  0.10100000000E+00 0. -1.
         23    2    1    2    0    0 -0.13877787808E-16  0.00000000000E+00  0.15408536832E+03  0.17941835218E+03  0.91916507605E+02 0.  0.
    9000005    2    3    3    0    0 -0.63228942411E-01  0.30273163287E+02  0.14887048345E+02  0.36966112128E+02  0.15112935656E+02 0.  0.
         22    1    3    3    0    0  0.63228942411E-01 -0.30273163287E+02  0.13919831997E+03  0.14245224006E+03  0.00000000000E+00 0.  1.
         22    1    4    4    0    0 -0.78216817243E-01  0.28012296112E+02  0.71570437856E+01  0.28912248738E+02  0.00000000000E+00 0.  1.
         22    1    4    4    0    0  0.14987874833E-01  0.22608671744E+01  0.77300045589E+01  0.80538633895E+01  0.00000000000E+00 0.  1.
<mgrwt>
<rscale>  0 0.91916508E+02</rscale>
<asrwt>0</asrwt>
<pdfrwt beam="2">  1        3 0.19486910E-02 0.91916508E+02</pdfrwt>
<pdfrwt beam="1">  1       -3 0.25654133E-01 0.91916508E+02</pdfrwt>
<totfact> 0.28957698E+04</totfact>
</mgrwt>
</event>
<event>
 7    1  0.1247599E-009  0.9210686E+02  0.7818608E-02  0.1297828E+00
         -3   -1    0    0    0  501 -0.00000000000E+00  0.00000000000E+00  0.44339232389E+01  0.44350734253E+01  0.10100000000E+00 0.  1.
          3   -1    0    0  501    0  0.00000000000E+00 -0.00000000000E+00 -0.47827580195E+03  0.47827581262E+03  0.10100000000E+00 0. -1.
         23    2    1    2    0    0  0.00000000000E+00  0.00000000000E+00 -0.47384187871E+03  0.48271088604E+03  0.92106859032E+02 0.  0.
    9000005    2    3    3    0    0 -0.11883431868E+02  0.19960610854E+02 -0.44515385411E+03  0.44579686846E+03  0.57664683351E+01 0.  0.
         22    1    3    3    0    0  0.11883431868E+02 -0.19960610854E+02 -0.28688024598E+02  0.36914017581E+02  0.00000000000E+00 0.  1.
         22    1    4    4    0    0 -0.62091813788E+01  0.51395976801E+01 -0.14576442564E+03  0.14598711306E+03  0.00000000000E+00 0.  1.
         22    1    4    4    0    0 -0.56742504893E+01  0.14821013174E+02 -0.29938942848E+03  0.29980975540E+03  0.00000000000E+00 0.  1.
<mgrwt>
<rscale>  0 0.92106859E+02</rscale>
<asrwt>0</asrwt>
<pdfrwt beam="2">  1        3 0.73580941E-01 0.92106859E+02</pdfrwt>
<pdfrwt beam="1">  1       -3 0.68223171E-03 0.92106859E+02</pdfrwt>
<totfact> 0.17847248E+04</totfact>
</mgrwt>
</event>
<event>
 7    1  0.1247599E-009  0.9767838E+02  0.7818608E-02  0.1285255E+00
         -3   -1    0    0    0  501 -0.00000000000E+00  0.00000000000E+00  0.18615146814E+03  0.18615149554E+03  0.10100000000E+00 0.  1.
          3   -1    0    0  501    0  0.00000000000E+00 -0.00000000000E+00 -0.12813352264E+02  0.12813750319E+02  0.10100000000E+00 0. -1.
         23    2    1    2    0    0  0.00000000000E+00  0.00000000000E+00  0.17333811588E+03  0.19896524586E+03  0.97678383710E+02 0.  0.
    9000005    2    3    3    0    0  0.14958402318E+02  0.42061274089E+02  0.48985751452E+02  0.66842518383E+02  0.86841142617E+01 0.  0.
         22    1    3    3    0    0 -0.14958402318E+02 -0.42061274089E+02  0.12435236442E+03  0.13212272748E+03  0.00000000000E+00 0.  1.
         22    1    4    4    0    0  0.11031996154E+02  0.38880739396E+02  0.43979501035E+02  0.59729501475E+02  0.00000000000E+00 0. -1.
         22    1    4    4    0    0  0.39264061634E+01  0.31805346932E+01  0.50062504169E+01  0.71130169079E+01  0.00000000000E+00 0. -1.
<mgrwt>
<rscale>  0 0.97678384E+02</rscale>
<asrwt>0</asrwt>
<pdfrwt beam="2">  1        3 0.19713177E-02 0.97678384E+02</pdfrwt>
<pdfrwt beam="1">  1       -3 0.28638721E-01 0.97678384E+02</pdfrwt>
<totfact> 0.23685908E+04</totfact>
</mgrwt>
</event>
<event>
 7    1  0.1247599E-009  0.9328601E+02  0.7818608E-02  0.1295084E+00
         -3   -1    0    0    0  501 -0.00000000000E+00  0.00000000000E+00  0.13345404442E+03  0.13345408264E+03  0.10100000000E+00 0.  1.
          3   -1    0    0  501    0  0.00000000000E+00 -0.00000000000E+00 -0.16301818490E+02  0.16302131367E+02  0.10100000000E+00 0. -1.
         23    2    1    2    0    0  0.00000000000E+00  0.00000000000E+00  0.11715222593E+03  0.14975621400E+03  0.93286009631E+02 0.  0.
    9000005    2    3    3    0    0  0.28977583273E+02 -0.36373221146E+02  0.59359579808E+02  0.75576017897E+02  0.50461091239E+01 0.  0.
         22    1    3    3    0    0 -0.28977583273E+02  0.36373221146E+02  0.57792646117E+02  0.74180196105E+02  0.00000000000E+00 0. -1.
         22    1    4    4    0    0  0.85014982457E+01 -0.76727142113E+01  0.16377717005E+02  0.19984384656E+02  0.00000000000E+00 0. -1.
         22    1    4    4    0    0  0.20476085027E+02 -0.28700506935E+02  0.42981862803E+02  0.55591633241E+02  0.00000000000E+00 0. -1.
<mgrwt>
<rscale>  0 0.93286010E+02</rscale>
<asrwt>0</asrwt>
<pdfrwt beam="2">  1        3 0.25079990E-02 0.93286010E+02</pdfrwt>
<pdfrwt beam="1">  1       -3 0.20531419E-01 0.93286010E+02</pdfrwt>
<totfact> 0.29436755E+04</totfact>
</mgrwt>
</event>
<event>
 7    1  0.1247599E-009  0.8712320E+02  0.7818608E-02  0.1309972E+00
          3   -1    0    0  501    0  0.00000000000E+00  0.00000000000E+00  0.54350166148E+02  0.54350259993E+02  0.10100000000E+00 0. -1.
         -3   -1    0    0    0  501 -0.00000000000E+00 -0.00000000000E+00 -0.34914376586E+02  0.34914522671E+02  0.10100000000E+00 0.  1.
         23    2    1    2    0    0  0.35527136788E-14 -0.35527136788E-14  0.19435789562E+02  0.89264782664E+02  0.87123197302E+02 0.  0.
    9000005    2    3    3    0    0  0.29570110484E+02 -0.31331050421E+02  0.75436015506E+01  0.44571938827E+02  0.85863643045E+01 0.  0.
         22    1    3    3    0    0 -0.29570110484E+02  0.31331050421E+02  0.11892188011E+02  0.44692843837E+02  0.00000000000E+00 0.  1.
         22    1    4    4    0    0  0.24557464722E+02 -0.27311712020E+02  0.33102384295E+01  0.36877586221E+02  0.00000000000E+00 0. -1.
         22    1    4    4    0    0  0.50126457623E+01 -0.40193384011E+01  0.42333631211E+01  0.76943526066E+01  0.00000000000E+00 0. -1.
<mgrwt>
<rscale>  0 0.87123197E+02</rscale>
<asrwt>0</asrwt>
<pdfrwt beam="1">  1        3 0.83615824E-02 0.87123197E+02</pdfrwt>
<pdfrwt beam="2">  1       -3 0.53714611E-02 0.87123197E+02</pdfrwt>
<totfact> 0.40147709E+04</totfact>
</mgrwt>
</event>
<event>
 7    1  0.1247599E-009  0.8944643E+02  0.7818608E-02  0.1304198E+00
          3   -1    0    0  501    0  0.00000000000E+00  0.00000000000E+00  0.91304582770E+02  0.91304638632E+02  0.10100000000E+00 0. -1.
         -3   -1    0    0    0  501 -0.00000000000E+00 -0.00000000000E+00 -0.21906342638E+02  0.21906575469E+02  0.10100000000E+00 0.  1.
         23    2    1    2    0    0  0.00000000000E+00  0.00000000000E+00  0.69398240132E+02  0.11321121410E+03  0.89446426786E+02 0.  0.
    9000005    2    3    3    0    0 -0.43590473368E+02 -0.75828676032E+01  0.29266944000E+02  0.53477218933E+02  0.67549747716E+01 0.  0.
         22    1    3    3    0    0  0.43590473368E+02  0.75828676032E+01  0.40131296132E+02  0.59733995168E+02  0.00000000000E+00 0. -1.
         22    1    4    4    0    0 -0.43663731334E+02 -0.74377659882E+01  0.29482162153E+02  0.53207515278E+02  0.00000000000E+00 0.  1.
         22    1    4    4    0    0  0.73257965787E-01 -0.14510161505E+00 -0.21521815251E+00  0.26970365480E+00  0.00000000000E+00 0.  1.
<mgrwt>
<rscale>  0 0.89446427E+02</rscale>
<asrwt>0</asrwt>
<pdfrwt beam="1">  1        3 0.14046881E-01 0.89446427E+02</pdfrwt>
<pdfrwt beam="2">  1       -3 0.33702287E-02 0.89446427E+02</pdfrwt>
<totfact> 0.35514643E+04</totfact>
</mgrwt>
</event>
<event>
 7    1  0.1247599E-009  0.9293984E+02  0.7818608E-02  0.1295885E+00
          3   -1    0    0  501    0  0.00000000000E+00  0.00000000000E+00  0.34797154519E+02  0.34797301097E+02  0.10100000000E+00 0. -1.
         -3   -1    0    0    0  501 -0.00000000000E+00 -0.00000000000E+00 -0.62058016301E+02  0.62058098490E+02  0.10100000000E+00 0.  1.
         23    2    1    2    0    0  0.00000000000E+00 -0.71054273576E-14 -0.27260861781E+02  0.96855399587E+02  0.92939839918E+02 0.  0.
    9000005    2    3    3    0    0 -0.15702844704E+02 -0.41203008761E+02 -0.24961831395E+02  0.52701659049E+02  0.14494984550E+02 0.  0.
         22    1    3    3    0    0  0.15702844704E+02  0.41203008761E+02 -0.22990303859E+01  0.44153740538E+02  0.00000000000E+00 0. -1.
         22    1    4    4    0    0  0.17870003941E+01 -0.68286992031E+01 -0.60061403227E+00  0.70841541789E+01  0.00000000000E+00 0.  1.
         22    1    4    4    0    0 -0.17489845098E+02 -0.34374309558E+02 -0.24361217363E+02  0.45617504870E+02  0.00000000000E+00 0.  1.
<mgrwt>
<rscale>  0 0.92939840E+02</rscale>
<asrwt>0</asrwt>
<pdfrwt beam="1">  1        3 0.53534260E-02 0.92939840E+02</pdfrwt>
<pdfrwt beam="2">  1       -3 0.95474047E-02 0.92939840E+02</pdfrwt>
<totfact> 0.33128861E+04</totfact>
</mgrwt>
</event>
<event>
 7    1  0.1247599E-009  0.1085940E+03  0.7818608E-02  0.1263196E+00
          3   -1    0    0  501    0  0.00000000000E+00  0.00000000000E+00  0.67004091326E+01  0.67011703116E+01  0.10100000000E+00 0. -1.
         -3   -1    0    0    0  501 -0.00000000000E+00 -0.00000000000E+00 -0.43997182742E+03  0.43997183902E+03  0.10100000000E+00 0.  1.
         23    2    1    2    0    0 -0.71054273576E-14  0.35527136788E-14 -0.43327141829E+03  0.44667300933E+03  0.10859399318E+03 0.  0.
    9000005    2    3    3    0    0 -0.46473651040E+02  0.25848507979E+02 -0.22292438762E+03  0.22970799160E+03  0.15573477557E+02 0.  0.
         22    1    3    3    0    0  0.46473651040E+02 -0.25848507979E+02 -0.21034703067E+03  0.21696501773E+03  0.00000000000E+00 0. -1.
         22    1    4    4    0    0 -0.31611723604E+02  0.88486843927E+01 -0.13059236493E+03  0.13465498900E+03  0.00000000000E+00 0. -1.
         22    1    4    4    0    0 -0.14861927436E+02  0.16999823586E+02 -0.92332022686E+02  0.95053002595E+02  0.00000000000E+00 0. -1.
<mgrwt>
<rscale>  0 0.10859399E+03</rscale>
<asrwt>0</asrwt>
<pdfrwt beam="1">  1        3 0.10308920E-02 0.10859399E+03</pdfrwt>
<pdfrwt beam="2">  1       -3 0.67688010E-01 0.10859399E+03</pdfrwt>
<totfact> 0.12016176E+04</totfact>
</mgrwt>
</event>
<event>
 7    1  0.1247599E-009  0.9148939E+02  0.7818608E-02  0.1299284E+00
          3   -1    0    0  501    0  0.00000000000E+00  0.00000000000E+00  0.70746885825E+02  0.70746957920E+02  0.10100000000E+00 0. -1.
         -3   -1    0    0    0  501 -0.00000000000E+00 -0.00000000000E+00 -0.29578189975E+02  0.29578362416E+02  0.10100000000E+00 0.  1.
         23    2    1    2    0    0  0.88817841970E-15  0.00000000000E+00  0.41168695850E+02  0.10032532034E+03  0.91489389453E+02 0.  0.
    9000005    2    3    3    0    0  0.78597468590E+01 -0.12111489202E+02  0.68100962825E+02  0.69767002389E+02  0.46075691245E+01 0.  0.
         22    1    3    3    0    0 -0.78597468590E+01  0.12111489202E+02 -0.26932266975E+02  0.30558317947E+02  0.00000000000E+00 0.  1.
         22    1    4    4    0    0  0.17352526123E+01 -0.20785439735E+00  0.91186020050E+01  0.92845682508E+01  0.00000000000E+00 0.  1.
         22    1    4    4    0    0  0.61244942467E+01 -0.11903634805E+02  0.58982360820E+02  0.60482434138E+02  0.00000000000E+00 0.  1.
<mgrwt>
<rscale>  0 0.91489389E+02</rscale>
<asrwt>0</asrwt>
<pdfrwt beam="1">  1        3 0.10884155E-01 0.91489389E+02</pdfrwt>
<pdfrwt beam="2">  1       -3 0.45505096E-02 0.91489389E+02</pdfrwt>
<totfact> 0.34325098E+04</totfact>
</mgrwt>
</event>
<event>
 7    1  0.1247599E-009  0.9000074E+02  0.7818608E-02  0.1302850E+00
          3   -1    0    0  501    0  0.00000000000E+00  0.00000000000E+00  0.33135466624E+02  0.33135620552E+02  0.10100000000E+00 0. -1.
         -3   -1    0    0    0  501 -0.00000000000E+00 -0.00000000000E+00 -0.61113437720E+02  0.61113521180E+02  0.10100000000E+00 0.  1.
         23    2    1    2    0    0  0.00000000000E+00  0.00000000000E+00 -0.27977971097E+02  0.94249141732E+02  0.90000743611E+02 0.  0.
    9000005    2    3    3    0    0  0.15465736221E+02  0.25542169171E+02  0.20685738341E+02  0.37154938707E+02  0.78101406388E+01 0.  0.
         22    1    3    3    0    0 -0.15465736221E+02 -0.25542169171E+02 -0.48663709437E+02  0.57094203025E+02  0.00000000000E+00 0.  1.
         22    1    4    4    0    0  0.67217387795E+01  0.18141742588E+02  0.14118154788E+02  0.23950509201E+02  0.00000000000E+00 0. -1.
         22    1    4    4    0    0  0.87439974412E+01  0.74004265828E+01  0.65675835529E+01  0.13204429506E+02  0.00000000000E+00 0. -1.
<mgrwt>
<rscale>  0 0.90000744E+02</rscale>
<asrwt>0</asrwt>
<pdfrwt beam="1">  1        3 0.50977824E-02 0.90000744E+02</pdfrwt>
<pdfrwt beam="2">  1       -3 0.94020856E-02 0.90000744E+02</pdfrwt>
<totfact> 0.36365043E+04</totfact>
</mgrwt>
</event>
<event>
 7    1  0.1369675E-009  0.7601678E+02  0.7818608E-02  0.1340751E+00
          3   -1    0    0  501    0  0.00000000000E+00  0.00000000000E+00  0.20684225219E+02  0.20684471807E+02  0.10100000000E+00 0. -1.
         -3   -1    0    0    0  501 -0.00000000000E+00 -0.00000000000E+00 -0.69841790430E+02  0.69841863459E+02  0.10100000000E+00 0.  1.
         23    2    1    2    0    0 -0.88817841970E-15  0.00000000000E+00 -0.49157565210E+02  0.90526335266E+02  0.76016782090E+02 0.  0.
    9000005    2    3    3    0    0  0.53373239427E+01 -0.31529103604E+02 -0.46877479241E+02  0.58467480124E+02  0.14084628897E+02 0.  0.
         22    1    3    3    0    0 -0.53373239427E+01  0.31529103604E+02 -0.22800859696E+01  0.32058855142E+02  0.00000000000E+00 0. -1.
         22    1    4    4    0    0 -0.31379634561E+01 -0.14249986307E+02 -0.13186943062E+02  0.19667343280E+02  0.00000000000E+00 0.  1.
         22    1    4    4    0    0  0.84752873988E+01 -0.17279117298E+02 -0.33690536179E+02  0.38800136844E+02  0.00000000000E+00 0.  1.
<mgrwt>
<rscale>  0 0.76016782E+02</rscale>
<asrwt>0</asrwt>
<pdfrwt beam="1">  1        3 0.31822131E-02 0.76016782E+02</pdfrwt>
<pdfrwt beam="2">  1       -3 0.10744915E-01 0.76016782E+02</pdfrwt>
<totfact> 0.57751125E+04</totfact>
</mgrwt>
</event>
<event>
 7    1  0.1247599E-009  0.7419425E+02  0.7818608E-02  0.1346384E+00
         -3   -1    0    0    0  501 -0.00000000000E+00  0.00000000000E+00  0.50720731902E+03  0.50720732907E+03  0.10100000000E+00 0.  1.
          3   -1    0    0  501    0  0.00000000000E+00 -0.00000000000E+00 -0.27123324689E+01  0.27142123023E+01  0.10100000000E+00 0. -1.
         23    2    1    2    0    0  0.00000000000E+00 -0.35527136788E-14  0.50449498655E+03  0.50992154138E+03  0.74194251168E+02 0.  0.
    9000005    2    3    3    0    0  0.47645699125E+01  0.28477315466E+02  0.40930168473E+03  0.41044579894E+03  0.10209119444E+02 0.  0.
         22    1    3    3    0    0 -0.47645699125E+01 -0.28477315466E+02  0.95193301817E+02  0.99475742437E+02  0.00000000000E+00 0. -1.
         22    1    4    4    0    0  0.35842027763E+01  0.20796234770E+01  0.47453577913E+02  0.47634162112E+02  0.00000000000E+00 0.  1.
         22    1    4    4    0    0  0.11803671363E+01  0.26397691989E+02  0.36184810682E+03  0.36281163683E+03  0.00000000000E+00 0.  1.
<mgrwt>
<rscale>  0 0.74194251E+02</rscale>
<asrwt>0</asrwt>
<pdfrwt beam="2">  1        3 0.41742782E-03 0.74194251E+02</pdfrwt>
<pdfrwt beam="1">  1       -3 0.78031942E-01 0.74194251E+02</pdfrwt>
<totfact> 0.30386697E+04</totfact>
</mgrwt>
</event>
<event>
 7    1  0.1247599E-009  0.8946529E+02  0.7818608E-02  0.1304152E+00
          3   -1    0    0  501    0  0.00000000000E+00  0.00000000000E+00  0.44281830650E+01  0.44293347420E+01  0.10100000000E+00 0. -1.
         -3   -1    0    0    0  501 -0.00000000000E+00 -0.00000000000E+00 -0.45182062373E+03  0.45182063502E+03  0.10100000000E+00 0.  1.
         23    2    1    2    0    0 -0.17763568394E-14  0.17763568394E-14 -0.44739244067E+03  0.45624996976E+03  0.89465294626E+02 0.  0.
    9000005    2    3    3    0    0  0.94934303004E+01 -0.44033835299E+01 -0.44529481419E+03  0.44557687076E+03  0.11906351810E+02 0.  0.
         22    1    3    3    0    0 -0.94934303004E+01  0.44033835299E+01 -0.20976264806E+01  0.10673098999E+02  0.00000000000E+00 0. -1.
         22    1    4    4    0    0  0.58855485186E+01  0.36290984700E+01 -0.16785568183E+03  0.16799803558E+03  0.00000000000E+00 0. -1.
         22    1    4    4    0    0  0.36078817818E+01 -0.80324820000E+01 -0.27743913236E+03  0.27757883518E+03  0.00000000000E+00 0. -1.
<mgrwt>
<rscale>  0 0.89465295E+02</rscale>
<asrwt>0</asrwt>
<pdfrwt beam="1">  1        3 0.68134875E-03 0.89465295E+02</pdfrwt>
<pdfrwt beam="2">  1       -3 0.69510918E-01 0.89465295E+02</pdfrwt>
<totfact> 0.19987638E+04</totfact>
</mgrwt>
</event>
<event>
 7    1  0.1247599E-009  0.9170819E+02  0.7818608E-02  0.1298767E+00
          3   -1    0    0  501    0  0.00000000000E+00  0.00000000000E+00  0.11747734336E+03  0.11747738678E+03  0.10100000000E+00 0. -1.
         -3   -1    0    0    0  501 -0.00000000000E+00 -0.00000000000E+00 -0.17897713635E+02  0.17897998614E+02  0.10100000000E+00 0.  1.
         23    2    1    2    0    0  0.00000000000E+00  0.00000000000E+00  0.99579629729E+02  0.13537538539E+03  0.91708191095E+02 0.  0.
    9000005    2    3    3    0    0  0.24676558511E+02  0.18239489189E+02  0.15804197472E+01  0.32684311475E+02  0.11142485548E+02 0.  0.
         22    1    3    3    0    0 -0.24676558511E+02 -0.18239489189E+02  0.97999209982E+02  0.10269107392E+03  0.00000000000E+00 0. -1.
         22    1    4    4    0    0 -0.77098012885E+00  0.26427208243E+01 -0.35010501231E+00  0.27750598613E+01  0.00000000000E+00 0.  1.
         22    1    4    4    0    0  0.25447538639E+02  0.15596768365E+02  0.19305247595E+01  0.29909251613E+02  0.00000000000E+00 0.  1.
<mgrwt>
<rscale>  0 0.91708191E+02</rscale>
<asrwt>0</asrwt>
<pdfrwt beam="1">  1        3 0.18073462E-01 0.91708191E+02</pdfrwt>
<pdfrwt beam="2">  1       -3 0.27535198E-02 0.91708191E+02</pdfrwt>
<totfact> 0.31721064E+04</totfact>
</mgrwt>
</event>
<event>
 7    1  0.1247599E-009  0.9177731E+02  0.7818608E-02  0.1298604E+00
         -3   -1    0    0    0  501 -0.00000000000E+00  0.00000000000E+00  0.61942316768E+02  0.61942399111E+02  0.10100000000E+00 0.  1.
          3   -1    0    0  501    0  0.00000000000E+00 -0.00000000000E+00 -0.33995460693E+02  0.33995610727E+02  0.10100000000E+00 0. -1.
         23    2    1    2    0    0  0.00000000000E+00 -0.71054273576E-14  0.27946856076E+02  0.95938009838E+02  0.91777311832E+02 0.  0.
    9000005    2    3    3    0    0 -0.28740959721E+01  0.44508311710E+02  0.37665790994E+01  0.45204036668E+02  0.63219913056E+01 0.  0.
         22    1    3    3    0    0  0.28740959721E+01 -0.44508311710E+02  0.24180276976E+02  0.50733973170E+02  0.00000000000E+00 0. -1.
         22    1    4    4    0    0 -0.23841573417E+01  0.44464389246E+02  0.38870431674E+01  0.44697597495E+02  0.00000000000E+00 0. -1.
         22    1    4    4    0    0 -0.48993863040E+00  0.43922463909E-01 -0.12046406801E+00  0.50643917312E+00  0.00000000000E+00 0. -1.
<mgrwt>
<rscale>  0 0.91777312E+02</rscale>
<asrwt>0</asrwt>
<pdfrwt beam="2">  1        3 0.52300888E-02 0.91777312E+02</pdfrwt>
<pdfrwt beam="1">  1       -3 0.95296050E-02 0.91777312E+02</pdfrwt>
<totfact> 0.34355372E+04</totfact>
</mgrwt>
</event>
<event>
 7    1  0.1247599E-009  0.9412848E+02  0.7818608E-02  0.1293151E+00
         -3   -1    0    0    0  501 -0.00000000000E+00  0.00000000000E+00  0.24055371873E+02  0.24055583904E+02  0.10100000000E+00 0.  1.
          3   -1    0    0  501    0  0.00000000000E+00 -0.00000000000E+00 -0.92080353045E+02  0.92080408437E+02  0.10100000000E+00 0. -1.
         23    2    1    2    0    0 -0.66613381478E-15  0.00000000000E+00 -0.68024981172E+02  0.11613599234E+03  0.94128479502E+02 0.  0.
    9000005    2    3    3    0    0  0.18180484261E+01 -0.17960679553E+02 -0.86976717197E+02  0.89962348947E+02  0.14226158427E+02 0.  0.
         22    1    3    3    0    0 -0.18180484261E+01  0.17960679553E+02  0.18951736025E+02  0.26173643393E+02  0.00000000000E+00 0.  1.
         22    1    4    4    0    0  0.80762531918E+01 -0.10483129496E+02 -0.50148688641E+02  0.51865333721E+02  0.00000000000E+00 0.  1.
         22    1    4    4    0    0 -0.62582047657E+01 -0.74775500575E+01 -0.36828028557E+02  0.38097015226E+02  0.00000000000E+00 0.  1.
<mgrwt>
<rscale>  0 0.94128480E+02</rscale>
<asrwt>0</asrwt>
<pdfrwt beam="2">  1        3 0.14166229E-01 0.94128480E+02</pdfrwt>
<pdfrwt beam="1">  1       -3 0.37008471E-02 0.94128480E+02</pdfrwt>
<totfact> 0.30725005E+04</totfact>
</mgrwt>
</event>
<event>
 7    1  0.1247599E-009  0.9055579E+02  0.7818608E-02  0.1301511E+00
         -3   -1    0    0    0  501 -0.00000000000E+00  0.00000000000E+00  0.10178113005E+04  0.10178113055E+04  0.10100000000E+00 0.  1.
          3   -1    0    0  501    0  0.00000000000E+00 -0.00000000000E+00 -0.20129410993E+01  0.20154733611E+01  0.10100000000E+00 0. -1.
         23    2    1    2    0    0 -0.88817841970E-15  0.35527136788E-14  0.10157983594E+04  0.10198267789E+04  0.90555794648E+02 0.  0.
    9000005    2    3    3    0    0 -0.75949820162E+01  0.19117937504E+02  0.96160140611E+03  0.96185705374E+03  0.82793906327E+01 0.  0.
         22    1    3    3    0    0  0.75949820162E+01 -0.19117937504E+02  0.54196953323E+02  0.57969725165E+02  0.00000000000E+00 0. -1.
         22    1    4    4    0    0 -0.59391180776E+01  0.49594950428E+01  0.28180728379E+03  0.28191348835E+03  0.00000000000E+00 0.  1.
         22    1    4    4    0    0 -0.16558639386E+01  0.14158442461E+02  0.67979412232E+03  0.67994356539E+03  0.00000000000E+00 0.  1.
<mgrwt>
<rscale>  0 0.90555795E+02</rscale>
<asrwt>0</asrwt>
<pdfrwt beam="2">  1        3 0.30987711E-03 0.90555795E+02</pdfrwt>
<pdfrwt beam="1">  1       -3 0.15658721E+00 0.90555795E+02</pdfrwt>
<totfact> 0.99564192E+03</totfact>
</mgrwt>
</event>
<event>
 7    1  0.1247599E-009  0.9035074E+02  0.7818608E-02  0.1302005E+00
         -3   -1    0    0    0  501 -0.00000000000E+00  0.00000000000E+00  0.13483708845E+03  0.13483712628E+03  0.10100000000E+00 0.  1.
          3   -1    0    0  501    0  0.00000000000E+00 -0.00000000000E+00 -0.15135198742E+02  0.15135535734E+02  0.10100000000E+00 0. -1.
         23    2    1    2    0    0  0.00000000000E+00  0.88817841970E-15  0.11970188971E+03  0.14997266202E+03  0.90350744056E+02 0.  0.
    9000005    2    3    3    0    0  0.20398372703E+02 -0.40700530762E+01 -0.29550671351E+01  0.25564511142E+02  0.14565468313E+02 0.  0.
         22    1    3    3    0    0 -0.20398372703E+02  0.40700530762E+01  0.12265695685E+03  0.12440815087E+03  0.00000000000E+00 0.  1.
         22    1    4    4    0    0  0.17534809546E+02 -0.46284552316E+01 -0.79330484039E+01  0.19794580082E+02  0.00000000000E+00 0. -1.
         22    1    4    4    0    0  0.28635631567E+01  0.55840215542E+00  0.49779812688E+01  0.57699310596E+01  0.00000000000E+00 0. -1.
<mgrwt>
<rscale>  0 0.90350744E+02</rscale>
<asrwt>0</asrwt>
<pdfrwt beam="2">  1        3 0.23285210E-02 0.90350744E+02</pdfrwt>
<pdfrwt beam="1">  1       -3 0.20744196E-01 0.90350744E+02</pdfrwt>
<totfact> 0.32089792E+04</totfact>
</mgrwt>
</event>
<event>
 7    1  0.1247599E-009  0.9322217E+02  0.7818608E-02  0.1295231E+00
          3   -1    0    0  501    0  0.00000000000E+00  0.00000000000E+00  0.37664218075E+03  0.37664219430E+03  0.10100000000E+00 0. -1.
         -3   -1    0    0    0  501 -0.00000000000E+00 -0.00000000000E+00 -0.57678658155E+01  0.57687500436E+01  0.10100000000E+00 0.  1.
         23    2    1    2    0    0  0.00000000000E+00 -0.35527136788E-14  0.37087431494E+03  0.38241094434E+03  0.93222169411E+02 0.  0.
    9000005    2    3    3    0    0 -0.36930564268E+02  0.27136315099E+02  0.19717594590E+03  0.20276860640E+03  0.11683660594E+02 0.  0.
         22    1    3    3    0    0  0.36930564268E+02 -0.27136315099E+02  0.17369836904E+03  0.17964233794E+03  0.00000000000E+00 0. -1.
         22    1    4    4    0    0 -0.31453192576E+02  0.25727320363E+02  0.15597370894E+03  0.16118001184E+03  0.00000000000E+00 0.  1.
         22    1    4    4    0    0 -0.54773716928E+01  0.14089947364E+01  0.41202236966E+02  0.41588594564E+02  0.00000000000E+00 0.  1.
<mgrwt>
<rscale>  0 0.93222169E+02</rscale>
<asrwt>0</asrwt>
<pdfrwt beam="1">  1        3 0.57945018E-01 0.93222169E+02</pdfrwt>
<pdfrwt beam="2">  1       -3 0.88743306E-03 0.93222169E+02</pdfrwt>
<totfact> 0.19934457E+04</totfact>
</mgrwt>
</event>
<event>
 7    1  0.1247599E-009  0.8646700E+02  0.7818608E-02  0.1311640E+00
         -3   -1    0    0    0  501 -0.00000000000E+00  0.00000000000E+00  0.12609493021E+02  0.12609897511E+02  0.10100000000E+00 0.  1.
          3   -1    0    0  501    0  0.00000000000E+00 -0.00000000000E+00 -0.14822959938E+03  0.14822963379E+03  0.10100000000E+00 0. -1.
         23    2    1    2    0    0  0.00000000000E+00 -0.88817841970E-15 -0.13562010636E+03  0.16083953130E+03  0.86466997056E+02 0.  0.
    9000005    2    3    3    0    0  0.41728849017E+02  0.48157976703E+01 -0.55815341221E+02  0.70654780448E+02  0.10595137426E+02 0.  0.
         22    1    3    3    0    0 -0.41728849017E+02 -0.48157976703E+01 -0.79804765137E+02  0.90184750851E+02  0.00000000000E+00 0. -1.
         22    1    4    4    0    0  0.30309422871E+02 -0.11042169553E+01 -0.41620792627E+02  0.51499230953E+02  0.00000000000E+00 0. -1.
         22    1    4    4    0    0  0.11419426146E+02  0.59200146257E+01 -0.14194548595E+02  0.19155549495E+02  0.00000000000E+00 0. -1.
<mgrwt>
<rscale>  0 0.86466997E+02</rscale>
<asrwt>0</asrwt>
<pdfrwt beam="2">  1        3 0.22804586E-01 0.86466997E+02</pdfrwt>
<pdfrwt beam="1">  1       -3 0.19399559E-02 0.86466997E+02</pdfrwt>
<totfact> 0.35364599E+04</totfact>
</mgrwt>
</event>
<event>
 7    1  0.1247599E-009  0.9773264E+02  0.7818608E-02  0.1285137E+00
         -3   -1    0    0    0  501 -0.00000000000E+00  0.00000000000E+00  0.29020231863E+02  0.29020407620E+02  0.10100000000E+00 0.  1.
          3   -1    0    0  501    0  0.00000000000E+00 -0.00000000000E+00 -0.82284109634E+02  0.82284171620E+02  0.10100000000E+00 0. -1.
         23    2    1    2    0    0  0.00000000000E+00  0.88817841970E-15 -0.53263877771E+02  0.11130457924E+03  0.97732638789E+02 0.  0.
    9000005    2    3    3    0    0  0.41153922068E+02 -0.72676623144E+01  0.19980678448E+01  0.42020043806E+02  0.39022543800E+01 0.  0.
         22    1    3    3    0    0 -0.41153922068E+02  0.72676623144E+01 -0.55261945615E+02  0.69284535434E+02  0.00000000000E+00 0. -1.
         22    1    4    4    0    0  0.32344693181E+02 -0.41170405543E+01  0.19556433310E+01  0.32664257847E+02  0.00000000000E+00 0. -1.
         22    1    4    4    0    0  0.88092288873E+01 -0.31506217601E+01  0.42424513774E-01  0.93557859586E+01  0.00000000000E+00 0. -1.
<mgrwt>
<rscale>  0 0.97732639E+02</rscale>
<asrwt>0</asrwt>
<pdfrwt beam="2">  1        3 0.12659112E-01 0.97732639E+02</pdfrwt>
<pdfrwt beam="1">  1       -3 0.44646694E-02 0.97732639E+02</pdfrwt>
<totfact> 0.28001140E+04</totfact>
</mgrwt>
</event>
<event>
 7    1  0.1247599E-009  0.9320407E+02  0.7818608E-02  0.1295273E+00
          3   -1    0    0  501    0  0.00000000000E+00  0.00000000000E+00  0.41145281283E+02  0.41145405246E+02  0.10100000000E+00 0. -1.
         -3   -1    0    0    0  501 -0.00000000000E+00 -0.00000000000E+00 -0.52782215008E+02  0.52782311641E+02  0.10100000000E+00 0.  1.
         23    2    1    2    0    0 -0.35527136788E-14  0.00000000000E+00 -0.11636933725E+02  0.93927716887E+02  0.93204065218E+02 0.  0.
    9000005    2    3    3    0    0  0.21577696582E+02  0.65573244889E+01  0.34660033386E+02  0.42430098905E+02  0.95078853865E+01 0.  0.
         22    1    3    3    0    0 -0.21577696582E+02 -0.65573244889E+01 -0.46296967111E+02  0.51497617983E+02  0.00000000000E+00 0.  1.
         22    1    4    4    0    0  0.16957195704E+02  0.88852908318E+00  0.21761168431E+02  0.27602253922E+02  0.00000000000E+00 0. -1.
         22    1    4    4    0    0  0.46205008777E+01  0.56687954057E+01  0.12898864955E+02  0.14827844983E+02  0.00000000000E+00 0. -1.
<mgrwt>
<rscale>  0 0.93204065E+02</rscale>
<asrwt>0</asrwt>
<pdfrwt beam="1">  1        3 0.63300603E-02 0.93204065E+02</pdfrwt>
<pdfrwt beam="2">  1       -3 0.81203577E-02 0.93204065E+02</pdfrwt>
<totfact> 0.33080700E+04</totfact>
</mgrwt>
</event>
<event>
 7    1  0.1247599E-009  0.9116826E+02  0.7818608E-02  0.1300047E+00
         -3   -1    0    0    0  501 -0.00000000000E+00  0.00000000000E+00  0.17897963574E+03  0.17897966424E+03  0.10100000000E+00 0.  1.
          3   -1    0    0  501    0  0.00000000000E+00 -0.00000000000E+00 -0.11609523382E+02  0.11609962712E+02  0.10100000000E+00 0. -1.
         23    2    1    2    0    0 -0.35527136788E-14 -0.35527136788E-14  0.16737011236E+03  0.19058962695E+03  0.91168258676E+02 0.  0.
    9000005    2    3    3    0    0 -0.25006727473E+02 -0.24722976685E+02  0.14386661766E+03  0.14829333564E+03  0.75331085573E+01 0.  0.
         22    1    3    3    0    0  0.25006727473E+02  0.24722976685E+02  0.23503494695E+02  0.42296291303E+02  0.00000000000E+00 0. -1.
         22    1    4    4    0    0 -0.25508758959E+02 -0.24609725772E+02  0.14156204261E+03  0.14593199544E+03  0.00000000000E+00 0.  1.
         22    1    4    4    0    0  0.50203148664E+00 -0.11325091324E+00  0.23045750533E+01  0.23613402040E+01  0.00000000000E+00 0.  1.
<mgrwt>
<rscale>  0 0.91168259E+02</rscale>
<asrwt>0</asrwt>
<pdfrwt beam="2">  1        3 0.17861165E-02 0.91168259E+02</pdfrwt>
<pdfrwt beam="1">  1       -3 0.27535364E-01 0.91168259E+02</pdfrwt>
<totfact> 0.28999179E+04</totfact>
</mgrwt>
</event>
<event>
 7    1  0.1247599E-009  0.8981389E+02  0.7818608E-02  0.1303303E+00
         -3   -1    0    0    0  501 -0.00000000000E+00  0.00000000000E+00  0.12249013644E+02  0.12249430038E+02  0.10100000000E+00 0.  1.
          3   -1    0    0  501    0  0.00000000000E+00 -0.00000000000E+00 -0.16463320035E+03  0.16463323133E+03  0.10100000000E+00 0. -1.
         23    2    1    2    0    0 -0.35527136788E-14  0.00000000000E+00 -0.15238418670E+03  0.17688266136E+03  0.89813893884E+02 0.  0.
    9000005    2    3    3    0    0 -0.22270063380E+02 -0.13169928765E+02 -0.14745189047E+03  0.15054390109E+03  0.15874615179E+02 0.  0.
         22    1    3    3    0    0  0.22270063380E+02  0.13169928765E+02 -0.49322962366E+01  0.26338760274E+02  0.00000000000E+00 0.  1.
         22    1    4    4    0    0 -0.81865745986E+01 -0.13867576800E+02 -0.86029161595E+02  0.87523404497E+02  0.00000000000E+00 0.  1.
         22    1    4    4    0    0 -0.14083488781E+02  0.69764803470E+00 -0.61422728870E+02  0.63020496593E+02  0.00000000000E+00 0.  1.
<mgrwt>
<rscale>  0 0.89813894E+02</rscale>
<asrwt>0</asrwt>
<pdfrwt beam="2">  1        3 0.25328218E-01 0.89813894E+02</pdfrwt>
<pdfrwt beam="1">  1       -3 0.18844982E-02 0.89813894E+02</pdfrwt>
<totfact> 0.30971258E+04</totfact>
</mgrwt>
</event>
<event>
 7    1  0.1247599E-009  0.9200736E+02  0.7818608E-02  0.1298062E+00
          3   -1    0    0  501    0  0.00000000000E+00  0.00000000000E+00  0.40778021172E+01  0.40790527218E+01  0.10100000000E+00 0. -1.
         -3   -1    0    0    0  501 -0.00000000000E+00 -0.00000000000E+00 -0.51890917465E+03  0.51890918448E+03  0.10100000000E+00 0.  1.
         23    2    1    2    0    0  0.00000000000E+00  0.71054273576E-14 -0.51483137253E+03  0.52298823720E+03  0.92007358981E+02 0.  0.
    9000005    2    3    3    0    0  0.14607493396E+02  0.42971767660E+02 -0.28551520400E+03  0.28922370433E+03  0.84538600985E+01 0.  0.
         22    1    3    3    0    0 -0.14607493396E+02 -0.42971767660E+02 -0.22931616853E+03  0.23376453287E+03  0.00000000000E+00 0.  1.
         22    1    4    4    0    0 -0.97783188750E+00  0.39766787999E+01 -0.30559236786E+02  0.30832403124E+02  0.00000000000E+00 0. -1.
         22    1    4    4    0    0  0.15585325283E+02  0.38995088860E+02 -0.25495596721E+03  0.25839130120E+03  0.00000000000E+00 0. -1.
<mgrwt>
<rscale>  0 0.92007359E+02</rscale>
<asrwt>0</asrwt>
<pdfrwt beam="1">  1        3 0.62745154E-03 0.92007359E+02</pdfrwt>
<pdfrwt beam="2">  1       -3 0.79832225E-01 0.92007359E+02</pdfrwt>
<totfact> 0.16931800E+04</totfact>
</mgrwt>
</event>
<event>
 7    1  0.1247599E-009  0.9047317E+02  0.7818608E-02  0.1301710E+00
          3   -1    0    0  501    0  0.00000000000E+00  0.00000000000E+00  0.80823030547E+02  0.80823093654E+02  0.10100000000E+00 0. -1.
         -3   -1    0    0    0  501 -0.00000000000E+00 -0.00000000000E+00 -0.25318705121E+02  0.25318906572E+02  0.10100000000E+00 0.  1.
         23    2    1    2    0    0  0.00000000000E+00 -0.22204460493E-15  0.55504325426E+02  0.10614200023E+03  0.90473167685E+02 0.  0.
    9000005    2    3    3    0    0 -0.24394882543E+02  0.16275367483E+01 -0.16009220981E+02  0.30564579723E+02  0.89520504407E+01 0.  0.
         22    1    3    3    0    0  0.24394882543E+02 -0.16275367483E+01  0.71513546406E+02  0.75577420502E+02  0.00000000000E+00 0. -1.
         22    1    4    4    0    0 -0.13686016614E+02 -0.35539704736E+01 -0.86942706884E+01  0.16599039120E+02  0.00000000000E+00 0.  1.
         22    1    4    4    0    0 -0.10708865929E+02  0.51815072219E+01 -0.73149502923E+01  0.13965540603E+02  0.00000000000E+00 0.  1.
<mgrwt>
<rscale>  0 0.90473168E+02</rscale>
<asrwt>0</asrwt>
<pdfrwt beam="1">  1        3 0.12434333E-01 0.90473168E+02</pdfrwt>
<pdfrwt beam="2">  1       -3 0.38952057E-02 0.90473168E+02</pdfrwt>
<totfact> 0.34949155E+04</totfact>
</mgrwt>
</event>
<event>
 7    1  0.1247599E-009  0.9058891E+02  0.7818608E-02  0.1301432E+00
          3   -1    0    0  501    0  0.00000000000E+00  0.00000000000E+00  0.61951204597E+02  0.61951286928E+02  0.10100000000E+00 0. -1.
         -3   -1    0    0    0  501 -0.00000000000E+00 -0.00000000000E+00 -0.33116004481E+02  0.33116158500E+02  0.10100000000E+00 0.  1.
         23    2    1    2    0    0  0.35527136788E-14  0.00000000000E+00  0.28835200117E+02  0.95067445428E+02  0.90588908893E+02 0.  0.
    9000005    2    3    3    0    0  0.28450238473E+02 -0.21410696758E+02 -0.13250217229E+02  0.39940171252E+02  0.12321323720E+02 0.  0.
         22    1    3    3    0    0 -0.28450238473E+02  0.21410696758E+02  0.42085417346E+02  0.55127274176E+02  0.00000000000E+00 0. -1.
         22    1    4    4    0    0  0.10241746969E+02 -0.11488974778E+02 -0.11337014235E+02  0.19115904744E+02  0.00000000000E+00 0. -1.
         22    1    4    4    0    0  0.18208491504E+02 -0.99217219800E+01 -0.19132029945E+01  0.20824266508E+02  0.00000000000E+00 0. -1.
<mgrwt>
<rscale>  0 0.90588909E+02</rscale>
<asrwt>0</asrwt>
<pdfrwt beam="1">  1        3 0.95309726E-02 0.90588909E+02</pdfrwt>
<pdfrwt beam="2">  1       -3 0.50947882E-02 0.90588909E+02</pdfrwt>
<totfact> 0.35663048E+04</totfact>
</mgrwt>
</event>
<event>
 7    1  0.1247599E-009  0.9144151E+02  0.7818608E-02  0.1299398E+00
          3   -1    0    0  501    0  0.00000000000E+00  0.00000000000E+00  0.15559925253E+03  0.15559928531E+03  0.10100000000E+00 0. -1.
         -3   -1    0    0    0  501 -0.00000000000E+00 -0.00000000000E+00 -0.13434205678E+02  0.13434585337E+02  0.10100000000E+00 0.  1.
         23    2    1    2    0    0  0.00000000000E+00 -0.17763568394E-14  0.14216504685E+03  0.16903387064E+03  0.91441505233E+02 0.  0.
    9000005    2    3    3    0    0 -0.43870181406E+02 -0.11598217234E+02  0.69909436165E+02  0.83711044068E+02  0.78165321197E+01 0.  0.
         22    1    3    3    0    0  0.43870181406E+02  0.11598217234E+02  0.72255610685E+02  0.85322826577E+02  0.00000000000E+00 0. -1.
         22    1    4    4    0    0 -0.13842795499E+02  0.32783154262E-01  0.20699300453E+02  0.24901508011E+02  0.00000000000E+00 0.  1.
         22    1    4    4    0    0 -0.30027385907E+02 -0.11631000388E+02  0.49210135712E+02  0.58809536057E+02  0.00000000000E+00 0.  1.
<mgrwt>
<rscale>  0 0.91441505E+02</rscale>
<asrwt>0</asrwt>
<pdfrwt beam="1">  1        3 0.23938379E-01 0.91441505E+02</pdfrwt>
<pdfrwt beam="2">  1       -3 0.20668325E-02 0.91441505E+02</pdfrwt>
<totfact> 0.29945611E+04</totfact>
</mgrwt>
</event>
<event>
 7    1  0.1247599E-009  0.9189201E+02  0.7818608E-02  0.1298334E+00
         -3   -1    0    0    0  501 -0.00000000000E+00  0.00000000000E+00  0.26094063669E+02  0.26094259134E+02  0.10100000000E+00 0.  1.
          3   -1    0    0  501    0  0.00000000000E+00 -0.00000000000E+00 -0.80900448962E+02  0.80900512009E+02  0.10100000000E+00 0. -1.
         23    2    1    2    0    0  0.00000000000E+00  0.00000000000E+00 -0.54806385293E+02  0.10699477114E+03  0.91892008265E+02 0.  0.
    9000005    2    3    3    0    0 -0.18412453577E+02  0.25923920539E+02 -0.64862380992E+02  0.73645241126E+02  0.14332653963E+02 0.  0.
         22    1    3    3    0    0  0.18412453577E+02 -0.25923920539E+02  0.10055995699E+02  0.33349530017E+02  0.00000000000E+00 0.  1.
         22    1    4    4    0    0 -0.34949778512E+01  0.15434109043E+02 -0.38145494614E+02  0.41297764485E+02  0.00000000000E+00 0.  1.
         22    1    4    4    0    0 -0.14917475726E+02  0.10489811496E+02 -0.26716886379E+02  0.32347476641E+02  0.00000000000E+00 0.  1.
<mgrwt>
<rscale>  0 0.91892008E+02</rscale>
<asrwt>0</asrwt>
<pdfrwt beam="2">  1        3 0.12446243E-01 0.91892008E+02</pdfrwt>
<pdfrwt beam="1">  1       -3 0.40144913E-02 0.91892008E+02</pdfrwt>
<totfact> 0.33440435E+04</totfact>
</mgrwt>
</event>
<event>
 7    1  0.1247599E-009  0.8467491E+02  0.7818608E-02  0.1316285E+00
          3   -1    0    0  501    0  0.00000000000E+00  0.00000000000E+00  0.21608097984E+03  0.21608100345E+03  0.10100000000E+00 0. -1.
         -3   -1    0    0    0  501 -0.00000000000E+00 -0.00000000000E+00 -0.82949857312E+01  0.82956005980E+01  0.10100000000E+00 0.  1.
         23    2    1    2    0    0  0.00000000000E+00  0.00000000000E+00  0.20778599411E+03  0.22437660405E+03  0.84674914196E+02 0.  0.
    9000005    2    3    3    0    0 -0.20055213355E+02 -0.95585036519E+01  0.19910843298E+03  0.20052546902E+03  0.85275475000E+01 0.  0.
         22    1    3    3    0    0  0.20055213355E+02  0.95585036519E+01  0.86775611281E+01  0.23851135024E+02  0.00000000000E+00 0.  1.
         22    1    4    4    0    0 -0.12746698179E+02 -0.21340224736E+01  0.90438994058E+02  0.91357780252E+02  0.00000000000E+00 0.  1.
         22    1    4    4    0    0 -0.73085151761E+01 -0.74244811783E+01  0.10866943893E+03  0.10916768877E+03  0.00000000000E+00 0.  1.
<mgrwt>
<rscale>  0 0.84674914E+02</rscale>
<asrwt>0</asrwt>
<pdfrwt beam="1">  1        3 0.33243268E-01 0.84674914E+02</pdfrwt>
<pdfrwt beam="2">  1       -3 0.12762011E-02 0.84674914E+02</pdfrwt>
<totfact> 0.33266504E+04</totfact>
</mgrwt>
</event>
<event>
 7    1  0.1247599E-009  0.8783016E+02  0.7818608E-02  0.1308193E+00
         -3   -1    0    0    0  501 -0.00000000000E+00  0.00000000000E+00  0.66393674670E+03  0.66393675438E+03  0.10100000000E+00 0.  1.
          3   -1    0    0  501    0  0.00000000000E+00 -0.00000000000E+00 -0.29038100897E+01  0.29055660442E+01  0.10100000000E+00 0. -1.
         23    2    1    2    0    0  0.00000000000E+00  0.17763568394E-14  0.66103293661E+03  0.66684232042E+03  0.87830160128E+02 0.  0.
    9000005    2    3    3    0    0 -0.36884651265E+02 -0.14858739731E+02  0.45802092012E+03  0.45997246162E+03  0.14499742441E+02 0.  0.
         22    1    3    3    0    0  0.36884651265E+02  0.14858739731E+02  0.20301201648E+03  0.20686985881E+03  0.00000000000E+00 0. -1.
         22    1    4    4    0    0 -0.17349560853E+02 -0.47898300708E+01  0.13344259925E+03  0.13465094515E+03  0.00000000000E+00 0.  1.
         22    1    4    4    0    0 -0.19535090412E+02 -0.10068909660E+02  0.32457832087E+03  0.32532151647E+03  0.00000000000E+00 0.  1.
<mgrwt>
<rscale>  0 0.87830160E+02</rscale>
<asrwt>0</asrwt>
<pdfrwt beam="2">  1        3 0.44687590E-03 0.87830160E+02</pdfrwt>
<pdfrwt beam="1">  1       -3 0.10214420E+00 0.87830160E+02</pdfrwt>
<totfact> 0.15962373E+04</totfact>
</mgrwt>
</event>
<event>
 7    1  0.1247599E-009  0.9461704E+02  0.7818608E-02  0.1292041E+00
         -3   -1    0    0    0  501 -0.00000000000E+00  0.00000000000E+00  0.42607244152E+02  0.42607363862E+02  0.10100000000E+00 0.  1.
          3   -1    0    0  501    0  0.00000000000E+00 -0.00000000000E+00 -0.52528293545E+02  0.52528390645E+02  0.10100000000E+00 0. -1.
         23    2    1    2    0    0  0.00000000000E+00  0.35527136788E-14 -0.99210493928E+01  0.95135754507E+02  0.94617041618E+02 0.  0.
    9000005    2    3    3    0    0 -0.34555215353E+02 -0.31984568812E+02 -0.90496872473E+01  0.48041860825E+02  0.30079897089E+01 0.  0.
         22    1    3    3    0    0  0.34555215353E+02  0.31984568812E+02 -0.87136214546E+00  0.47093893682E+02  0.00000000000E+00 0.  1.
         22    1    4    4    0    0 -0.19542874568E+02 -0.19149818090E+02 -0.39668346861E+01  0.27647337244E+02  0.00000000000E+00 0. -1.
         22    1    4    4    0    0 -0.15012340785E+02 -0.12834750722E+02 -0.50828525612E+01  0.20394523581E+02  0.00000000000E+00 0. -1.
<mgrwt>
<rscale>  0 0.94617042E+02</rscale>
<asrwt>0</asrwt>
<pdfrwt beam="2">  1        3 0.80812926E-02 0.94617042E+02</pdfrwt>
<pdfrwt beam="1">  1       -3 0.65549773E-02 0.94617042E+02</pdfrwt>
<totfact> 0.31663072E+04</totfact>
</mgrwt>
</event>
<event>
 7    1  0.1247599E-009  0.8976087E+02  0.7818608E-02  0.1303432E+00
          3   -1    0    0  501    0  0.00000000000E+00  0.00000000000E+00  0.19277417395E+03  0.19277420041E+03  0.10100000000E+00 0. -1.
         -3   -1    0    0    0  501 -0.00000000000E+00 -0.00000000000E+00 -0.10448500654E+02  0.10448988799E+02  0.10100000000E+00 0.  1.
         23    2    1    2    0    0  0.00000000000E+00  0.00000000000E+00  0.18232567330E+03  0.20322318921E+03  0.89760868361E+02 0.  0.
    9000005    2    3    3    0    0 -0.28323181124E+02 -0.23951329811E+02  0.14699561602E+03  0.15199739750E+03  0.10937501085E+02 0.  0.
         22    1    3    3    0    0  0.28323181124E+02  0.23951329811E+02  0.35330057278E+02  0.51225791706E+02  0.00000000000E+00 0. -1.
         22    1    4    4    0    0 -0.28099760305E+01 -0.82150151751E+01  0.31369165531E+02  0.32548532774E+02  0.00000000000E+00 0.  1.
         22    1    4    4    0    0 -0.25513205093E+02 -0.15736314635E+02  0.11562645049E+03  0.11944886473E+03  0.00000000000E+00 0.  1.
<mgrwt>
<rscale>  0 0.89760868E+02</rscale>
<asrwt>0</asrwt>
<pdfrwt beam="1">  1        3 0.29657603E-01 0.89760868E+02</pdfrwt>
<pdfrwt beam="2">  1       -3 0.16075013E-02 0.89760868E+02</pdfrwt>
<totfact> 0.29551801E+04</totfact>
</mgrwt>
</event>
<event>
 7    1  0.1477275E-009  0.9827647E+02  0.7818608E-02  0.1283963E+00
         -3   -1    0    0    0  501 -0.00000000000E+00  0.00000000000E+00  0.34216983353E+02  0.34217132416E+02  0.10100000000E+00 0.  1.
          3   -1    0    0  501    0  0.00000000000E+00 -0.00000000000E+00 -0.70565969930E+02  0.70566042210E+02  0.10100000000E+00 0. -1.
         23    2    1    2    0    0  0.00000000000E+00  0.00000000000E+00 -0.36348986578E+02  0.10478317463E+03  0.98276471546E+02 0.  0.
    9000005    2    3    3    0    0  0.21017830187E+02 -0.23952016266E+01 -0.64748597666E+02  0.69370972116E+02  0.13132581469E+02 0.  0.
         22    1    3    3    0    0 -0.21017830187E+02  0.23952016266E+01  0.28399611088E+02  0.35412202510E+02  0.00000000000E+00 0.  1.
         22    1    4    4    0    0  0.13638495340E+02  0.17712896962E+01 -0.53776670524E+02  0.55507443779E+02  0.00000000000E+00 0.  1.
         22    1    4    4    0    0  0.73793348470E+01 -0.41664913228E+01 -0.10971927142E+02  0.13863528337E+02  0.00000000000E+00 0.  1.
<mgrwt>
<rscale>  0 0.98276472E+02</rscale>
<asrwt>0</asrwt>
<pdfrwt beam="2">  1        3 0.10856320E-01 0.98276472E+02</pdfrwt>
<pdfrwt beam="1">  1       -3 0.52641684E-02 0.98276472E+02</pdfrwt>
<totfact> 0.27954309E+04</totfact>
</mgrwt>
</event>
<event>
 7    1  0.1483624E-009  0.1035342E+03  0.7818608E-02  0.1273035E+00
          3   -1    0    0  501    0  0.00000000000E+00  0.00000000000E+00  0.15501724330E+03  0.15501727620E+03  0.10100000000E+00 0. -1.
         -3   -1    0    0    0  501 -0.00000000000E+00 -0.00000000000E+00 -0.17287123312E+02  0.17287418356E+02  0.10100000000E+00 0.  1.
         23    2    1    2    0    0  0.00000000000E+00  0.00000000000E+00  0.13773011998E+03  0.17230469456E+03  0.10353415772E+03 0.  0.
    9000005    2    3    3    0    0  0.35425200204E+02 -0.22499277988E+02  0.22225426758E+02  0.49412479681E+02  0.13655080890E+02 0.  0.
         22    1    3    3    0    0 -0.35425200204E+02  0.22499277988E+02  0.11550469323E+03  0.12289221487E+03  0.00000000000E+00 0. -1.
         22    1    4    4    0    0  0.14202440630E+02 -0.15853838706E+01  0.82604261301E+01  0.16506283704E+02  0.00000000000E+00 0. -1.
         22    1    4    4    0    0  0.21222759573E+02 -0.20913894118E+02  0.13965000628E+02  0.32906195976E+02  0.00000000000E+00 0. -1.
<mgrwt>
<rscale>  0 0.10353416E+03</rscale>
<asrwt>0</asrwt>
<pdfrwt beam="1">  1        3 0.23848832E-01 0.10353416E+03</pdfrwt>
<pdfrwt beam="2">  1       -3 0.26595826E-02 0.10353416E+03</pdfrwt>
<totfact> 0.21212012E+04</totfact>
</mgrwt>
</event>
<event>
 7    1  0.1247599E-009  0.7795418E+02  0.7818608E-02  0.1334959E+00
         -3   -1    0    0    0  501 -0.00000000000E+00  0.00000000000E+00  0.22705031564E+03  0.22705033811E+03  0.10100000000E+00 0.  1.
          3   -1    0    0  501    0  0.00000000000E+00 -0.00000000000E+00 -0.66906842219E+01  0.66914465071E+01  0.10100000000E+00 0. -1.
         23    2    1    2    0    0 -0.35527136788E-14  0.00000000000E+00  0.22035963142E+03  0.23374178461E+03  0.77954183433E+02 0.  0.
    9000005    2    3    3    0    0  0.29260001847E+02 -0.16250699237E+02  0.60244968048E+02  0.70166302464E+02  0.13176528090E+02 0.  0.
         22    1    3    3    0    0 -0.29260001847E+02  0.16250699237E+02  0.16011466337E+03  0.16357548215E+03  0.00000000000E+00 0.  1.
         22    1    4    4    0    0  0.19236295869E+02 -0.55556472589E+01  0.25247959357E+02  0.32223589914E+02  0.00000000000E+00 0. -1.
         22    1    4    4    0    0  0.10023705979E+02 -0.10695051978E+02  0.34997008691E+02  0.37942712550E+02  0.00000000000E+00 0. -1.
<mgrwt>
<rscale>  0 0.77954183E+02</rscale>
<asrwt>0</asrwt>
<pdfrwt beam="2">  1        3 0.10293965E-02 0.77954183E+02</pdfrwt>
<pdfrwt beam="1">  1       -3 0.34930874E-01 0.77954183E+02</pdfrwt>
<totfact> 0.40753864E+04</totfact>
</mgrwt>
</event>
<event>
 7    1  0.1247599E-009  0.8997398E+02  0.7818608E-02  0.1302915E+00
          3   -1    0    0  501    0  0.00000000000E+00  0.00000000000E+00  0.34102790206E+02  0.34102939769E+02  0.10100000000E+00 0. -1.
         -3   -1    0    0    0  501 -0.00000000000E+00 -0.00000000000E+00 -0.59344657307E+02  0.59344743254E+02  0.10100000000E+00 0.  1.
         23    2    1    2    0    0  0.00000000000E+00 -0.71054273576E-14 -0.25241867100E+02  0.93447683023E+02  0.89973982948E+02 0.  0.
    9000005    2    3    3    0    0 -0.30306646622E+02 -0.32553660531E+02 -0.15863209924E+02  0.47992288911E+02  0.85664883307E+01 0.  0.
         22    1    3    3    0    0  0.30306646622E+02  0.32553660531E+02 -0.93786571762E+01  0.45455394112E+02  0.00000000000E+00 0. -1.
         22    1    4    4    0    0 -0.23971595857E+01 -0.88800700592E+00  0.69804671483E+00  0.26499433461E+01  0.00000000000E+00 0. -1.
         22    1    4    4    0    0 -0.27909487036E+02 -0.31665653525E+02 -0.16561256639E+02  0.45342345564E+02  0.00000000000E+00 0. -1.
<mgrwt>
<rscale>  0 0.89973983E+02</rscale>
<asrwt>0</asrwt>
<pdfrwt beam="1">  1        3 0.52466012E-02 0.89973983E+02</pdfrwt>
<pdfrwt beam="2">  1       -3 0.91299654E-02 0.89973983E+02</pdfrwt>
<totfact> 0.36457994E+04</totfact>
</mgrwt>
</event>
<event>
 7    1  0.1247599E-009  0.9479395E+02  0.7818608E-02  0.1291641E+00
         -3   -1    0    0    0  501 -0.00000000000E+00  0.00000000000E+00  0.14726505032E+03  0.14726508496E+03  0.10100000000E+00 0.  1.
          3   -1    0    0  501    0  0.00000000000E+00 -0.00000000000E+00 -0.15254423517E+02  0.15254757875E+02  0.10100000000E+00 0. -1.
         23    2    1    2    0    0 -0.71054273576E-14 -0.17763568394E-14  0.13201062681E+03  0.16251984283E+03  0.94793954050E+02 0.  0.
    9000005    2    3    3    0    0 -0.45077805265E+02 -0.74673467828E+01  0.84567377811E+02  0.96651552504E+02  0.10105019358E+02 0.  0.
         22    1    3    3    0    0  0.45077805265E+02  0.74673467828E+01  0.47443248995E+02  0.65868290328E+02  0.00000000000E+00 0. -1.
         22    1    4    4    0    0 -0.34471125027E+02 -0.14339886890E+01  0.65064075940E+02  0.73645425942E+02  0.00000000000E+00 0. -1.
         22    1    4    4    0    0 -0.10606680238E+02 -0.60333580938E+01  0.19503301871E+02  0.23006126563E+02  0.00000000000E+00 0. -1.
<mgrwt>
<rscale>  0 0.94793954E+02</rscale>
<asrwt>0</asrwt>
<pdfrwt beam="2">  1        3 0.23468628E-02 0.94793954E+02</pdfrwt>
<pdfrwt beam="1">  1       -3 0.22656190E-01 0.94793954E+02</pdfrwt>
<totfact> 0.27495189E+04</totfact>
</mgrwt>
</event>
<event>
 7    1  0.1247599E-009  0.9031969E+02  0.7818608E-02  0.1302079E+00
         -3   -1    0    0    0  501 -0.00000000000E+00  0.00000000000E+00  0.12778008929E+03  0.12778012920E+03  0.10100000000E+00 0.  1.
          3   -1    0    0  501    0  0.00000000000E+00 -0.00000000000E+00 -0.15960122284E+02  0.15960441859E+02  0.10100000000E+00 0. -1.
         23    2    1    2    0    0  0.00000000000E+00  0.00000000000E+00  0.11181996700E+03  0.14374057106E+03  0.90319691920E+02 0.  0.
    9000005    2    3    3    0    0 -0.35866492268E+02  0.66103921363E+01  0.96771134513E+02  0.10428718197E+03  0.13455901885E+02 0.  0.
         22    1    3    3    0    0  0.35866492268E+02 -0.66103921363E+01  0.15048832489E+02  0.39453389095E+02  0.00000000000E+00 0. -1.
         22    1    4    4    0    0 -0.25867230418E+02 -0.41407848149E+00  0.55283252723E+02  0.61037063348E+02  0.00000000000E+00 0.  1.
         22    1    4    4    0    0 -0.99992618498E+01  0.70244706178E+01  0.41487881790E+02  0.43250118617E+02  0.00000000000E+00 0.  1.
<mgrwt>
<rscale>  0 0.90319692E+02</rscale>
<asrwt>0</asrwt>
<pdfrwt beam="2">  1        3 0.24554312E-02 0.90319692E+02</pdfrwt>
<pdfrwt beam="1">  1       -3 0.19658502E-01 0.90319692E+02</pdfrwt>
<totfact> 0.32515871E+04</totfact>
</mgrwt>
</event>
<event>
 7    1  0.1247599E-009  0.9166150E+02  0.7818608E-02  0.1298877E+00
          3   -1    0    0  501    0  0.00000000000E+00  0.00000000000E+00  0.17884505198E+03  0.17884508050E+03  0.10100000000E+00 0. -1.
         -3   -1    0    0    0  501 -0.00000000000E+00 -0.00000000000E+00 -0.11744319527E+02  0.11744753814E+02  0.10100000000E+00 0.  1.
         23    2    1    2    0    0  0.00000000000E+00  0.00000000000E+00  0.16710073245E+03  0.19058983431E+03  0.91661497682E+02 0.  0.
    9000005    2    3    3    0    0 -0.38528423550E+02 -0.22572595659E+02  0.94553746977E+02  0.10540165087E+03  0.13233874850E+02 0.  0.
         22    1    3    3    0    0  0.38528423550E+02  0.22572595659E+02  0.72546985476E+02  0.85188183439E+02  0.00000000000E+00 0. -1.
         22    1    4    4    0    0 -0.15245928953E+02 -0.88391042259E+01  0.23455106919E+02  0.29337862120E+02  0.00000000000E+00 0. -1.
         22    1    4    4    0    0 -0.23282494596E+02 -0.13733491434E+02  0.71098640058E+02  0.76063788755E+02  0.00000000000E+00 0. -1.
<mgrwt>
<rscale>  0 0.91661498E+02</rscale>
<asrwt>0</asrwt>
<pdfrwt beam="1">  1        3 0.27514656E-01 0.91661498E+02</pdfrwt>
<pdfrwt beam="2">  1       -3 0.18068542E-02 0.91661498E+02</pdfrwt>
<totfact> 0.28579800E+04</totfact>
</mgrwt>
</event>
<event>
 7    1  0.1247599E-009  0.1041637E+03  0.7818608E-02  0.1271776E+00
          3   -1    0    0  501    0  0.00000000000E+00  0.00000000000E+00  0.73140149864E+03  0.73140150561E+03  0.10100000000E+00 0. -1.
         -3   -1    0    0    0  501 -0.00000000000E+00 -0.00000000000E+00 -0.37079636876E+01  0.37093389853E+01  0.10100000000E+00 0.  1.
         23    2    1    2    0    0  0.00000000000E+00  0.00000000000E+00  0.72769353495E+03  0.73511084460E+03  0.10416368386E+03 0.  0.
    9000005    2    3    3    0    0 -0.23767018129E+02  0.10913368424E+02  0.68100286110E+03  0.68159456870E+03  0.11058322534E+02 0.  0.
         22    1    3    3    0    0  0.23767018129E+02 -0.10913368424E+02  0.46690673856E+02  0.53516275900E+02  0.00000000000E+00 0.  1.
         22    1    4    4    0    0 -0.15688638340E+02  0.12603982230E+02  0.47210402076E+03  0.47253275036E+03  0.00000000000E+00 0.  1.
         22    1    4    4    0    0 -0.80783797888E+01 -0.16906138057E+01  0.20889884033E+03  0.20906181834E+03  0.00000000000E+00 0.  1.
<mgrwt>
<rscale>  0 0.10416368E+03</rscale>
<asrwt>0</asrwt>
<pdfrwt beam="1">  1        3 0.11252340E+00 0.10416368E+03</pdfrwt>
<pdfrwt beam="2">  1       -3 0.57056234E-03 0.10416368E+03</pdfrwt>
<totfact> 0.93493960E+03</totfact>
</mgrwt>
</event>
<event>
 7    1  0.1247599E-009  0.8933591E+02  0.7818608E-02  0.1304468E+00
         -3   -1    0    0    0  501 -0.00000000000E+00  0.00000000000E+00  0.21680402084E+02  0.21680637341E+02  0.10100000000E+00 0. -1.
          3   -1    0    0  501    0  0.00000000000E+00 -0.00000000000E+00 -0.92028260503E+02  0.92028315927E+02  0.10100000000E+00 0.  1.
         23    2    1    2    0    0  0.00000000000E+00  0.00000000000E+00 -0.70347858420E+02  0.11370895327E+03  0.89335910299E+02 0.  0.
    9000005    2    3    3    0    0  0.20279329321E+02 -0.30827471150E+02 -0.66731283644E+02  0.76632494587E+02  0.76086026755E+01 0.  0.
         22    1    3    3    0    0 -0.20279329321E+02  0.30827471150E+02 -0.36165747761E+01  0.37076458681E+02  0.00000000000E+00 0. -1.
         22    1    4    4    0    0  0.18335749652E+02 -0.30520986912E+02 -0.64349486249E+02  0.73543094427E+02  0.00000000000E+00 0.  1.
         22    1    4    4    0    0  0.19435796693E+01 -0.30648423768E+00 -0.23817973946E+01  0.30894001599E+01  0.00000000000E+00 0.  1.
<mgrwt>
<rscale>  0 0.89335910E+02</rscale>
<asrwt>0</asrwt>
<pdfrwt beam="2">  1        3 0.14158216E-01 0.89335910E+02</pdfrwt>
<pdfrwt beam="1">  1       -3 0.33354689E-02 0.89335910E+02</pdfrwt>
<totfact> 0.35596632E+04</totfact>
</mgrwt>
</event>
<event>
 7    1  0.1247599E-009  0.9115215E+02  0.7818608E-02  0.1300085E+00
          3   -1    0    0  501    0  0.00000000000E+00  0.00000000000E+00  0.45880806577E+02  0.45880917746E+02  0.10100000000E+00 0. -1.
         -3   -1    0    0    0  501 -0.00000000000E+00 -0.00000000000E+00 -0.45273149543E+02  0.45273262203E+02  0.10100000000E+00 0.  1.
         23    2    1    2    0    0 -0.55511151231E-16  0.00000000000E+00  0.60765703492E+00  0.91154179949E+02  0.91152154528E+02 0.  0.
    9000005    2    3    3    0    0  0.32951763350E+00 -0.42256902404E+02 -0.16042305695E+02  0.45734188298E+02  0.69646266613E+01 0.  0.
         22    1    3    3    0    0 -0.32951763350E+00  0.42256902404E+02  0.16649962730E+02  0.45419991651E+02  0.00000000000E+00 0. -1.
         22    1    4    4    0    0 -0.15912071636E+01 -0.26963676737E+02 -0.13190203563E+02  0.30059162886E+02  0.00000000000E+00 0. -1.
         22    1    4    4    0    0  0.19207247971E+01 -0.15293225668E+02 -0.28521021325E+01  0.15675025411E+02  0.00000000000E+00 0. -1.
<mgrwt>
<rscale>  0 0.91152155E+02</rscale>
<asrwt>0</asrwt>
<pdfrwt beam="1">  1        3 0.70586028E-02 0.91152155E+02</pdfrwt>
<pdfrwt beam="2">  1       -3 0.69651172E-02 0.91152155E+02</pdfrwt>
<totfact> 0.35366417E+04</totfact>
</mgrwt>
</event>
<event>
 7    1  0.1247599E-009  0.9263922E+02  0.7818608E-02  0.1296583E+00
          3   -1    0    0  501    0  0.00000000000E+00  0.00000000000E+00  0.64030504909E+02  0.64030584566E+02  0.10100000000E+00 0. -1.
         -3   -1    0    0    0  501 -0.00000000000E+00 -0.00000000000E+00 -0.33507390910E+02  0.33507543130E+02  0.10100000000E+00 0.  1.
         23    2    1    2    0    0  0.00000000000E+00 -0.35527136788E-14  0.30523113999E+02  0.97538127696E+02  0.92639224232E+02 0.  0.
    9000005    2    3    3    0    0  0.34835947783E+02  0.19993153201E+02  0.38492785682E+02  0.56589561181E+02  0.10364094376E+02 0.  0.
         22    1    3    3    0    0 -0.34835947783E+02 -0.19993153201E+02 -0.79696716834E+01  0.40948566515E+02  0.00000000000E+00 0. -1.
         22    1    4    4    0    0  0.94539467759E+01  0.76893759863E+01  0.60696535077E+01  0.13614121580E+02  0.00000000000E+00 0. -1.
         22    1    4    4    0    0  0.25382001008E+02  0.12303777215E+02  0.32423132174E+02  0.42975439601E+02  0.00000000000E+00 0. -1.
<mgrwt>
<rscale>  0 0.92639224E+02</rscale>
<asrwt>0</asrwt>
<pdfrwt beam="1">  1        3 0.98508648E-02 0.92639224E+02</pdfrwt>
<pdfrwt beam="2">  1       -3 0.51550011E-02 0.92639224E+02</pdfrwt>
<totfact> 0.33373352E+04</totfact>
</mgrwt>
</event>
<event>
 7    1  0.1247599E-009  0.9076717E+02  0.7818608E-02  0.1301004E+00
         -3   -1    0    0    0  501 -0.00000000000E+00  0.00000000000E+00  0.44988888028E+03  0.44988889161E+03  0.10100000000E+00 0.  1.
          3   -1    0    0  501    0  0.00000000000E+00 -0.00000000000E+00 -0.45776060431E+01  0.45787201362E+01  0.10100000000E+00 0. -1.
         23    2    1    2    0    0  0.00000000000E+00  0.17763568394E-14  0.44531127423E+03  0.45446761175E+03  0.90767170113E+02 0.  0.
    9000005    2    3    3    0    0  0.24119080110E+02  0.12335213555E+02  0.40403380614E+03  0.40509437112E+03  0.11146545849E+02 0.  0.
         22    1    3    3    0    0 -0.24119080110E+02 -0.12335213555E+02  0.41277468090E+02  0.49373240634E+02  0.00000000000E+00 0. -1.
         22    1    4    4    0    0  0.16601237474E+02  0.23404896564E+01  0.23913027988E+03  0.23971727041E+03  0.00000000000E+00 0.  1.
         22    1    4    4    0    0  0.75178426359E+01  0.99947238987E+01  0.16490352626E+03  0.16537710070E+03  0.00000000000E+00 0.  1.
<mgrwt>
<rscale>  0 0.90767170E+02</rscale>
<asrwt>0</asrwt>
<pdfrwt beam="2">  1        3 0.70433359E-03 0.90767170E+02</pdfrwt>
<pdfrwt beam="1">  1       -3 0.69213767E-01 0.90767170E+02</pdfrwt>
<totfact> 0.19281185E+04</totfact>
</mgrwt>
</event>
<event>
 7    1  0.1247599E-009  0.9136522E+02  0.7818608E-02  0.1299579E+00
          3   -1    0    0  501    0  0.00000000000E+00  0.00000000000E+00  0.22279854049E+03  0.22279856339E+03  0.10100000000E+00 0. -1.
         -3   -1    0    0    0  501 -0.00000000000E+00 -0.00000000000E+00 -0.93664651993E+01  0.93670097325E+01  0.10100000000E+00 0.  1.
         23    2    1    2    0    0  0.71054273576E-14  0.00000000000E+00  0.21343207530E+03  0.23216557312E+03  0.91365215357E+02 0.  0.
    9000005    2    3    3    0    0 -0.28728830388E+02  0.23182515179E+02  0.42040225209E+02  0.56843181563E+02  0.10049480039E+02 0.  0.
         22    1    3    3    0    0  0.28728830388E+02 -0.23182515179E+02  0.17139185009E+03  0.17532239156E+03  0.00000000000E+00 0. -1.
         22    1    4    4    0    0 -0.17402919221E+02  0.17056251722E+02  0.33368973909E+02  0.41319072351E+02  0.00000000000E+00 0. -1.
         22    1    4    4    0    0 -0.11325911166E+02  0.61262634568E+01  0.86712513003E+01  0.15524109211E+02  0.00000000000E+00 0. -1.
<mgrwt>
<rscale>  0 0.91365215E+02</rscale>
<asrwt>0</asrwt>
<pdfrwt beam="1">  1        3 0.34276748E-01 0.91365215E+02</pdfrwt>
<pdfrwt beam="2">  1       -3 0.14410381E-02 0.91365215E+02</pdfrwt>
<totfact> 0.26767383E+04</totfact>
</mgrwt>
</event>
<event>
 7    1  0.1247599E-009  0.9457276E+02  0.7818608E-02  0.1292141E+00
          3   -1    0    0  501    0  0.00000000000E+00  0.00000000000E+00  0.76708280917E+02  0.76708347409E+02  0.10100000000E+00 0. -1.
         -3   -1    0    0    0  501 -0.00000000000E+00 -0.00000000000E+00 -0.29149250962E+02  0.29149425941E+02  0.10100000000E+00 0.  1.
         23    2    1    2    0    0  0.00000000000E+00  0.00000000000E+00  0.47559029955E+02  0.10585777335E+03  0.94572759547E+02 0.  0.
    9000005    2    3    3    0    0  0.20708028561E+02  0.34116791217E+02  0.51206247751E+02  0.65781844322E+02  0.10601572702E+02 0.  0.
         22    1    3    3    0    0 -0.20708028561E+02 -0.34116791217E+02 -0.36472177967E+01  0.40075929028E+02  0.00000000000E+00 0.  1.
         22    1    4    4    0    0  0.14076896661E+02  0.30492240781E+02  0.39493413583E+02  0.51842699427E+02  0.00000000000E+00 0. -1.
         22    1    4    4    0    0  0.66311318997E+01  0.36245504360E+01  0.11712834168E+02  0.13939144895E+02  0.00000000000E+00 0. -1.
<mgrwt>
<rscale>  0 0.94572760E+02</rscale>
<asrwt>0</asrwt>
<pdfrwt beam="1">  1        3 0.11801292E-01 0.94572760E+02</pdfrwt>
<pdfrwt beam="2">  1       -3 0.44845188E-02 0.94572760E+02</pdfrwt>
<totfact> 0.30988774E+04</totfact>
</mgrwt>
</event>
<event>
 7    1  0.1247599E-009  0.9836919E+02  0.7818608E-02  0.1283763E+00
          3   -1    0    0  501    0  0.00000000000E+00  0.00000000000E+00  0.77730682118E+01  0.77737243600E+01  0.10100000000E+00 0. -1.
         -3   -1    0    0    0  501 -0.00000000000E+00 -0.00000000000E+00 -0.31120494458E+03  0.31120496097E+03  0.10100000000E+00 0.  1.
         23    2    1    2    0    0 -0.28622937354E-15  0.00000000000E+00 -0.30343187637E+03  0.31897868533E+03  0.98369192830E+02 0.  0.
    9000005    2    3    3    0    0 -0.67407016523E-02 -0.43031082849E+02 -0.22396792940E+03  0.22861169465E+03  0.15811369162E+02 0.  0.
         22    1    3    3    0    0  0.67407016523E-02  0.43031082849E+02 -0.79463946968E+02  0.90366990679E+02  0.00000000000E+00 0. -1.
         22    1    4    4    0    0 -0.69251337419E+01 -0.15064514468E+02 -0.97878711927E+02  0.99273054360E+02  0.00000000000E+00 0. -1.
         22    1    4    4    0    0  0.69183930402E+01 -0.27966568381E+02 -0.12608921747E+03  0.12933864029E+03  0.00000000000E+00 0. -1.
<mgrwt>
<rscale>  0 0.98369193E+02</rscale>
<asrwt>0</asrwt>
<pdfrwt beam="1">  1        3 0.11959086E-02 0.98369193E+02</pdfrwt>
<pdfrwt beam="2">  1       -3 0.47877726E-01 0.98369193E+02</pdfrwt>
<totfact> 0.18991270E+04</totfact>
</mgrwt>
</event>
<event>
 7    1  0.1247599E-009  0.8933913E+02  0.7818608E-02  0.1304460E+00
          3   -1    0    0  501    0  0.00000000000E+00  0.00000000000E+00  0.54421476147E+02  0.54421569869E+02  0.10100000000E+00 0. -1.
         -3   -1    0    0    0  501 -0.00000000000E+00 -0.00000000000E+00 -0.36664927016E+02  0.36665066127E+02  0.10100000000E+00 0.  1.
         23    2    1    2    0    0  0.00000000000E+00  0.00000000000E+00  0.17756549131E+02  0.91086635996E+02  0.89339130397E+02 0.  0.
    9000005    2    3    3    0    0  0.32160289327E+01 -0.37167792308E+02  0.33756396521E+02  0.50493745687E+02  0.42821046619E+01 0.  0.
         22    1    3    3    0    0 -0.32160289327E+01  0.37167792308E+02 -0.15999847390E+02  0.40592890309E+02  0.00000000000E+00 0.  1.
         22    1    4    4    0    0  0.40403397317E+01 -0.30779626094E+02  0.29053843136E+02  0.42518649186E+02  0.00000000000E+00 0. -1.
         22    1    4    4    0    0 -0.82431079897E+00 -0.63881662133E+01  0.47025533846E+01  0.79750965008E+01  0.00000000000E+00 0. -1.
<mgrwt>
<rscale>  0 0.89339130E+02</rscale>
<asrwt>0</asrwt>
<pdfrwt beam="1">  1        3 0.83725527E-02 0.89339130E+02</pdfrwt>
<pdfrwt beam="2">  1       -3 0.56407759E-02 0.89339130E+02</pdfrwt>
<totfact> 0.37356339E+04</totfact>
</mgrwt>
</event>
<event>
 6    1  0.1247599E-009  0.1289420E+03  0.7818608E-02  0.1229034E+00
         -3   -1    0    0    0  501 -0.00000000000E+00  0.00000000000E+00  0.67521644967E+03  0.67521645722E+03  0.10100000000E+00 0.  1.
          3   -1    0    0  501    0  0.00000000000E+00 -0.00000000000E+00 -0.61553944842E+01  0.61562230512E+01  0.10100000000E+00 0. -1.
    9000005    2    1    2    0    0 -0.55665998007E+02  0.32379562932E+02  0.34513826245E+03  0.35111048885E+03  0.33189976178E+01 0.  0.
         22    1    1    2    0    0  0.55665998007E+02 -0.32379562932E+02  0.32392279274E+03  0.33026219143E+03  0.00000000000E+00 0. -1.
         22    1    3    3    0    0 -0.55283069660E+02  0.31834134549E+02  0.34241656367E+03  0.34830838777E+03  0.00000000000E+00 0.  1.
         22    1    3    3    0    0 -0.38292834689E+00  0.54542838326E+00  0.27216987774E+01  0.28021010823E+01  0.00000000000E+00 0.  1.
<mgrwt>
<rscale>  0 0.12894198E+03</rscale>
<asrwt>0</asrwt>
<pdfrwt beam="2">  1        3 0.94704816E-03 0.12894198E+03</pdfrwt>
<pdfrwt beam="1">  1       -3 0.10387951E+00 0.12894198E+03</pdfrwt>
<totfact> 0.55454074E+03</totfact>
</mgrwt>
</event>
<event>
 7    1  0.1247599E-009  0.9186862E+02  0.7818608E-02  0.1298389E+00
          3   -1    0    0  501    0  0.00000000000E+00  0.00000000000E+00  0.65549285534E+02  0.65549363346E+02  0.10100000000E+00 0. -1.
         -3   -1    0    0    0  501 -0.00000000000E+00 -0.00000000000E+00 -0.32188744835E+02  0.32188903291E+02  0.10100000000E+00 0.  1.
         23    2    1    2    0    0  0.00000000000E+00  0.00000000000E+00  0.33360540699E+02  0.97738266636E+02  0.91868618632E+02 0.  0.
    9000005    2    3    3    0    0 -0.59421757421E+01  0.21259065591E+02 -0.26129032481E+02  0.34285397202E+02  0.23462311292E+01 0.  0.
         22    1    3    3    0    0  0.59421757421E+01 -0.21259065591E+02  0.59489573180E+02  0.63452869435E+02  0.00000000000E+00 0. -1.
         22    1    4    4    0    0 -0.21456469735E+01  0.86617331089E+01 -0.88553895645E+01  0.12571688261E+02  0.00000000000E+00 0.  1.
         22    1    4    4    0    0 -0.37965287686E+01  0.12597332482E+02 -0.17273642917E+02  0.21713708941E+02  0.00000000000E+00 0.  1.
<mgrwt>
<rscale>  0 0.91868619E+02</rscale>
<asrwt>0</asrwt>
<pdfrwt beam="1">  1        3 0.10084524E-01 0.91868619E+02</pdfrwt>
<pdfrwt beam="2">  1       -3 0.49521328E-02 0.91868619E+02</pdfrwt>
<totfact> 0.34128516E+04</totfact>
</mgrwt>
</event>
<event>
 7    1  0.1247599E-009  0.9229461E+02  0.7818608E-02  0.1297388E+00
          3   -1    0    0  501    0  0.00000000000E+00  0.00000000000E+00  0.18120882660E+02  0.18121164128E+02  0.10100000000E+00 0. -1.
         -3   -1    0    0    0  501 -0.00000000000E+00 -0.00000000000E+00 -0.11751920193E+03  0.11751924533E+03  0.10100000000E+00 0.  1.
         23    2    1    2    0    0  0.00000000000E+00  0.00000000000E+00 -0.99398319269E+02  0.13564040946E+03  0.92294608751E+02 0.  0.
    9000005    2    3    3    0    0 -0.35795826875E+02 -0.14531660959E+02 -0.13962177084E+02  0.41875571788E+02  0.81308506130E+01 0.  0.
         22    1    3    3    0    0  0.35795826875E+02  0.14531660959E+02 -0.85436142185E+02  0.93764837671E+02  0.00000000000E+00 0.  1.
         22    1    4    4    0    0 -0.87098475203E+01 -0.69776779640E+01 -0.20985367768E+01  0.11355760221E+02  0.00000000000E+00 0.  1.
         22    1    4    4    0    0 -0.27085979355E+02 -0.75539829952E+01 -0.11863640307E+02  0.30519811567E+02  0.00000000000E+00 0.  1.
<mgrwt>
<rscale>  0 0.92294609E+02</rscale>
<asrwt>0</asrwt>
<pdfrwt beam="1">  1        3 0.27878532E-02 0.92294609E+02</pdfrwt>
<pdfrwt beam="2">  1       -3 0.18079902E-01 0.92294609E+02</pdfrwt>
<totfact> 0.31161082E+04</totfact>
</mgrwt>
</event>
<event>
 7    1  0.1247599E-009  0.1010394E+03  0.7818608E-02  0.1278125E+00
          3   -1    0    0  501    0  0.00000000000E+00  0.00000000000E+00  0.29639476704E+03  0.29639478425E+03  0.10100000000E+00 0. -1.
         -3   -1    0    0    0  501 -0.00000000000E+00 -0.00000000000E+00 -0.86106429548E+01  0.86112352828E+01  0.10100000000E+00 0.  1.
         23    2    1    2    0    0  0.00000000000E+00  0.00000000000E+00  0.28778412409E+03  0.30500601953E+03  0.10103944712E+03 0.  0.
    9000005    2    3    3    0    0 -0.43882484035E+02  0.24198254844E+02  0.15355293247E+03  0.16172573218E+03  0.80920599810E+01 0.  0.
         22    1    3    3    0    0  0.43882484035E+02 -0.24198254844E+02  0.13423119161E+03  0.14328028736E+03  0.00000000000E+00 0. -1.
         22    1    4    4    0    0 -0.25114505558E+02  0.16029428112E+02  0.10185640641E+03  0.10612449520E+03  0.00000000000E+00 0. -1.
         22    1    4    4    0    0 -0.18767978477E+02  0.81688267322E+01  0.51696526065E+02  0.55601236978E+02  0.00000000000E+00 0. -1.
<mgrwt>
<rscale>  0 0.10103945E+03</rscale>
<asrwt>0</asrwt>
<pdfrwt beam="1">  1        3 0.45599241E-01 0.10103945E+03</pdfrwt>
<pdfrwt beam="2">  1       -3 0.13247612E-02 0.10103945E+03</pdfrwt>
<totfact> 0.18062296E+04</totfact>
</mgrwt>
</event>
<event>
 7    1  0.1247599E-009  0.9083858E+02  0.7818608E-02  0.1300834E+00
         -3   -1    0    0    0  501 -0.00000000000E+00  0.00000000000E+00  0.49064439041E+02  0.49064542996E+02  0.10100000000E+00 0.  1.
          3   -1    0    0  501    0  0.00000000000E+00 -0.00000000000E+00 -0.42044742968E+02  0.42044864279E+02  0.10100000000E+00 0. -1.
         23    2    1    2    0    0 -0.71054273576E-14  0.35527136788E-14  0.70196960734E+01  0.91109407275E+02  0.90838581897E+02 0.  0.
    9000005    2    3    3    0    0 -0.34902993465E+02 -0.25940273888E+02 -0.51166289810E+01  0.45960684723E+02  0.13967386509E+02 0.  0.
         22    1    3    3    0    0  0.34902993465E+02  0.25940273888E+02  0.12136325054E+02  0.45148722552E+02  0.00000000000E+00 0.  1.
         22    1    4    4    0    0 -0.31311984908E+02 -0.26567381575E+02 -0.73050716614E+01  0.41708874771E+02  0.00000000000E+00 0. -1.
         22    1    4    4    0    0 -0.35910085570E+01  0.62710768729E+00  0.21884426804E+01  0.42518099527E+01  0.00000000000E+00 0. -1.
<mgrwt>
<rscale>  0 0.90838582E+02</rscale>
<asrwt>0</asrwt>
<pdfrwt beam="2">  1        3 0.64684394E-02 0.90838582E+02</pdfrwt>
<pdfrwt beam="1">  1       -3 0.75483925E-02 0.90838582E+02</pdfrwt>
<totfact> 0.35703716E+04</totfact>
</mgrwt>
</event>
<event>
 7    1  0.1247599E-009  0.8979367E+02  0.7818608E-02  0.1303352E+00
         -3   -1    0    0    0  501 -0.00000000000E+00  0.00000000000E+00  0.50048126973E+02  0.50048228885E+02  0.10100000000E+00 0.  1.
          3   -1    0    0  501    0  0.00000000000E+00 -0.00000000000E+00 -0.40275540657E+02  0.40275667297E+02  0.10100000000E+00 0. -1.
         23    2    1    2    0    0  0.00000000000E+00  0.00000000000E+00  0.97725863154E+01  0.90323896182E+02  0.89793667807E+02 0.  0.
    9000005    2    3    3    0    0 -0.35391151427E+01 -0.34386518758E+02 -0.23232230239E+02  0.42529796922E+02  0.86075023094E+01 0.  0.
         22    1    3    3    0    0  0.35391151427E+01  0.34386518758E+02  0.33004816554E+02  0.47794099260E+02  0.00000000000E+00 0.  1.
         22    1    4    4    0    0 -0.26772444377E+00 -0.20662678866E+02 -0.91617395534E+01  0.22604323611E+02  0.00000000000E+00 0. -1.
         22    1    4    4    0    0 -0.32713906989E+01 -0.13723839893E+02 -0.14070490686E+02  0.19925473310E+02  0.00000000000E+00 0. -1.
<mgrwt>
<rscale>  0 0.89793668E+02</rscale>
<asrwt>0</asrwt>
<pdfrwt beam="2">  1        3 0.61962546E-02 0.89793668E+02</pdfrwt>
<pdfrwt beam="1">  1       -3 0.76997295E-02 0.89793668E+02</pdfrwt>
<totfact> 0.36907466E+04</totfact>
</mgrwt>
</event>
<event>
 7    1  0.1247599E-009  0.9110627E+02  0.7818608E-02  0.1300195E+00
         -3   -1    0    0    0  501 -0.00000000000E+00  0.00000000000E+00  0.56658213384E+02  0.56658303407E+02  0.10100000000E+00 0.  1.
          3   -1    0    0  501    0  0.00000000000E+00 -0.00000000000E+00 -0.36624480274E+02  0.36624619539E+02  0.10100000000E+00 0. -1.
         23    2    1    2    0    0  0.00000000000E+00  0.00000000000E+00  0.20033733110E+02  0.93282922946E+02  0.91106274487E+02 0.  0.
    9000005    2    3    3    0    0  0.10350105494E+02 -0.21216576939E+02 -0.27884411075E+02  0.39865544099E+02  0.15951595674E+02 0.  0.
         22    1    3    3    0    0 -0.10350105494E+02  0.21216576939E+02  0.47918144185E+02  0.53417378847E+02  0.00000000000E+00 0.  1.
         22    1    4    4    0    0  0.31427246320E+01 -0.13240912880E+02 -0.48516685181E+01  0.14447739595E+02  0.00000000000E+00 0. -1.
         22    1    4    4    0    0  0.72073808621E+01 -0.79756640591E+01 -0.23032742557E+02  0.25417804503E+02  0.00000000000E+00 0. -1.
<mgrwt>
<rscale>  0 0.91106274E+02</rscale>
<asrwt>0</asrwt>
<pdfrwt beam="2">  1        3 0.56345531E-02 0.91106274E+02</pdfrwt>
<pdfrwt beam="1">  1       -3 0.87166657E-02 0.91106274E+02</pdfrwt>
<totfact> 0.35252568E+04</totfact>
</mgrwt>
</event>
<event>
 7    1  0.1247599E-009  0.9412243E+02  0.7818608E-02  0.1293165E+00
          3   -1    0    0  501    0  0.00000000000E+00  0.00000000000E+00  0.17483576296E+03  0.17483579214E+03  0.10100000000E+00 0. -1.
         -3   -1    0    0    0  501 -0.00000000000E+00 -0.00000000000E+00 -0.12667415477E+02  0.12667818118E+02  0.10100000000E+00 0.  1.
         23    2    1    2    0    0  0.00000000000E+00  0.00000000000E+00  0.16216834749E+03  0.18750361025E+03  0.94122425234E+02 0.  0.
    9000005    2    3    3    0    0 -0.13011830743E+02 -0.33674220377E+02  0.13926252693E+03  0.14474922483E+03  0.15969528028E+02 0.  0.
         22    1    3    3    0    0  0.13011830743E+02  0.33674220377E+02  0.22905820554E+02  0.42754385419E+02  0.00000000000E+00 0.  1.
         22    1    4    4    0    0  0.16114417510E+01 -0.17829715354E+02  0.64916988789E+02  0.67340262307E+02  0.00000000000E+00 0.  1.
         22    1    4    4    0    0 -0.14623272494E+02 -0.15844505024E+02  0.74345538143E+02  0.77408962528E+02  0.00000000000E+00 0.  1.
<mgrwt>
<rscale>  0 0.94122425E+02</rscale>
<asrwt>0</asrwt>
<pdfrwt beam="1">  1        3 0.26897842E-01 0.94122425E+02</pdfrwt>
<pdfrwt beam="2">  1       -3 0.19488664E-02 0.94122425E+02</pdfrwt>
<totfact> 0.26751525E+04</totfact>
</mgrwt>
</event>
<event>
 7    1  0.1247599E-009  0.9075902E+02  0.7818608E-02  0.1301024E+00
         -3   -1    0    0    0  501 -0.00000000000E+00  0.00000000000E+00  0.70260625945E+03  0.70260626671E+03  0.10100000000E+00 0.  1.
          3   -1    0    0  501    0  0.00000000000E+00 -0.00000000000E+00 -0.29300670202E+01  0.29318072485E+01  0.10100000000E+00 0. -1.
         23    2    1    2    0    0  0.00000000000E+00  0.00000000000E+00  0.69967619243E+03  0.70553807396E+03  0.90759019118E+02 0.  0.
    9000005    2    3    3    0    0  0.23739260479E+02 -0.27114918042E+02  0.55828205399E+03  0.55962346313E+03  0.14170300195E+02 0.  0.
         22    1    3    3    0    0 -0.23739260479E+02  0.27114918042E+02  0.14139413844E+03  0.14591461083E+03  0.00000000000E+00 0. -1.
         22    1    4    4    0    0  0.74041906556E+00  0.16333632335E+01  0.18238621085E+02  0.18326576193E+02  0.00000000000E+00 0.  1.
         22    1    4    4    0    0  0.22998841414E+02 -0.28748281275E+02  0.54004343290E+03  0.54129688693E+03  0.00000000000E+00 0.  1.
<mgrwt>
<rscale>  0 0.90759019E+02</rscale>
<asrwt>0</asrwt>
<pdfrwt beam="2">  1        3 0.45091344E-03 0.90759019E+02</pdfrwt>
<pdfrwt beam="1">  1       -3 0.10809353E+00 0.90759019E+02</pdfrwt>
<totfact> 0.13966421E+04</totfact>
</mgrwt>
</event>
<event>
 7    1  0.1247599E-009  0.9338519E+02  0.7818608E-02  0.1294855E+00
         -3   -1    0    0    0  501 -0.00000000000E+00  0.00000000000E+00  0.14919006620E+03  0.14919010038E+03  0.10100000000E+00 0. -1.
          3   -1    0    0  501    0  0.00000000000E+00 -0.00000000000E+00 -0.14613352691E+02  0.14613701717E+02  0.10100000000E+00 0.  1.
         23    2    1    2    0    0  0.00000000000E+00  0.00000000000E+00  0.13457671351E+03  0.16380380210E+03  0.93385190287E+02 0.  0.
    9000005    2    3    3    0    0  0.25541559805E+02 -0.22398253248E+01  0.13504324807E+03  0.13815997732E+03  0.13932422241E+02 0.  0.
         22    1    3    3    0    0 -0.25541559805E+02  0.22398253248E+01 -0.46653456640E+00  0.25643824778E+02  0.00000000000E+00 0.  1.
         22    1    4    4    0    0  0.21776760820E+02  0.19504339513E+01  0.83695088607E+02  0.86503753453E+02  0.00000000000E+00 0.  1.
         22    1    4    4    0    0  0.37647989845E+01 -0.41902592761E+01  0.51348159465E+02  0.51656223871E+02  0.00000000000E+00 0.  1.
<mgrwt>
<rscale>  0 0.93385190E+02</rscale>
<asrwt>0</asrwt>
<pdfrwt beam="2">  1        3 0.22482375E-02 0.93385190E+02</pdfrwt>
<pdfrwt beam="1">  1       -3 0.22952348E-01 0.93385190E+02</pdfrwt>
<totfact> 0.28567543E+04</totfact>
</mgrwt>
</event>
<event>
 7    1  0.1247599E-009  0.9236811E+02  0.7818608E-02  0.1297216E+00
         -3   -1    0    0    0  501 -0.00000000000E+00  0.00000000000E+00  0.55938040758E+01  0.55947158140E+01  0.10100000000E+00 0.  1.
          3   -1    0    0  501    0  0.00000000000E+00 -0.00000000000E+00 -0.38127684536E+03  0.38127685873E+03  0.10100000000E+00 0. -1.
         23    2    1    2    0    0 -0.17763568394E-14  0.00000000000E+00 -0.37568304128E+03  0.38687157455E+03  0.92368109687E+02 0.  0.
    9000005    2    3    3    0    0  0.12668218993E+02  0.32179613341E+02 -0.31451236469E+03  0.31660164526E+03  0.11070815359E+02 0.  0.
         22    1    3    3    0    0 -0.12668218993E+02 -0.32179613341E+02 -0.61170676589E+02  0.70269929284E+02  0.00000000000E+00 0.  1.
         22    1    4    4    0    0  0.25037884219E+01  0.18604634157E+00 -0.14352793950E+02  0.14570733128E+02  0.00000000000E+00 0.  1.
         22    1    4    4    0    0  0.10164430571E+02  0.31993566999E+02 -0.30015957074E+03  0.30203091213E+03  0.00000000000E+00 0.  1.
<mgrwt>
<rscale>  0 0.92368110E+02</rscale>
<asrwt>0</asrwt>
<pdfrwt beam="2">  1        3 0.58658027E-01 0.92368110E+02</pdfrwt>
<pdfrwt beam="1">  1       -3 0.86065670E-03 0.92368110E+02</pdfrwt>
<totfact> 0.20298375E+04</totfact>
</mgrwt>
</event>
<event>
 7    1  0.1247599E-009  0.8483410E+02  0.7818608E-02  0.1315867E+00
          3   -1    0    0  501    0  0.00000000000E+00  0.00000000000E+00  0.10654777969E+02  0.10655256664E+02  0.10100000000E+00 0. -1.
         -3   -1    0    0    0  501 -0.00000000000E+00 -0.00000000000E+00 -0.16885950344E+03  0.16885953364E+03  0.10100000000E+00 0.  1.
         23    2    1    2    0    0  0.00000000000E+00  0.00000000000E+00 -0.15820472547E+03  0.17951479031E+03  0.84834101506E+02 0.  0.
    9000005    2    3    3    0    0  0.24851326077E+02  0.81943274029E+01 -0.11928511361E+02  0.30916451746E+02  0.11349105510E+02 0.  0.
         22    1    3    3    0    0 -0.24851326077E+02 -0.81943274029E+01 -0.14627621411E+03  0.14859833856E+03  0.00000000000E+00 0.  1.
         22    1    4    4    0    0  0.14122090910E+02  0.30327923671E+01 -0.56089222434E+00  0.14454960439E+02  0.00000000000E+00 0.  1.
         22    1    4    4    0    0  0.10729235167E+02  0.51615350358E+01 -0.11367619137E+02  0.16461491306E+02  0.00000000000E+00 0.  1.
<mgrwt>
<rscale>  0 0.84834102E+02</rscale>
<asrwt>0</asrwt>
<pdfrwt beam="1">  1        3 0.16392359E-02 0.84834102E+02</pdfrwt>
<pdfrwt beam="2">  1       -3 0.25978422E-01 0.84834102E+02</pdfrwt>
<totfact> 0.35918641E+04</totfact>
</mgrwt>
</event>
<event>
 7    1  0.1247599E-009  0.9176715E+02  0.7818608E-02  0.1298628E+00
         -3   -1    0    0    0  501 -0.00000000000E+00  0.00000000000E+00  0.11413002969E+03  0.11413007438E+03  0.10100000000E+00 0.  1.
          3   -1    0    0  501    0  0.00000000000E+00 -0.00000000000E+00 -0.18446337125E+02  0.18446613628E+02  0.10100000000E+00 0. -1.
         23    2    1    2    0    0  0.00000000000E+00  0.00000000000E+00  0.95683692563E+02  0.13257668801E+03  0.91767146519E+02 0.  0.
    9000005    2    3    3    0    0  0.39401114143E+02  0.16526132840E+02  0.26733051439E+02  0.51461018905E+02  0.10393246131E+02 0.  0.
         22    1    3    3    0    0 -0.39401114143E+02 -0.16526132840E+02  0.68950641124E+02  0.81115669102E+02  0.00000000000E+00 0.  1.
         22    1    4    4    0    0  0.32348560001E+02  0.14409260487E+02  0.17069765722E+02  0.39311995927E+02  0.00000000000E+00 0.  1.
         22    1    4    4    0    0  0.70525541416E+01  0.21168723531E+01  0.96632857164E+01  0.12149022978E+02  0.00000000000E+00 0.  1.
<mgrwt>
<rscale>  0 0.91767147E+02</rscale>
<asrwt>0</asrwt>
<pdfrwt beam="2">  1        3 0.28379227E-02 0.91767147E+02</pdfrwt>
<pdfrwt beam="1">  1       -3 0.17558491E-01 0.91767147E+02</pdfrwt>
<totfact> 0.31845293E+04</totfact>
</mgrwt>
</event>
<event>
 7    1  0.1247599E-009  0.9081397E+02  0.7818608E-02  0.1300892E+00
         -3   -1    0    0    0  501 -0.00000000000E+00  0.00000000000E+00  0.58890978627E+01  0.58899638909E+01  0.10100000000E+00 0.  1.
          3   -1    0    0  501    0  0.00000000000E+00 -0.00000000000E+00 -0.35007694644E+03  0.35007696101E+03  0.10100000000E+00 0. -1.
         23    2    1    2    0    0  0.88817841970E-15 -0.71054273576E-14 -0.34418784857E+03  0.35596692490E+03  0.90813966519E+02 0.  0.
    9000005    2    3    3    0    0 -0.70909756054E+01  0.39812362441E+02 -0.24797818556E+03  0.25160407041E+03  0.13271081277E+02 0.  0.
         22    1    3    3    0    0  0.70909756054E+01 -0.39812362441E+02 -0.96209663018E+02  0.10436285449E+03  0.00000000000E+00 0. -1.
         22    1    4    4    0    0  0.38460460870E+01  0.12984578461E+02 -0.73572489459E+02  0.74808439053E+02  0.00000000000E+00 0.  1.
         22    1    4    4    0    0 -0.10937021692E+02  0.26827783980E+02 -0.17440569610E+03  0.17679563136E+03  0.00000000000E+00 0.  1.
<mgrwt>
<rscale>  0 0.90813967E+02</rscale>
<asrwt>0</asrwt>
<pdfrwt beam="2">  1        3 0.53858043E-01 0.90813967E+02</pdfrwt>
<pdfrwt beam="1">  1       -3 0.90608307E-03 0.90813967E+02</pdfrwt>
<totfact> 0.22251966E+04</totfact>
</mgrwt>
</event>
<event>
 7    1  0.1247599E-009  0.9230538E+02  0.7818608E-02  0.1297363E+00
         -3   -1    0    0    0  501 -0.00000000000E+00  0.00000000000E+00  0.48328448746E+02  0.48328554284E+02  0.10100000000E+00 0.  1.
          3   -1    0    0  501    0  0.00000000000E+00 -0.00000000000E+00 -0.44074672024E+02  0.44074787748E+02  0.10100000000E+00 0. -1.
         23    2    1    2    0    0  0.00000000000E+00  0.00000000000E+00  0.42537767215E+01  0.92403342032E+02  0.92305379054E+02 0.  0.
    9000005    2    3    3    0    0  0.64897863512E+01  0.20250425805E+02 -0.38499250941E+02  0.44653803328E+02  0.77183389677E+01 0.  0.
         22    1    3    3    0    0 -0.64897863512E+01 -0.20250425805E+02  0.42753027663E+02  0.47749538705E+02  0.00000000000E+00 0.  1.
         22    1    4    4    0    0  0.30773982915E+01  0.89448225979E+01 -0.98037047767E+01  0.13623247003E+02  0.00000000000E+00 0. -1.
         22    1    4    4    0    0  0.34123880597E+01  0.11305603207E+02 -0.28695546164E+02  0.31030556325E+02  0.00000000000E+00 0. -1.
<mgrwt>
<rscale>  0 0.92305379E+02</rscale>
<asrwt>0</asrwt>
<pdfrwt beam="2">  1        3 0.67807358E-02 0.92305379E+02</pdfrwt>
<pdfrwt beam="1">  1       -3 0.74351630E-02 0.92305379E+02</pdfrwt>
<totfact> 0.34080188E+04</totfact>
</mgrwt>
</event>
<event>
 7    1  0.1247599E-009  0.9150921E+02  0.7818608E-02  0.1299238E+00
          3   -1    0    0  501    0  0.00000000000E+00  0.00000000000E+00  0.39425818834E+02  0.39425948204E+02  0.10100000000E+00 0. -1.
         -3   -1    0    0    0  501 -0.00000000000E+00 -0.00000000000E+00 -0.53099050287E+02  0.53099146343E+02  0.10100000000E+00 0.  1.
         23    2    1    2    0    0  0.00000000000E+00  0.17763568394E-14 -0.13673231453E+02  0.92525094547E+02  0.91509211900E+02 0.  0.
    9000005    2    3    3    0    0  0.17845263803E+02 -0.10261828870E+02  0.34290568038E+02  0.40330414420E+02  0.51904430417E+01 0.  0.
         22    1    3    3    0    0 -0.17845263803E+02  0.10261828870E+02 -0.47963799491E+02  0.52194680127E+02  0.00000000000E+00 0.  1.
         22    1    4    4    0    0  0.15990858363E+02 -0.74776447894E+01  0.30768816121E+02  0.35473127411E+02  0.00000000000E+00 0.  1.
         22    1    4    4    0    0  0.18544054396E+01 -0.27841840803E+01  0.35217519170E+01  0.48572870095E+01  0.00000000000E+00 0.  1.
<mgrwt>
<rscale>  0 0.91509212E+02</rscale>
<asrwt>0</asrwt>
<pdfrwt beam="1">  1        3 0.60655280E-02 0.91509212E+02</pdfrwt>
<pdfrwt beam="2">  1       -3 0.81691020E-02 0.91509212E+02</pdfrwt>
<totfact> 0.34887792E+04</totfact>
</mgrwt>
</event>
<event>
 7    1  0.1247599E-009  0.9658929E+02  0.7818608E-02  0.1287636E+00
         -3   -1    0    0    0  501 -0.00000000000E+00  0.00000000000E+00  0.48255971758E+02  0.48256077454E+02  0.10100000000E+00 0.  1.
          3   -1    0    0  501    0  0.00000000000E+00 -0.00000000000E+00 -0.48333137243E+02  0.48333242771E+02  0.10100000000E+00 0. -1.
         23    2    1    2    0    0  0.17763568394E-14  0.35527136788E-14 -0.77165485835E-01  0.96589320226E+02  0.96589289402E+02 0.  0.
    9000005    2    3    3    0    0 -0.10356068917E+02 -0.23244911279E+02 -0.39884406003E+02  0.49343257306E+02  0.14014889783E+02 0.  0.
         22    1    3    3    0    0  0.10356068917E+02  0.23244911279E+02  0.39807240517E+02  0.47246062919E+02  0.00000000000E+00 0.  1.
         22    1    4    4    0    0 -0.92015606207E+01 -0.20578067187E+02 -0.22977308085E+02  0.32188231604E+02  0.00000000000E+00 0.  1.
         22    1    4    4    0    0 -0.11545082967E+01 -0.26668440919E+01 -0.16907097918E+02  0.17155025702E+02  0.00000000000E+00 0.  1.
<mgrwt>
<rscale>  0 0.96589289E+02</rscale>
<asrwt>0</asrwt>
<pdfrwt beam="2">  1        3 0.74358835E-02 0.96589289E+02</pdfrwt>
<pdfrwt beam="1">  1       -3 0.74240119E-02 0.96589289E+02</pdfrwt>
<totfact> 0.29828522E+04</totfact>
</mgrwt>
</event>
<event>
 7    1  0.1247599E-009  0.9386425E+02  0.7818608E-02  0.1293755E+00
         -3   -1    0    0    0  501 -0.00000000000E+00  0.00000000000E+00  0.42348520525E+03  0.42348521730E+03  0.10100000000E+00 0.  1.
          3   -1    0    0  501    0  0.00000000000E+00 -0.00000000000E+00 -0.52006810925E+01  0.52016617369E+01  0.10100000000E+00 0. -1.
         23    2    1    2    0    0  0.00000000000E+00  0.35527136788E-14  0.41828452416E+03  0.42868687903E+03  0.93864248272E+02 0.  0.
    9000005    2    3    3    0    0  0.25909446684E+02  0.28586291055E+02  0.33037987019E+03  0.33268842251E+03  0.65001836267E+01 0.  0.
         22    1    3    3    0    0 -0.25909446684E+02 -0.28586291055E+02  0.87904653974E+02  0.95998456519E+02  0.00000000000E+00 0. -1.
         22    1    4    4    0    0  0.17414344590E+02  0.22771408473E+02  0.25582521124E+03  0.25742636839E+03  0.00000000000E+00 0. -1.
         22    1    4    4    0    0  0.84951020945E+01  0.58148825820E+01  0.74554658951E+02  0.75262054120E+02  0.00000000000E+00 0. -1.
<mgrwt>
<rscale>  0 0.93864248E+02</rscale>
<asrwt>0</asrwt>
<pdfrwt beam="2">  1        3 0.80018069E-03 0.93864248E+02</pdfrwt>
<pdfrwt beam="1">  1       -3 0.65151684E-01 0.93864248E+02</pdfrwt>
<totfact> 0.18280379E+04</totfact>
</mgrwt>
</event>
<event>
 7    1  0.1247599E-009  0.9156931E+02  0.7818608E-02  0.1299095E+00
         -3   -1    0    0    0  501 -0.00000000000E+00  0.00000000000E+00  0.37825885281E+02  0.37826020123E+02  0.10100000000E+00 0.  1.
          3   -1    0    0  501    0  0.00000000000E+00 -0.00000000000E+00 -0.55417715311E+02  0.55417807348E+02  0.10100000000E+00 0. -1.
         23    2    1    2    0    0  0.71054273576E-14  0.00000000000E+00 -0.17591830029E+02  0.93243827471E+02  0.91569311877E+02 0.  0.
    9000005    2    3    3    0    0  0.39043011520E+02  0.21480274737E+02 -0.73281275952E+00  0.45599463538E+02  0.96444341001E+01 0.  0.
         22    1    3    3    0    0 -0.39043011520E+02 -0.21480274737E+02 -0.16859017270E+02  0.47644363933E+02  0.00000000000E+00 0. -1.
         22    1    4    4    0    0  0.58474206722E+00 -0.88057620070E+00  0.30739872708E+00  0.11008322796E+01  0.00000000000E+00 0. -1.
         22    1    4    4    0    0  0.38458269452E+02  0.22360850937E+02 -0.10402114866E+01  0.44498631258E+02  0.00000000000E+00 0. -1.
<mgrwt>
<rscale>  0 0.91569312E+02</rscale>
<asrwt>0</asrwt>
<pdfrwt beam="2">  1        3 0.85258198E-02 0.91569312E+02</pdfrwt>
<pdfrwt beam="1">  1       -3 0.58193844E-02 0.91569312E+02</pdfrwt>
<totfact> 0.34770465E+04</totfact>
</mgrwt>
</event>
<event>
 7    1  0.1247599E-009  0.1193808E+03  0.7818608E-02  0.1244122E+00
          3   -1    0    0  501    0  0.00000000000E+00  0.00000000000E+00  0.12573836239E+03  0.12573840296E+03  0.10100000000E+00 0. -1.
         -3   -1    0    0    0  501 -0.00000000000E+00 -0.00000000000E+00 -0.28336022616E+02  0.28336202616E+02  0.10100000000E+00 0.  1.
         23    2    1    2    0    0  0.00000000000E+00  0.71054273576E-14  0.97402339776E+02  0.15407460557E+03  0.11938077018E+03 0.  0.
    9000005    2    3    3    0    0 -0.91534670586E+01  0.39622392122E+02  0.10494983959E+03  0.11271418161E+03  0.60247813344E+01 0.  0.
         22    1    3    3    0    0  0.91534670586E+01 -0.39622392122E+02 -0.75474998128E+01  0.41360423959E+02  0.00000000000E+00 0.  1.
         22    1    4    4    0    0 -0.99063647434E+01  0.33746057329E+02  0.88707542965E+02  0.95425157200E+02  0.00000000000E+00 0. -1.
         22    1    4    4    0    0  0.75289768480E+00  0.58763347928E+01  0.16242296624E+02  0.17289024413E+02  0.00000000000E+00 0. -1.
<mgrwt>
<rscale>  0 0.11938077E+03</rscale>
<asrwt>0</asrwt>
<pdfrwt beam="1">  1        3 0.19344380E-01 0.11938077E+03</pdfrwt>
<pdfrwt beam="2">  1       -3 0.43594051E-02 0.11938077E+03</pdfrwt>
<totfact> 0.14787273E+04</totfact>
</mgrwt>
</event>
<event>
 7    1  0.1247599E-009  0.1099886E+03  0.7818608E-02  0.1260591E+00
         -3   -1    0    0    0  501 -0.00000000000E+00  0.00000000000E+00  0.33122458424E+02  0.33122612412E+02  0.10100000000E+00 0.  1.
          3   -1    0    0  501    0  0.00000000000E+00 -0.00000000000E+00 -0.91308451527E+02  0.91308507387E+02  0.10100000000E+00 0. -1.
         23    2    1    2    0    0  0.00000000000E+00  0.00000000000E+00 -0.58185993103E+02  0.12443111980E+03  0.10998860751E+03 0.  0.
    9000005    2    3    3    0    0 -0.20690281263E+02 -0.48931150335E+02 -0.43065929975E+02  0.69195610199E+02  0.10536267568E+02 0.  0.
         22    1    3    3    0    0  0.20690281263E+02  0.48931150335E+02 -0.15120063128E+02  0.55235509601E+02  0.00000000000E+00 0.  1.
         22    1    4    4    0    0 -0.14058115550E+02 -0.20157934575E+02 -0.17986767799E+02  0.30454831390E+02  0.00000000000E+00 0. -1.
         22    1    4    4    0    0 -0.66321657131E+01 -0.28773215760E+02 -0.25079162177E+02  0.38740778809E+02  0.00000000000E+00 0. -1.
<mgrwt>
<rscale>  0 0.10998861E+03</rscale>
<asrwt>0</asrwt>
<pdfrwt beam="2">  1        3 0.14047470E-01 0.10998861E+03</pdfrwt>
<pdfrwt beam="1">  1       -3 0.50957790E-02 0.10998861E+03</pdfrwt>
<totfact> 0.19681298E+04</totfact>
</mgrwt>
</event>
<event>
 7    1  0.1486420E-009  0.9154283E+02  0.7818608E-02  0.1299158E+00
         -3   -1    0    0    0  501 -0.00000000000E+00  0.00000000000E+00  0.35474835359E+02  0.35474979137E+02  0.10100000000E+00 0.  1.
          3   -1    0    0  501    0  0.00000000000E+00 -0.00000000000E+00 -0.59056278776E+02  0.59056365142E+02  0.10100000000E+00 0. -1.
         23    2    1    2    0    0  0.00000000000E+00  0.00000000000E+00 -0.23581443417E+02  0.94531344279E+02  0.91542834660E+02 0.  0.
    9000005    2    3    3    0    0  0.20481542273E+02  0.20021606413E+02 -0.47889164572E+02  0.56965088078E+02  0.11458223206E+02 0.  0.
         22    1    3    3    0    0 -0.20481542273E+02 -0.20021606413E+02  0.24307721155E+02  0.37566256201E+02  0.00000000000E+00 0.  1.
         22    1    4    4    0    0  0.15540579566E+02  0.19558055638E+02 -0.33813640090E+02  0.42040330752E+02  0.00000000000E+00 0.  1.
         22    1    4    4    0    0  0.49409627065E+01  0.46355077537E+00 -0.14075524482E+02  0.14924757326E+02  0.00000000000E+00 0.  1.
<mgrwt>
<rscale>  0 0.91542835E+02</rscale>
<asrwt>0</asrwt>
<pdfrwt beam="2">  1        3 0.90855991E-02 0.91542835E+02</pdfrwt>
<pdfrwt beam="1">  1       -3 0.54576847E-02 0.91542835E+02</pdfrwt>
<totfact> 0.34700837E+04</totfact>
</mgrwt>
</event>
<event>
 7    1  0.1247599E-009  0.8994642E+02  0.7818608E-02  0.1302982E+00
         -3   -1    0    0    0  501 -0.00000000000E+00  0.00000000000E+00  0.16004015669E+02  0.16004334367E+02  0.10100000000E+00 0.  1.
          3   -1    0    0  501    0  0.00000000000E+00 -0.00000000000E+00 -0.12637852655E+03  0.12637856691E+03  0.10100000000E+00 0. -1.
         23    2    1    2    0    0  0.00000000000E+00  0.24980018054E-15 -0.11037451088E+03  0.14238290128E+03  0.89946416957E+02 0.  0.
    9000005    2    3    3    0    0  0.31544595881E+02 -0.21997108640E+00 -0.71011607599E+01  0.34399130449E+02  0.11737281413E+02 0.  0.
         22    1    3    3    0    0 -0.31544595881E+02  0.21997108640E+00 -0.10327335012E+03  0.10798377083E+03  0.00000000000E+00 0. -1.
         22    1    4    4    0    0  0.74255019267E+01 -0.43395382940E+01 -0.47318270771E+01  0.98163057693E+01  0.00000000000E+00 0. -1.
         22    1    4    4    0    0  0.24119093954E+02  0.41195672076E+01 -0.23693336828E+01  0.24582824680E+02  0.00000000000E+00 0. -1.
<mgrwt>
<rscale>  0 0.89946417E+02</rscale>
<asrwt>0</asrwt>
<pdfrwt beam="2">  1        3 0.19442877E-01 0.89946417E+02</pdfrwt>
<pdfrwt beam="1">  1       -3 0.24621840E-02 0.89946417E+02</pdfrwt>
<totfact> 0.32968818E+04</totfact>
</mgrwt>
</event>
<event>
 7    1  0.1247599E-009  0.9198914E+02  0.7818608E-02  0.1298105E+00
         -3   -1    0    0    0  501 -0.00000000000E+00  0.00000000000E+00  0.30618625108E+02  0.30618791689E+02  0.10100000000E+00 0.  1.
          3   -1    0    0  501    0  0.00000000000E+00 -0.00000000000E+00 -0.69091563605E+02  0.69091637427E+02  0.10100000000E+00 0. -1.
         23    2    1    2    0    0  0.00000000000E+00  0.00000000000E+00 -0.38472938497E+02  0.99710429116E+02  0.91989144348E+02 0.  0.
    9000005    2    3    3    0    0  0.36163626835E+02 -0.17324303288E+02 -0.42980532452E+02  0.59358752651E+02  0.82580842943E+01 0.  0.
         22    1    3    3    0    0 -0.36163626835E+02  0.17324303288E+02  0.45075939541E+01  0.40351676465E+02  0.00000000000E+00 0.  1.
         22    1    4    4    0    0  0.54946810393E+01  0.12803464044E+00 -0.41287517733E+01  0.68741911377E+01  0.00000000000E+00 0. -1.
         22    1    4    4    0    0  0.30668945795E+02 -0.17452337929E+02 -0.38851780678E+02  0.52484561513E+02  0.00000000000E+00 0. -1.
<mgrwt>
<rscale>  0 0.91989144E+02</rscale>
<asrwt>0</asrwt>
<pdfrwt beam="2">  1        3 0.10629490E-01 0.91989144E+02</pdfrwt>
<pdfrwt beam="1">  1       -3 0.47105762E-02 0.91989144E+02</pdfrwt>
<totfact> 0.33863142E+04</totfact>
</mgrwt>
</event>
<event>
 7    1  0.1247599E-009  0.9530486E+02  0.7818608E-02  0.1290491E+00
          3   -1    0    0  501    0  0.00000000000E+00  0.00000000000E+00  0.16616751498E+02  0.16617058445E+02  0.10100000000E+00 0. -1.
         -3   -1    0    0    0  501 -0.00000000000E+00 -0.00000000000E+00 -0.13665293844E+03  0.13665297576E+03  0.10100000000E+00 0.  1.
         23    2    1    2    0    0  0.00000000000E+00  0.71054273576E-14 -0.12003618694E+03  0.15327003420E+03  0.95304864569E+02 0.  0.
    9000005    2    3    3    0    0 -0.38374086812E+01  0.34182830591E+02 -0.11175881610E+03  0.11789057010E+03  0.14998730893E+02 0.  0.
         22    1    3    3    0    0  0.38374086812E+01 -0.34182830591E+02 -0.82773708345E+01  0.35379464108E+02  0.00000000000E+00 0. -1.
         22    1    4    4    0    0 -0.76362293044E+01  0.32376740817E+02 -0.97088912146E+02  0.10262953866E+03  0.00000000000E+00 0.  1.
         22    1    4    4    0    0  0.37988206231E+01  0.18060897740E+01 -0.14669903957E+02  0.15261031437E+02  0.00000000000E+00 0.  1.
<mgrwt>
<rscale>  0 0.95304865E+02</rscale>
<asrwt>0</asrwt>
<pdfrwt beam="1">  1        3 0.25564499E-02 0.95304865E+02</pdfrwt>
<pdfrwt beam="2">  1       -3 0.21023555E-01 0.95304865E+02</pdfrwt>
<totfact> 0.27581379E+04</totfact>
</mgrwt>
</event>
<event>
 7    1  0.1247599E-009  0.9167412E+02  0.7818608E-02  0.1298847E+00
          3   -1    0    0  501    0  0.00000000000E+00  0.00000000000E+00  0.30160874565E+03  0.30160876256E+03  0.10100000000E+00 0. -1.
         -3   -1    0    0    0  501 -0.00000000000E+00 -0.00000000000E+00 -0.69657151325E+01  0.69664473232E+01  0.10100000000E+00 0.  1.
         23    2    1    2    0    0  0.35527136788E-14  0.88817841970E-15  0.29464303051E+03  0.30857520988E+03  0.91674122425E+02 0.  0.
    9000005    2    3    3    0    0  0.24895029113E+02  0.64534707798E+01  0.27436343292E+03  0.27582354064E+03  0.11913122457E+02 0.  0.
         22    1    3    3    0    0 -0.24895029113E+02 -0.64534707798E+01  0.20279597594E+02  0.32751669243E+02  0.00000000000E+00 0.  1.
         22    1    4    4    0    0  0.18515013795E+01 -0.11233430147E+01  0.62409929297E+01  0.66060540139E+01  0.00000000000E+00 0. -1.
         22    1    4    4    0    0  0.23043527733E+02  0.75768137945E+01  0.26812243999E+03  0.26921748662E+03  0.00000000000E+00 0. -1.
<mgrwt>
<rscale>  0 0.91674122E+02</rscale>
<asrwt>0</asrwt>
<pdfrwt beam="1">  1        3 0.46401397E-01 0.91674122E+02</pdfrwt>
<pdfrwt beam="2">  1       -3 0.10717063E-02 0.91674122E+02</pdfrwt>
<totfact> 0.23359243E+04</totfact>
</mgrwt>
</event>
<event>
 7    1  0.1247599E-009  0.9285758E+02  0.7818608E-02  0.1296076E+00
          3   -1    0    0  501    0  0.00000000000E+00  0.00000000000E+00  0.79028547466E+01  0.79035001199E+01  0.10100000000E+00 0. -1.
         -3   -1    0    0    0  501 -0.00000000000E+00 -0.00000000000E+00 -0.27275453489E+03  0.27275455359E+03  0.10100000000E+00 0.  1.
         23    2    1    2    0    0  0.88817841970E-15  0.00000000000E+00 -0.26485168015E+03  0.28065805371E+03  0.92857582553E+02 0.  0.
    9000005    2    3    3    0    0  0.77229685868E+01 -0.41997757493E+02 -0.80256808025E+02  0.91188471215E+02  0.71222306948E+01 0.  0.
         22    1    3    3    0    0 -0.77229685868E+01  0.41997757493E+02 -0.18459487212E+03  0.18946958250E+03  0.00000000000E+00 0.  1.
         22    1    4    4    0    0  0.87804639805E+01 -0.37418420120E+02 -0.68852167512E+02  0.78853380923E+02  0.00000000000E+00 0.  1.
         22    1    4    4    0    0 -0.10574953937E+01 -0.45793373729E+01 -0.11404640513E+02  0.12335090292E+02  0.00000000000E+00 0.  1.
<mgrwt>
<rscale>  0 0.92857583E+02</rscale>
<asrwt>0</asrwt>
<pdfrwt beam="1">  1        3 0.12158751E-02 0.92857583E+02</pdfrwt>
<pdfrwt beam="2">  1       -3 0.41962280E-01 0.92857583E+02</pdfrwt>
<totfact> 0.23603065E+04</totfact>
</mgrwt>
</event>
<event>
 7    1  0.1247599E-009  0.9554612E+02  0.7818608E-02  0.1289951E+00
          3   -1    0    0  501    0  0.00000000000E+00  0.00000000000E+00  0.89750933681E+02  0.89750990511E+02  0.10100000000E+00 0. -1.
         -3   -1    0    0    0  501 -0.00000000000E+00 -0.00000000000E+00 -0.25428708339E+02  0.25428908918E+02  0.10100000000E+00 0.  1.
         23    2    1    2    0    0  0.00000000000E+00  0.00000000000E+00  0.64322225342E+02  0.11517989943E+03  0.95546117448E+02 0.  0.
    9000005    2    3    3    0    0 -0.32353864523E+02 -0.23701366648E+02  0.62655705424E+02  0.75038840409E+02  0.98266381481E+01 0.  0.
         22    1    3    3    0    0  0.32353864523E+02  0.23701366648E+02  0.16665199187E+01  0.40141059019E+02  0.00000000000E+00 0.  1.
         22    1    4    4    0    0 -0.30836061204E+01  0.23604369395E+00  0.80127334757E+01  0.85888439900E+01  0.00000000000E+00 0.  1.
         22    1    4    4    0    0 -0.29270258403E+02 -0.23937410342E+02  0.54642971948E+02  0.66449996420E+02  0.00000000000E+00 0.  1.
<mgrwt>
<rscale>  0 0.95546117E+02</rscale>
<asrwt>0</asrwt>
<pdfrwt beam="1">  1        3 0.13807856E-01 0.95546117E+02</pdfrwt>
<pdfrwt beam="2">  1       -3 0.39121288E-02 0.95546117E+02</pdfrwt>
<totfact> 0.29553537E+04</totfact>
</mgrwt>
</event>
<event>
 7    1  0.1247599E-009  0.9184336E+02  0.7818608E-02  0.1298448E+00
         -3   -1    0    0    0  501 -0.00000000000E+00  0.00000000000E+00  0.41642058741E+02  0.41642181225E+02  0.10100000000E+00 0.  1.
          3   -1    0    0  501    0  0.00000000000E+00 -0.00000000000E+00 -0.50640876345E+02  0.50640977064E+02  0.10100000000E+00 0. -1.
         23    2    1    2    0    0  0.00000000000E+00 -0.88817841970E-15 -0.89988176043E+01  0.92283158289E+02  0.91843358963E+02 0.  0.
    9000005    2    3    3    0    0  0.44481425301E+02 -0.60630556500E+01  0.37117726959E+01  0.45625715728E+02  0.72505750488E+01 0.  0.
         22    1    3    3    0    0 -0.44481425301E+02  0.60630556500E+01 -0.12710590300E+02  0.46657442561E+02  0.00000000000E+00 0. -1.
         22    1    4    4    0    0  0.27612500160E+02 -0.53738739955E+01  0.54494214003E+01  0.28653531726E+02  0.00000000000E+00 0. -1.
         22    1    4    4    0    0  0.16868925141E+02 -0.68918165451E+00 -0.17376487044E+01  0.16972184001E+02  0.00000000000E+00 0. -1.
<mgrwt>
<rscale>  0 0.91843359E+02</rscale>
<asrwt>0</asrwt>
<pdfrwt beam="2">  1        3 0.77909212E-02 0.91843359E+02</pdfrwt>
<pdfrwt beam="1">  1       -3 0.64064877E-02 0.91843359E+02</pdfrwt>
<totfact> 0.34559689E+04</totfact>
</mgrwt>
</event>
<event>
 7    1  0.1715026E-009  0.7584329E+02  0.7818608E-02  0.1341279E+00
         -3   -1    0    0    0  501 -0.00000000000E+00  0.00000000000E+00  0.10245493318E+03  0.10245498296E+03  0.10100000000E+00 0.  1.
          3   -1    0    0  501    0  0.00000000000E+00 -0.00000000000E+00 -0.14035705131E+02  0.14036068521E+02  0.10100000000E+00 0. -1.
         23    2    1    2    0    0  0.00000000000E+00  0.00000000000E+00  0.88419228050E+02  0.11649105148E+03  0.75843293620E+02 0.  0.
    9000005    2    3    3    0    0 -0.54317367203E+01  0.24826010968E+02  0.47679703497E+01  0.29064696767E+02  0.13273600586E+02 0.  0.
         22    1    3    3    0    0  0.54317367203E+01 -0.24826010968E+02  0.83651257700E+02  0.87426354718E+02  0.00000000000E+00 0.  1.
         22    1    4    4    0    0 -0.79265194975E+01  0.82675050633E+01  0.45324593524E+01  0.12317651525E+02  0.00000000000E+00 0.  1.
         22    1    4    4    0    0  0.24947827772E+01  0.16558505905E+02  0.23551099732E+00  0.16747045242E+02  0.00000000000E+00 0.  1.
<mgrwt>
<rscale>  0 0.75843294E+02</rscale>
<asrwt>0</asrwt>
<pdfrwt beam="2">  1        3 0.21593710E-02 0.75843294E+02</pdfrwt>
<pdfrwt beam="1">  1       -3 0.15762329E-01 0.75843294E+02</pdfrwt>
<totfact> 0.54905143E+04</totfact>
</mgrwt>
</event>
<event>
 7    1  0.1247599E-009  0.9300201E+02  0.7818608E-02  0.1295741E+00
         -3   -1    0    0    0  501 -0.00000000000E+00  0.00000000000E+00  0.17058393308E+02  0.17058692307E+02  0.10100000000E+00 0.  1.
          3   -1    0    0  501    0  0.00000000000E+00 -0.00000000000E+00 -0.12675982843E+03  0.12675986867E+03  0.10100000000E+00 0. -1.
         23    2    1    2    0    0  0.00000000000E+00  0.00000000000E+00 -0.10970143513E+03  0.14381856098E+03  0.93002008651E+02 0.  0.
    9000005    2    3    3    0    0 -0.40886505303E+02  0.17703487796E+02 -0.43471594785E+02  0.63996812391E+02  0.14855727749E+02 0.  0.
         22    1    3    3    0    0  0.40886505303E+02 -0.17703487796E+02 -0.66229840340E+02  0.79821748587E+02  0.00000000000E+00 0.  1.
         22    1    4    4    0    0 -0.64928347746E+01  0.80335363564E+01 -0.15480927977E+02  0.18610581421E+02  0.00000000000E+00 0. -1.
         22    1    4    4    0    0 -0.34393670529E+02  0.96699514395E+01 -0.27990666809E+02  0.45386230970E+02  0.00000000000E+00 0. -1.
<mgrwt>
<rscale>  0 0.93002009E+02</rscale>
<asrwt>0</asrwt>
<pdfrwt beam="2">  1        3 0.19501538E-01 0.93002009E+02</pdfrwt>
<pdfrwt beam="1">  1       -3 0.26243944E-02 0.93002009E+02</pdfrwt>
<totfact> 0.30028305E+04</totfact>
</mgrwt>
</event>
<event>
 7    1  0.1247599E-009  0.8925771E+02  0.7818608E-02  0.1304659E+00
          3   -1    0    0  501    0  0.00000000000E+00  0.00000000000E+00  0.62002646854E+02  0.62002729117E+02  0.10100000000E+00 0. -1.
         -3   -1    0    0    0  501 -0.00000000000E+00 -0.00000000000E+00 -0.32123200952E+02  0.32123359731E+02  0.10100000000E+00 0.  1.
         23    2    1    2    0    0  0.00000000000E+00  0.71054273576E-14  0.29879445902E+02  0.94126088848E+02  0.89257712913E+02 0.  0.
    9000005    2    3    3    0    0  0.26442690717E+02  0.34508550986E+02  0.79819366480E+01  0.45447994236E+02  0.10571323662E+02 0.  0.
         22    1    3    3    0    0 -0.26442690717E+02 -0.34508550986E+02  0.21897509254E+02  0.48678094611E+02  0.00000000000E+00 0.  1.
         22    1    4    4    0    0  0.12192477492E+01 -0.10069947028E+00 -0.11282555092E+01  0.16642313395E+01  0.00000000000E+00 0. -1.
         22    1    4    4    0    0  0.25223442968E+02  0.34609250456E+02  0.91101921572E+01  0.43783762897E+02  0.00000000000E+00 0. -1.
<mgrwt>
<rscale>  0 0.89257713E+02</rscale>
<asrwt>0</asrwt>
<pdfrwt beam="1">  1        3 0.95388873E-02 0.89257713E+02</pdfrwt>
<pdfrwt beam="2">  1       -3 0.49420494E-02 0.89257713E+02</pdfrwt>
<totfact> 0.37201085E+04</totfact>
</mgrwt>
</event>
<event>
 7    1  0.1247599E-009  0.9149872E+02  0.7818608E-02  0.1299262E+00
         -3   -1    0    0    0  501 -0.00000000000E+00  0.00000000000E+00  0.57616635512E+01  0.57625487310E+01  0.10100000000E+00 0.  1.
          3   -1    0    0  501    0  0.00000000000E+00 -0.00000000000E+00 -0.36323506251E+03  0.36323507656E+03  0.10100000000E+00 0. -1.
         23    2    1    2    0    0  0.00000000000E+00  0.00000000000E+00 -0.35747339896E+03  0.36899762529E+03  0.91498724042E+02 0.  0.
    9000005    2    3    3    0    0 -0.20920293544E+02  0.36496754537E+02 -0.12284173199E+03  0.13062461733E+03  0.14248781063E+02 0.  0.
         22    1    3    3    0    0  0.20920293544E+02 -0.36496754537E+02 -0.23463166697E+03  0.23837300795E+03  0.00000000000E+00 0. -1.
         22    1    4    4    0    0 -0.22020409595E+02  0.31492536919E+02 -0.11506141891E+03  0.12130873192E+03  0.00000000000E+00 0. -1.
         22    1    4    4    0    0  0.11001160511E+01  0.50042176182E+01 -0.77803130824E+01  0.93158854091E+01  0.00000000000E+00 0. -1.
<mgrwt>
<rscale>  0 0.91498724E+02</rscale>
<asrwt>0</asrwt>
<pdfrwt beam="2">  1        3 0.55882369E-01 0.91498724E+02</pdfrwt>
<pdfrwt beam="1">  1       -3 0.88647923E-03 0.91498724E+02</pdfrwt>
<totfact> 0.21382627E+04</totfact>
</mgrwt>
</event>
<event>
 7    1  0.1247599E-009  0.9578965E+02  0.7818608E-02  0.1289407E+00
          3   -1    0    0  501    0  0.00000000000E+00  0.00000000000E+00  0.14752708535E+03  0.14752711992E+03  0.10100000000E+00 0. -1.
         -3   -1    0    0    0  501 -0.00000000000E+00 -0.00000000000E+00 -0.15548906015E+02  0.15549234041E+02  0.10100000000E+00 0.  1.
         23    2    1    2    0    0  0.00000000000E+00  0.00000000000E+00  0.13197817933E+03  0.16307635396E+03  0.95789651851E+02 0.  0.
    9000005    2    3    3    0    0 -0.42069265161E+02 -0.18660918989E+02  0.50923389748E+02  0.69867277777E+02  0.13045762215E+02 0.  0.
         22    1    3    3    0    0  0.42069265161E+02  0.18660918989E+02  0.81054789583E+02  0.93209076184E+02  0.00000000000E+00 0. -1.
         22    1    4    4    0    0 -0.16773235046E+02 -0.14145818801E+02  0.26636493533E+02  0.34510120127E+02  0.00000000000E+00 0.  1.
         22    1    4    4    0    0 -0.25296030115E+02 -0.45151001883E+01  0.24286896216E+02  0.35357157650E+02  0.00000000000E+00 0.  1.
<mgrwt>
<rscale>  0 0.95789652E+02</rscale>
<asrwt>0</asrwt>
<pdfrwt beam="1">  1        3 0.22696502E-01 0.95789652E+02</pdfrwt>
<pdfrwt beam="2">  1       -3 0.23921674E-02 0.95789652E+02</pdfrwt>
<totfact> 0.26695298E+04</totfact>
</mgrwt>
</event>
<event>
 7    1  0.1247599E-009  0.9091807E+02  0.7818608E-02  0.1300644E+00
          3   -1    0    0  501    0  0.00000000000E+00  0.00000000000E+00  0.10887669814E+03  0.10887674499E+03  0.10100000000E+00 0. -1.
         -3   -1    0    0    0  501 -0.00000000000E+00 -0.00000000000E+00 -0.18980221330E+02  0.18980490056E+02  0.10100000000E+00 0.  1.
         23    2    1    2    0    0  0.00000000000E+00  0.00000000000E+00  0.89896476810E+02  0.12785723504E+03  0.90918073065E+02 0.  0.
    9000005    2    3    3    0    0  0.20759976404E+02  0.12259341370E+02  0.98451119232E+02  0.10227501508E+03  0.13648727450E+02 0.  0.
         22    1    3    3    0    0 -0.20759976404E+02 -0.12259341370E+02 -0.85546424219E+01  0.25582219960E+02  0.00000000000E+00 0.  1.
         22    1    4    4    0    0  0.21722001605E+02  0.13882987647E+02  0.90262484597E+02  0.93871714724E+02  0.00000000000E+00 0.  1.
         22    1    4    4    0    0 -0.96202520084E+00 -0.16236462773E+01  0.81886346350E+01  0.84033003580E+01  0.00000000000E+00 0.  1.
<mgrwt>
<rscale>  0 0.90918073E+02</rscale>
<asrwt>0</asrwt>
<pdfrwt beam="1">  1        3 0.16750285E-01 0.90918073E+02</pdfrwt>
<pdfrwt beam="2">  1       -3 0.29200584E-02 0.90918073E+02</pdfrwt>
<totfact> 0.32970704E+04</totfact>
</mgrwt>
</event>
<event>
 7    1  0.1247599E-009  0.9313184E+02  0.7818608E-02  0.1295440E+00
         -3   -1    0    0    0  501 -0.00000000000E+00  0.00000000000E+00  0.12574010470E+03  0.12574014526E+03  0.10100000000E+00 0.  1.
          3   -1    0    0  501    0  0.00000000000E+00 -0.00000000000E+00 -0.17244784085E+02  0.17245079853E+02  0.10100000000E+00 0. -1.
         23    2    1    2    0    0  0.00000000000E+00 -0.35527136788E-14  0.10849532062E+03  0.14298522512E+03  0.93131842065E+02 0.  0.
    9000005    2    3    3    0    0  0.88836626770E+01 -0.21754823312E+02 -0.67341717328E+01  0.25384086914E+02  0.68418564439E+01 0.  0.
         22    1    3    3    0    0 -0.88836626770E+01  0.21754823312E+02  0.11522949235E+03  0.11760113820E+03  0.00000000000E+00 0.  1.
         22    1    4    4    0    0  0.75896055488E+01 -0.96229124357E+01 -0.38625016504E+01  0.12849960122E+02  0.00000000000E+00 0.  1.
         22    1    4    4    0    0  0.12940571282E+01 -0.12131910877E+02 -0.28716700823E+01  0.12534126792E+02  0.00000000000E+00 0.  1.
<mgrwt>
<rscale>  0 0.93131842E+02</rscale>
<asrwt>0</asrwt>
<pdfrwt beam="2">  1        3 0.26530696E-02 0.93131842E+02</pdfrwt>
<pdfrwt beam="1">  1       -3 0.19344657E-01 0.93131842E+02</pdfrwt>
<totfact> 0.29964978E+04</totfact>
</mgrwt>
</event>
<event>
 7    1  0.1247599E-009  0.9219639E+02  0.7818608E-02  0.1297618E+00
         -3   -1    0    0    0  501 -0.00000000000E+00  0.00000000000E+00  0.29742901514E+02  0.29743072999E+02  0.10100000000E+00 0.  1.
          3   -1    0    0  501    0  0.00000000000E+00 -0.00000000000E+00 -0.71446678339E+02  0.71446749728E+02  0.10100000000E+00 0. -1.
         23    2    1    2    0    0  0.00000000000E+00 -0.35527136788E-14 -0.41703776826E+02  0.10118982273E+03  0.92196394843E+02 0.  0.
    9000005    2    3    3    0    0  0.10532161792E+01 -0.23717744459E+02 -0.63930025587E+02  0.68668340589E+02  0.80406567592E+01 0.  0.
         22    1    3    3    0    0 -0.10532161792E+01  0.23717744459E+02  0.22226248761E+02  0.32521482139E+02  0.00000000000E+00 0.  1.
         22    1    4    4    0    0 -0.55353991236E+00 -0.23374702434E+02 -0.58656919487E+02  0.63145208243E+02  0.00000000000E+00 0.  1.
         22    1    4    4    0    0  0.16067560916E+01 -0.34304202459E+00 -0.52731061001E+01  0.55231323460E+01  0.00000000000E+00 0.  1.
<mgrwt>
<rscale>  0 0.92196395E+02</rscale>
<asrwt>0</asrwt>
<pdfrwt beam="2">  1        3 0.10991815E-01 0.92196395E+02</pdfrwt>
<pdfrwt beam="1">  1       -3 0.45758497E-02 0.92196395E+02</pdfrwt>
<totfact> 0.33549754E+04</totfact>
</mgrwt>
</event>
<event>
 7    1  0.1247599E-009  0.9361977E+02  0.7818608E-02  0.1294315E+00
          3   -1    0    0  501    0  0.00000000000E+00  0.00000000000E+00  0.21340377618E+03  0.21340380008E+03  0.10100000000E+00 0. -1.
         -3   -1    0    0    0  501 -0.00000000000E+00 -0.00000000000E+00 -0.10267423914E+02  0.10267920668E+02  0.10100000000E+00 0.  1.
         23    2    1    2    0    0  0.00000000000E+00  0.00000000000E+00  0.20313635226E+03  0.22367172075E+03  0.93619768482E+02 0.  0.
    9000005    2    3    3    0    0 -0.27646238755E+02  0.26776030699E+01  0.19070874539E+03  0.19324263124E+03  0.14191718905E+02 0.  0.
         22    1    3    3    0    0  0.27646238755E+02 -0.26776030699E+01  0.12427606875E+02  0.30429089505E+02  0.00000000000E+00 0.  1.
         22    1    4    4    0    0 -0.73172935377E+01 -0.15088247996E+01  0.21405779106E+02  0.22672157289E+02  0.00000000000E+00 0.  1.
         22    1    4    4    0    0 -0.20328945217E+02  0.41864278696E+01  0.16930296628E+03  0.17057047395E+03  0.00000000000E+00 0.  1.
<mgrwt>
<rscale>  0 0.93619768E+02</rscale>
<asrwt>0</asrwt>
<pdfrwt beam="1">  1        3 0.32831388E-01 0.93619768E+02</pdfrwt>
<pdfrwt beam="2">  1       -3 0.15796438E-02 0.93619768E+02</pdfrwt>
<totfact> 0.25435682E+04</totfact>
</mgrwt>
</event>
<event>
 7    1  0.1247599E-009  0.8922699E+02  0.7818608E-02  0.1304735E+00
         -3   -1    0    0    0  501 -0.00000000000E+00  0.00000000000E+00  0.13634706338E+02  0.13635080415E+02  0.10100000000E+00 0.  1.
          3   -1    0    0  501    0  0.00000000000E+00 -0.00000000000E+00 -0.14597538465E+03  0.14597541959E+03  0.10100000000E+00 0. -1.
         23    2    1    2    0    0  0.35527136788E-14  0.00000000000E+00 -0.13234067831E+03  0.15961050001E+03  0.89226994660E+02 0.  0.
    9000005    2    3    3    0    0 -0.26965053076E+02  0.34249130207E+02 -0.52109751205E+02  0.68302676290E+02  0.70507028299E+01 0.  0.
         22    1    3    3    0    0  0.26965053076E+02 -0.34249130207E+02 -0.80230927108E+02  0.91307823717E+02  0.00000000000E+00 0. -1.
         22    1    4    4    0    0 -0.66934900798E+01  0.46770951949E+01 -0.11871818396E+02  0.14408959051E+02  0.00000000000E+00 0. -1.
         22    1    4    4    0    0 -0.20271562996E+02  0.29572035012E+02 -0.40237932808E+02  0.53893717238E+02  0.00000000000E+00 0. -1.
<mgrwt>
<rscale>  0 0.89226995E+02</rscale>
<asrwt>0</asrwt>
<pdfrwt beam="2">  1        3 0.22457782E-01 0.89226995E+02</pdfrwt>
<pdfrwt beam="1">  1       -3 0.20976787E-02 0.89226995E+02</pdfrwt>
<totfact> 0.32575371E+04</totfact>
</mgrwt>
</event>
<event>
 7    1  0.1247599E-009  0.9567836E+02  0.7818608E-02  0.1289656E+00
         -3   -1    0    0    0  501 -0.00000000000E+00  0.00000000000E+00  0.11365418104E+02  0.11365866869E+02  0.10100000000E+00 0.  1.
          3   -1    0    0  501    0  0.00000000000E+00 -0.00000000000E+00 -0.20135967938E+03  0.20135970471E+03  0.10100000000E+00 0. -1.
         23    2    1    2    0    0  0.00000000000E+00 -0.71054273576E-14 -0.18999426127E+03  0.21272557158E+03  0.95678364774E+02 0.  0.
    9000005    2    3    3    0    0 -0.65452831793E+01  0.41554886541E+02 -0.14307427372E+03  0.14970863291E+03  0.13144490803E+02 0.  0.
         22    1    3    3    0    0  0.65452831793E+01 -0.41554886541E+02 -0.46919987548E+02  0.63016938666E+02  0.00000000000E+00 0.  1.
         22    1    4    4    0    0  0.29166370901E-01  0.31221349064E+02 -0.11305883690E+03  0.11729055413E+03  0.00000000000E+00 0.  1.
         22    1    4    4    0    0 -0.65744495502E+01  0.10333537478E+02 -0.30015436826E+02  0.32418078776E+02  0.00000000000E+00 0.  1.
<mgrwt>
<rscale>  0 0.95678365E+02</rscale>
<asrwt>0</asrwt>
<pdfrwt beam="2">  1        3 0.30978446E-01 0.95678365E+02</pdfrwt>
<pdfrwt beam="1">  1       -3 0.17485625E-02 0.95678365E+02</pdfrwt>
<totfact> 0.24447396E+04</totfact>
</mgrwt>
</event>
<event>
 7    1  0.1247599E-009  0.8737470E+02  0.7818608E-02  0.1309337E+00
         -3   -1    0    0    0  501 -0.00000000000E+00  0.00000000000E+00  0.15932153670E+03  0.15932156871E+03  0.10100000000E+00 0.  1.
          3   -1    0    0  501    0  0.00000000000E+00 -0.00000000000E+00 -0.11979205931E+02  0.11979631703E+02  0.10100000000E+00 0. -1.
         23    2    1    2    0    0  0.00000000000E+00  0.00000000000E+00  0.14734233076E+03  0.17130120041E+03  0.87374703591E+02 0.  0.
    9000005    2    3    3    0    0 -0.23803060491E+02  0.63964507846E+01  0.14339646771E+03  0.14633982812E+03  0.15661994509E+02 0.  0.
         22    1    3    3    0    0  0.23803060491E+02 -0.63964507846E+01  0.39458630553E+01  0.24961372290E+02  0.00000000000E+00 0. -1.
         22    1    4    4    0    0 -0.35244888511E+01  0.65543292805E+01  0.21111073551E+02  0.22384340072E+02  0.00000000000E+00 0.  1.
         22    1    4    4    0    0 -0.20278571640E+02 -0.15787849592E+00  0.12228539416E+03  0.12395548805E+03  0.00000000000E+00 0.  1.
<mgrwt>
<rscale>  0 0.87374704E+02</rscale>
<asrwt>0</asrwt>
<pdfrwt beam="2">  1        3 0.18429900E-02 0.87374704E+02</pdfrwt>
<pdfrwt beam="1">  1       -3 0.24511040E-01 0.87374704E+02</pdfrwt>
<totfact> 0.33705225E+04</totfact>
</mgrwt>
</event>
<event>
 7    1  0.1247599E-009  0.9684045E+02  0.7818608E-02  0.1287084E+00
          3   -1    0    0  501    0  0.00000000000E+00  0.00000000000E+00  0.67470007331E+02  0.67470082928E+02  0.10100000000E+00 0. -1.
         -3   -1    0    0    0  501 -0.00000000000E+00 -0.00000000000E+00 -0.34748873722E+02  0.34749020504E+02  0.10100000000E+00 0.  1.
         23    2    1    2    0    0  0.00000000000E+00  0.00000000000E+00  0.32721133609E+02  0.10221910343E+03  0.96840448789E+02 0.  0.
    9000005    2    3    3    0    0  0.92494391012E+01  0.16789244437E+02 -0.29459175578E+02  0.37151279563E+02  0.12039256412E+02 0.  0.
         22    1    3    3    0    0 -0.92494391012E+01 -0.16789244437E+02  0.62180309187E+02  0.65067823869E+02  0.00000000000E+00 0. -1.
         22    1    4    4    0    0  0.11486301964E+02  0.92124708015E+01 -0.19728462090E+02  0.24617411877E+02  0.00000000000E+00 0. -1.
         22    1    4    4    0    0 -0.22368628624E+01  0.75767736352E+01 -0.97307134881E+01  0.12533867686E+02  0.00000000000E+00 0. -1.
<mgrwt>
<rscale>  0 0.96840449E+02</rscale>
<asrwt>0</asrwt>
<pdfrwt beam="1">  1        3 0.10380018E-01 0.96840449E+02</pdfrwt>
<pdfrwt beam="2">  1       -3 0.53459977E-02 0.96840449E+02</pdfrwt>
<totfact> 0.29264484E+04</totfact>
</mgrwt>
</event>
<event>
 7    1  0.1247599E-009  0.9167579E+02  0.7818608E-02  0.1298844E+00
         -3   -1    0    0    0  501 -0.00000000000E+00  0.00000000000E+00  0.35645727586E+01  0.35660033583E+01  0.10100000000E+00 0.  1.
          3   -1    0    0  501    0  0.00000000000E+00 -0.00000000000E+00 -0.58932332698E+03  0.58932333563E+03  0.10100000000E+00 0. -1.
         23    2    1    2    0    0  0.88817841970E-15  0.71054273576E-14 -0.58575875422E+03  0.59288933899E+03  0.91675788214E+02 0.  0.
    9000005    2    3    3    0    0 -0.38425506533E+01 -0.44915478752E+02 -0.33863482376E+03  0.34168742333E+03  0.66772726930E+01 0.  0.
         22    1    3    3    0    0  0.38425506533E+01  0.44915478752E+02 -0.24712393045E+03  0.25120191566E+03  0.00000000000E+00 0. -1.
         22    1    4    4    0    0 -0.35329154574E+01 -0.32081607330E+02 -0.26266959148E+03  0.26464509311E+03  0.00000000000E+00 0.  1.
         22    1    4    4    0    0 -0.30963519586E+00 -0.12833871422E+02 -0.75965232283E+02  0.77042330218E+02  0.00000000000E+00 0.  1.
<mgrwt>
<rscale>  0 0.91675788E+02</rscale>
<asrwt>0</asrwt>
<pdfrwt beam="2">  1        3 0.90665161E-01 0.91675788E+02</pdfrwt>
<pdfrwt beam="1">  1       -3 0.54850699E-03 0.91675788E+02</pdfrwt>
<totfact> 0.15639148E+04</totfact>
</mgrwt>
</event>
<event>
 7    1  0.1247599E-009  0.9894656E+02  0.7818608E-02  0.1282527E+00
         -3   -1    0    0    0  501 -0.00000000000E+00  0.00000000000E+00  0.23106977597E+01  0.23129040483E+01  0.10100000000E+00 0.  1.
          3   -1    0    0  501    0  0.00000000000E+00 -0.00000000000E+00 -0.10587417403E+04  0.10587417451E+04  0.10100000000E+00 0. -1.
         23    2    1    2    0    0  0.00000000000E+00 -0.44408920985E-15 -0.10564310426E+04  0.10610546492E+04  0.98946555643E+02 0.  0.
    9000005    2    3    3    0    0  0.30828110244E+02 -0.35732847983E+01 -0.93883312865E+03  0.93943059687E+03  0.12611983987E+02 0.  0.
         22    1    3    3    0    0 -0.30828110244E+02  0.35732847983E+01 -0.11759791390E+03  0.12162405231E+03  0.00000000000E+00 0. -1.
         22    1    4    4    0    0  0.23114278020E+02 -0.13590275536E+01 -0.81997176893E+03  0.82029861553E+03  0.00000000000E+00 0.  1.
         22    1    4    4    0    0  0.77138322244E+01 -0.22142572446E+01 -0.11886135972E+03  0.11913198134E+03  0.00000000000E+00 0.  1.
<mgrwt>
<rscale>  0 0.98946556E+02</rscale>
<asrwt>0</asrwt>
<pdfrwt beam="2">  1        3 0.16288313E+00 0.98946556E+02</pdfrwt>
<pdfrwt beam="1">  1       -3 0.35566289E-03 0.98946556E+02</pdfrwt>
<totfact> 0.75667890E+03</totfact>
</mgrwt>
</event>
<event>
 7    1  0.1247599E-009  0.9659638E+02  0.7818608E-02  0.1287621E+00
          3   -1    0    0  501    0  0.00000000000E+00  0.00000000000E+00  0.42291756245E+03  0.42291757451E+03  0.10100000000E+00 0. -1.
         -3   -1    0    0    0  501 -0.00000000000E+00 -0.00000000000E+00 -0.55152940103E+01  0.55162187248E+01  0.10100000000E+00 0.  1.
         23    2    1    2    0    0  0.00000000000E+00  0.71054273576E-14  0.41740226844E+03  0.42843379324E+03  0.96596384442E+02 0.  0.
    9000005    2    3    3    0    0 -0.20862811205E+02 -0.42358608937E+02  0.24378254375E+03  0.24850792671E+03  0.98362777217E+01 0.  0.
         22    1    3    3    0    0  0.20862811205E+02  0.42358608937E+02  0.17361972469E+03  0.17992586653E+03  0.00000000000E+00 0.  1.
         22    1    4    4    0    0 -0.49831736115E+01 -0.12067492886E+02  0.47198417548E+02  0.48970879335E+02  0.00000000000E+00 0. -1.
         22    1    4    4    0    0 -0.15879637594E+02 -0.30291116052E+02  0.19658412620E+03  0.19953704738E+03  0.00000000000E+00 0. -1.
<mgrwt>
<rscale>  0 0.96596384E+02</rscale>
<asrwt>0</asrwt>
<pdfrwt beam="1">  1        3 0.65064294E-01 0.96596384E+02</pdfrwt>
<pdfrwt beam="2">  1       -3 0.84857908E-03 0.96596384E+02</pdfrwt>
<totfact> 0.16943776E+04</totfact>
</mgrwt>
</event>
<event>
 7    1  0.1247599E-009  0.9434252E+02  0.7818608E-02  0.1292664E+00
          3   -1    0    0  501    0  0.00000000000E+00  0.00000000000E+00  0.75758304285E+02  0.75758371611E+02  0.10100000000E+00 0.  1.
         -3   -1    0    0    0  501 -0.00000000000E+00 -0.00000000000E+00 -0.29371237293E+02  0.29371410949E+02  0.10100000000E+00 0. -1.
         23    2    1    2    0    0  0.00000000000E+00  0.00000000000E+00  0.46387066992E+02  0.10512978256E+03  0.94342520620E+02 0.  0.
    9000005    2    3    3    0    0 -0.23803886631E+02  0.28075391092E+02  0.55768578225E+02  0.67144715011E+02  0.65898279970E+01 0.  0.
         22    1    3    3    0    0  0.23803886631E+02 -0.28075391092E+02 -0.93815112328E+01  0.37985067549E+02  0.00000000000E+00 0. -1.
         22    1    4    4    0    0 -0.16114693215E+02  0.14805294430E+02  0.29564056583E+02  0.36781972789E+02  0.00000000000E+00 0.  1.
         22    1    4    4    0    0 -0.76891934151E+01  0.13270096661E+02  0.26204521642E+02  0.30362742222E+02  0.00000000000E+00 0.  1.
<mgrwt>
<rscale>  0 0.94342521E+02</rscale>
<asrwt>0</asrwt>
<pdfrwt beam="1">  1        3 0.11655142E-01 0.94342521E+02</pdfrwt>
<pdfrwt beam="2">  1       -3 0.45186705E-02 0.94342521E+02</pdfrwt>
<totfact> 0.31243814E+04</totfact>
</mgrwt>
</event>
<event>
 7    1  0.1247599E-009  0.8946616E+02  0.7818608E-02  0.1304150E+00
          3   -1    0    0  501    0  0.00000000000E+00  0.00000000000E+00  0.14218442737E+03  0.14218446324E+03  0.10100000000E+00 0. -1.
         -3   -1    0    0    0  501 -0.00000000000E+00 -0.00000000000E+00 -0.14073391573E+02  0.14073753989E+02  0.10100000000E+00 0.  1.
         23    2    1    2    0    0  0.00000000000E+00  0.00000000000E+00  0.12811103580E+03  0.15625821723E+03  0.89466155385E+02 0.  0.
    9000005    2    3    3    0    0 -0.34888369534E+01  0.34592707244E+02  0.11126824944E+03  0.11762524129E+03  0.15692248970E+02 0.  0.
         22    1    3    3    0    0  0.34888369534E+01 -0.34592707244E+02  0.16842786358E+02  0.38632975941E+02  0.00000000000E+00 0.  1.
         22    1    4    4    0    0 -0.40369345250E+01  0.29672843569E+02  0.71043627251E+02  0.77097155971E+02  0.00000000000E+00 0.  1.
         22    1    4    4    0    0  0.54809757164E+00  0.49198636748E+01  0.40224622187E+02  0.40528085319E+02  0.00000000000E+00 0.  1.
<mgrwt>
<rscale>  0 0.89466155E+02</rscale>
<asrwt>0</asrwt>
<pdfrwt beam="1">  1        3 0.21874557E-01 0.89466155E+02</pdfrwt>
<pdfrwt beam="2">  1       -3 0.21651679E-02 0.89466155E+02</pdfrwt>
<totfact> 0.32551310E+04</totfact>
</mgrwt>
</event>
