<event>
 7    1  0.3607059E-009  0.9062540E+02  0.7818608E-02  0.1301344E+00
          1   -1    0    0  501    0  0.00000000000E+00  0.00000000000E+00  0.26899902528E+02  0.26899903001E+02  0.50400000000E-02 0. -1.
         -1   -1    0    0    0  501 -0.00000000000E+00 -0.00000000000E+00 -0.76328932308E+02  0.76328932475E+02  0.50400000000E-02 0.  1.
         23    2    1    2    0    0  0.00000000000E+00  0.00000000000E+00 -0.49429029780E+02  0.10322883548E+03  0.90625402005E+02 0.  0.
    9000005    2    3    3    0    0 -0.61297431120E+01  0.13676386704E+02 -0.73309754083E+02  0.75034752813E+02  0.55925648928E+01 0.  0.
         22    1    3    3    0    0  0.61297431120E+01 -0.13676386704E+02  0.23880724303E+02  0.28194082662E+02  0.00000000000E+00 0. -1.
         22    1    4    4    0    0 -0.50389238349E+01  0.87559901402E+01 -0.36159797268E+02  0.37544494340E+02  0.00000000000E+00 0. -1.
         22    1    4    4    0    0 -0.10908192771E+01  0.49203965640E+01 -0.37149956815E+02  0.37490258473E+02  0.00000000000E+00 0. -1.
<mgrwt>
<rscale>  0 0.90625402E+02</rscale>
<asrwt>0</asrwt>
<pdfrwt beam="1">  1        1 0.41384466E-02 0.90625402E+02</pdfrwt>
<pdfrwt beam="2">  1       -1 0.11742913E-01 0.90625402E+02</pdfrwt>
<totfact> 0.86652601E+04</totfact>
</mgrwt>
</event>
<event>
 7    1  0.3607059E-009  0.8554967E+02  0.7818608E-02  0.1314001E+00
          1   -1    0    0  501    0  0.00000000000E+00  0.00000000000E+00  0.70007750440E+02  0.70007750621E+02  0.50400000000E-02 0. -1.
         -1   -1    0    0    0  501 -0.00000000000E+00 -0.00000000000E+00 -0.26135484891E+02  0.26135485377E+02  0.50400000000E-02 0.  1.
         23    2    1    2    0    0  0.00000000000E+00 -0.71054273576E-14  0.43872265549E+02  0.96143235999E+02  0.85549670624E+02 0.  0.
    9000005    2    3    3    0    0 -0.11774859191E+02  0.40347884855E+02  0.18951649895E+02  0.47279791526E+02  0.10469695875E+02 0.  0.
         22    1    3    3    0    0  0.11774859191E+02 -0.40347884855E+02  0.24920615653E+02  0.48863444473E+02  0.00000000000E+00 0. -1.
         22    1    4    4    0    0 -0.87102152399E+01  0.36772843906E+02  0.13628182427E+02  0.40172593328E+02  0.00000000000E+00 0. -1.
         22    1    4    4    0    0 -0.30646439509E+01  0.35750409493E+01  0.53234674679E+01  0.71071981974E+01  0.00000000000E+00 0. -1.
<mgrwt>
<rscale>  0 0.85549671E+02</rscale>
<asrwt>0</asrwt>
<pdfrwt beam="1">  1        1 0.10770423E-01 0.85549671E+02</pdfrwt>
<pdfrwt beam="2">  1       -1 0.40208439E-02 0.85549671E+02</pdfrwt>
<totfact> 0.11750843E+05</totfact>
</mgrwt>
</event>
<event>
 7    1  0.3607059E-009  0.9316385E+02  0.7818608E-02  0.1295366E+00
         -1   -1    0    0    0  501 -0.00000000000E+00  0.00000000000E+00  0.33044875186E+03  0.33044875190E+03  0.50400000000E-02 0.  1.
          1   -1    0    0  501    0  0.00000000000E+00 -0.00000000000E+00 -0.65664502370E+01  0.65664521712E+01  0.50400000000E-02 0. -1.
         23    2    1    2    0    0 -0.71054273576E-14  0.00000000000E+00  0.32388230163E+03  0.33701520407E+03  0.93163847439E+02 0.  0.
    9000005    2    3    3    0    0 -0.43765648030E+02  0.84575989625E+01  0.12871288545E+03  0.13682013935E+03  0.12875586350E+02 0.  0.
         22    1    3    3    0    0  0.43765648030E+02 -0.84575989625E+01  0.19516941618E+03  0.20019506473E+03  0.00000000000E+00 0. -1.
         22    1    4    4    0    0 -0.28822370329E+02  0.34512309689E+01  0.99240025245E+02  0.10339836864E+03  0.00000000000E+00 0. -1.
         22    1    4    4    0    0 -0.14943277702E+02  0.50063679936E+01  0.29472860201E+02  0.33421770710E+02  0.00000000000E+00 0. -1.
<mgrwt>
<rscale>  0 0.93163847E+02</rscale>
<asrwt>0</asrwt>
<pdfrwt beam="2">  1        1 0.10102237E-02 0.93163847E+02</pdfrwt>
<pdfrwt beam="1">  1       -1 0.50838247E-01 0.93163847E+02</pdfrwt>
<totfact> 0.55033822E+04</totfact>
</mgrwt>
</event>
<event>
 7    1  0.3607059E-009  0.9123230E+02  0.7818608E-02  0.1299895E+00
          1   -1    0    0  501    0  0.00000000000E+00  0.00000000000E+00  0.21412509569E+03  0.21412509575E+03  0.50400000000E-02 0. -1.
         -1   -1    0    0    0  501 -0.00000000000E+00 -0.00000000000E+00 -0.97178378087E+01  0.97178391156E+01  0.50400000000E-02 0.  1.
         23    2    1    2    0    0  0.00000000000E+00  0.00000000000E+00  0.20440725788E+03  0.22384293486E+03  0.91232299183E+02 0.  0.
    9000005    2    3    3    0    0  0.48322290184E+01 -0.33545181621E+02  0.28904876674E+02  0.45098101495E+02  0.70510435838E+01 0.  0.
         22    1    3    3    0    0 -0.48322290184E+01  0.33545181621E+02  0.17550238120E+03  0.17874483337E+03  0.00000000000E+00 0. -1.
         22    1    4    4    0    0 -0.16210814668E+01 -0.38577998263E+01  0.27251896959E+01  0.49937143991E+01  0.00000000000E+00 0. -1.
         22    1    4    4    0    0  0.64533104851E+01 -0.29687381794E+02  0.26179686979E+02  0.40104387096E+02  0.00000000000E+00 0. -1.
<mgrwt>
<rscale>  0 0.91232299E+02</rscale>
<asrwt>0</asrwt>
<pdfrwt beam="1">  1        1 0.32942320E-01 0.91232299E+02</pdfrwt>
<pdfrwt beam="2">  1       -1 0.14950522E-02 0.91232299E+02</pdfrwt>
<totfact> 0.11979263E+05</totfact>
</mgrwt>
</event>
<event>
 7    1  0.3607059E-009  0.9169561E+02  0.7818608E-02  0.1298797E+00
          1   -1    0    0  501    0  0.00000000000E+00  0.00000000000E+00  0.15615133754E+03  0.15615133762E+03  0.50400000000E-02 0. -1.
         -1   -1    0    0    0  501 -0.00000000000E+00 -0.00000000000E+00 -0.13461434645E+02  0.13461435588E+02  0.50400000000E-02 0.  1.
         23    2    1    2    0    0  0.00000000000E+00  0.00000000000E+00  0.14268990289E+03  0.16961277321E+03  0.91695607568E+02 0.  0.
    9000005    2    3    3    0    0 -0.13542626524E+02 -0.39156915159E+02  0.10631835888E+03  0.11448060517E+03  0.92492588190E+01 0.  0.
         22    1    3    3    0    0  0.13542626524E+02  0.39156915159E+02  0.36371544015E+02  0.55132168033E+02  0.00000000000E+00 0.  1.
         22    1    4    4    0    0 -0.14355362653E+02 -0.33568761241E+02  0.86901356865E+02  0.94259132147E+02  0.00000000000E+00 0. -1.
         22    1    4    4    0    0  0.81273612969E+00 -0.55881539181E+01  0.19417002011E+02  0.20221473025E+02  0.00000000000E+00 0. -1.
<mgrwt>
<rscale>  0 0.91695608E+02</rscale>
<asrwt>0</asrwt>
<pdfrwt beam="1">  1        1 0.24023281E-01 0.91695608E+02</pdfrwt>
<pdfrwt beam="2">  1       -1 0.20709901E-02 0.91695608E+02</pdfrwt>
<totfact> 0.11125141E+05</totfact>
</mgrwt>
</event>
<event>
 7    1  0.3607059E-009  0.9331943E+02  0.7818608E-02  0.1295007E+00
          1   -1    0    0  501    0  0.00000000000E+00  0.00000000000E+00  0.10842348664E+02  0.10842349836E+02  0.50400000000E-02 0. -1.
         -1   -1    0    0    0  501 -0.00000000000E+00 -0.00000000000E+00 -0.20079863584E+03  0.20079863590E+03  0.50400000000E-02 0.  1.
         23    2    1    2    0    0  0.00000000000E+00 -0.35527136788E-14 -0.18995628717E+03  0.21164098573E+03  0.93319428881E+02 0.  0.
    9000005    2    3    3    0    0 -0.20782207933E+02 -0.21612896625E+02 -0.17557755032E+03  0.17838793263E+03  0.97857481036E+01 0.  0.
         22    1    3    3    0    0  0.20782207933E+02  0.21612896625E+02 -0.14378736851E+02  0.33253053101E+02  0.00000000000E+00 0. -1.
         22    1    4    4    0    0 -0.14925179179E+02 -0.14687327696E+02 -0.14465005457E+03  0.14615784911E+03  0.00000000000E+00 0.  1.
         22    1    4    4    0    0 -0.58570287541E+01 -0.69255689283E+01 -0.30927495750E+02  0.32230083528E+02  0.00000000000E+00 0.  1.
<mgrwt>
<rscale>  0 0.93319429E+02</rscale>
<asrwt>0</asrwt>
<pdfrwt beam="1">  1        1 0.16680539E-02 0.93319429E+02</pdfrwt>
<pdfrwt beam="2">  1       -1 0.30892095E-01 0.93319429E+02</pdfrwt>
<totfact> 0.65267237E+04</totfact>
</mgrwt>
</event>
<event>
 7    1  0.3607059E-009  0.9905987E+02  0.7818608E-02  0.1282285E+00
         -1   -1    0    0    0  501 -0.00000000000E+00  0.00000000000E+00  0.26959311852E+03  0.26959311856E+03  0.50400000000E-02 0.  1.
          1   -1    0    0  501    0  0.00000000000E+00 -0.00000000000E+00 -0.90996921553E+01  0.90996935511E+01  0.50400000000E-02 0. -1.
         23    2    1    2    0    0  0.00000000000E+00  0.00000000000E+00  0.26049342636E+03  0.27869281211E+03  0.99059872537E+02 0.  0.
    9000005    2    3    3    0    0 -0.18271864851E+02  0.21573997370E+02  0.24400251515E+03  0.24596287841E+03  0.12696918911E+02 0.  0.
         22    1    3    3    0    0  0.18271864851E+02 -0.21573997370E+02  0.16490911214E+02  0.32729933705E+02  0.00000000000E+00 0. -1.
         22    1    4    4    0    0 -0.12363964326E+02  0.10286301200E+02  0.17916943078E+03  0.17988985667E+03  0.00000000000E+00 0.  1.
         22    1    4    4    0    0 -0.59079005248E+01  0.11287696170E+02  0.64833084363E+02  0.66073021737E+02  0.00000000000E+00 0.  1.
<mgrwt>
<rscale>  0 0.99059873E+02</rscale>
<asrwt>0</asrwt>
<pdfrwt beam="2">  1        1 0.13999530E-02 0.99059873E+02</pdfrwt>
<pdfrwt beam="1">  1       -1 0.41475858E-01 0.99059873E+02</pdfrwt>
<totfact> 0.50754506E+04</totfact>
</mgrwt>
</event>
<event>
 7    1  0.3607059E-009  0.9197843E+02  0.7818608E-02  0.1298130E+00
         -1   -1    0    0    0  501 -0.00000000000E+00  0.00000000000E+00  0.17402676097E+02  0.17402676827E+02  0.50400000000E-02 0.  1.
          1   -1    0    0  501    0  0.00000000000E+00 -0.00000000000E+00 -0.12153349070E+03  0.12153349081E+03  0.50400000000E-02 0. -1.
         23    2    1    2    0    0  0.00000000000E+00  0.00000000000E+00 -0.10413081461E+03  0.13893616764E+03  0.91978432943E+02 0.  0.
    9000005    2    3    3    0    0 -0.21573824812E+02  0.34171584722E+02 -0.82993899192E+02  0.93330287394E+02  0.13763288945E+02 0.  0.
         22    1    3    3    0    0  0.21573824812E+02 -0.34171584722E+02 -0.21136915416E+02  0.45605880243E+02  0.00000000000E+00 0.  1.
         22    1    4    4    0    0 -0.60415578880E+01  0.21968868727E+02 -0.48390353838E+02  0.53486053878E+02  0.00000000000E+00 0.  1.
         22    1    4    4    0    0 -0.15532266924E+02  0.12202715995E+02 -0.34603545354E+02  0.39844233516E+02  0.00000000000E+00 0.  1.
<mgrwt>
<rscale>  0 0.91978433E+02</rscale>
<asrwt>0</asrwt>
<pdfrwt beam="2">  1        1 0.18697460E-01 0.91978433E+02</pdfrwt>
<pdfrwt beam="1">  1       -1 0.26773349E-02 0.91978433E+02</pdfrwt>
<totfact> 0.10544114E+05</totfact>
</mgrwt>
</event>
<event>
 7    1  0.3607059E-009  0.9088206E+02  0.7818608E-02  0.1300730E+00
          1   -1    0    0  501    0  0.00000000000E+00  0.00000000000E+00  0.22198153538E+02  0.22198154110E+02  0.50400000000E-02 0. -1.
         -1   -1    0    0    0  501 -0.00000000000E+00 -0.00000000000E+00 -0.93020669148E+02  0.93020669285E+02  0.50400000000E-02 0.  1.
         23    2    1    2    0    0  0.71054273576E-14  0.00000000000E+00 -0.70822515610E+02  0.11521882340E+03  0.90882058445E+02 0.  0.
    9000005    2    3    3    0    0 -0.32210222947E+02 -0.28089942353E+02 -0.52877159766E+02  0.68866055193E+02  0.10954278123E+02 0.  0.
         22    1    3    3    0    0  0.32210222947E+02  0.28089942353E+02 -0.17945355844E+02  0.46352768203E+02  0.00000000000E+00 0. -1.
         22    1    4    4    0    0 -0.68318019780E+01 -0.45296396813E+01 -0.17691553931E+02  0.19498262344E+02  0.00000000000E+00 0. -1.
         22    1    4    4    0    0 -0.25378420969E+02 -0.23560302672E+02 -0.35185605835E+02  0.49367792849E+02  0.00000000000E+00 0. -1.
<mgrwt>
<rscale>  0 0.90882058E+02</rscale>
<asrwt>0</asrwt>
<pdfrwt beam="1">  1        1 0.34151006E-02 0.90882058E+02</pdfrwt>
<pdfrwt beam="2">  1       -1 0.14310872E-01 0.90882058E+02</pdfrwt>
<totfact> 0.83143606E+04</totfact>
</mgrwt>
</event>
<event>
 7    1  0.3607059E-009  0.9222249E+02  0.7818608E-02  0.1297557E+00
          1   -1    0    0  501    0  0.00000000000E+00  0.00000000000E+00  0.20305277681E+02  0.20305278307E+02  0.50400000000E-02 0. -1.
         -1   -1    0    0    0  501 -0.00000000000E+00 -0.00000000000E+00 -0.10471400545E+03  0.10471400557E+03  0.50400000000E-02 0.  1.
         23    2    1    2    0    0  0.00000000000E+00  0.71054273576E-14 -0.84408727768E+02  0.12501928388E+03  0.92222491931E+02 0.  0.
    9000005    2    3    3    0    0 -0.64000499052E+01  0.38156006775E+02 -0.10538664248E+02  0.41630868757E+02  0.11190366286E+02 0.  0.
         22    1    3    3    0    0  0.64000499052E+01 -0.38156006775E+02 -0.73870063521E+02  0.83388415121E+02  0.00000000000E+00 0.  1.
         22    1    4    4    0    0 -0.50175008499E+00  0.68311669129E+01  0.23598978841E+01  0.72447023792E+01  0.00000000000E+00 0. -1.
         22    1    4    4    0    0 -0.58982998203E+01  0.31324839862E+02 -0.12898562132E+02  0.34386166378E+02  0.00000000000E+00 0. -1.
<mgrwt>
<rscale>  0 0.92222492E+02</rscale>
<asrwt>0</asrwt>
<pdfrwt beam="1">  1        1 0.31238890E-02 0.92222492E+02</pdfrwt>
<pdfrwt beam="2">  1       -1 0.16109847E-01 0.92222492E+02</pdfrwt>
<totfact> 0.78329157E+04</totfact>
</mgrwt>
</event>
<event>
 7    1  0.3607059E-009  0.8477336E+02  0.7818608E-02  0.1316026E+00
          1   -1    0    0  501    0  0.00000000000E+00  0.00000000000E+00  0.18131951340E+02  0.18131952040E+02  0.50400000000E-02 0. -1.
         -1   -1    0    0    0  501 -0.00000000000E+00 -0.00000000000E+00 -0.99086441691E+02  0.99086441819E+02  0.50400000000E-02 0.  1.
         23    2    1    2    0    0  0.00000000000E+00 -0.35527136788E-14 -0.80954490351E+02  0.11721839386E+03  0.84773358733E+02 0.  0.
    9000005    2    3    3    0    0  0.80892464540E+01 -0.24435367306E+02 -0.86618349286E+02  0.90863083547E+02  0.95309199456E+01 0.  0.
         22    1    3    3    0    0 -0.80892464540E+01  0.24435367306E+02  0.56638589354E+01  0.26355310312E+02  0.00000000000E+00 0. -1.
         22    1    4    4    0    0 -0.33613030105E+00  0.77180515519E+00 -0.34495754855E+01  0.35508080499E+01  0.00000000000E+00 0.  1.
         22    1    4    4    0    0  0.84253767551E+01 -0.25207172462E+02 -0.83168773801E+02  0.87312275497E+02  0.00000000000E+00 0.  1.
<mgrwt>
<rscale>  0 0.84773359E+02</rscale>
<asrwt>0</asrwt>
<pdfrwt beam="1">  1        1 0.27895311E-02 0.84773359E+02</pdfrwt>
<pdfrwt beam="2">  1       -1 0.15244068E-01 0.84773359E+02</pdfrwt>
<totfact> 0.98278929E+04</totfact>
</mgrwt>
</event>
<event>
 7    1  0.3607059E-009  0.9082930E+02  0.7818608E-02  0.1300856E+00
          1   -1    0    0  501    0  0.00000000000E+00  0.00000000000E+00  0.51699775238E+03  0.51699775240E+03  0.50400000000E-02 0. -1.
         -1   -1    0    0    0  501 -0.00000000000E+00 -0.00000000000E+00 -0.39893587766E+01  0.39893619603E+01  0.50400000000E-02 0.  1.
         23    2    1    2    0    0  0.00000000000E+00  0.00000000000E+00  0.51300839360E+03  0.52098711436E+03  0.90829298283E+02 0.  0.
    9000005    2    3    3    0    0  0.22572837236E+02 -0.37698547386E+02  0.28437663840E+03  0.28817132250E+03  0.15553944381E+02 0.  0.
         22    1    3    3    0    0 -0.22572837236E+02  0.37698547386E+02  0.22863175519E+03  0.23281579186E+03  0.00000000000E+00 0.  1.
         22    1    4    4    0    0  0.17131122573E+02 -0.17108284228E+02  0.18197095320E+03  0.18357449866E+03  0.00000000000E+00 0.  1.
         22    1    4    4    0    0  0.54417146624E+01 -0.20590263157E+02  0.10240568521E+03  0.10459682384E+03  0.00000000000E+00 0.  1.
<mgrwt>
<rscale>  0 0.90829298E+02</rscale>
<asrwt>0</asrwt>
<pdfrwt beam="1">  1        1 0.79538103E-01 0.90829298E+02</pdfrwt>
<pdfrwt beam="2">  1       -1 0.61374785E-03 0.90829298E+02</pdfrwt>
<totfact> 0.14121579E+05</totfact>
</mgrwt>
</event>
<event>
 7    1  0.3607059E-009  0.9262800E+02  0.7818608E-02  0.1296610E+00
         -1   -1    0    0    0  501 -0.00000000000E+00  0.00000000000E+00  0.17026578461E+02  0.17026579207E+02  0.50400000000E-02 0.  1.
          1   -1    0    0  501    0  0.00000000000E+00 -0.00000000000E+00 -0.12597871564E+03  0.12597871574E+03  0.50400000000E-02 0. -1.
         23    2    1    2    0    0  0.00000000000E+00  0.00000000000E+00 -0.10895213718E+03  0.14300529495E+03  0.92627998938E+02 0.  0.
    9000005    2    3    3    0    0 -0.45787906542E+01 -0.24569604286E+02  0.34204135055E+01  0.27887003934E+02  0.11889280097E+02 0.  0.
         22    1    3    3    0    0  0.45787906542E+01  0.24569604286E+02 -0.11237255068E+03  0.11511829101E+03  0.00000000000E+00 0. -1.
         22    1    4    4    0    0  0.16295623071E+00 -0.59945690385E+01 -0.41317518167E+01  0.72823612767E+01  0.00000000000E+00 0. -1.
         22    1    4    4    0    0 -0.47417468849E+01 -0.18575035248E+02  0.75521653223E+01  0.20604642657E+02  0.00000000000E+00 0. -1.
<mgrwt>
<rscale>  0 0.92627999E+02</rscale>
<asrwt>0</asrwt>
<pdfrwt beam="2">  1        1 0.19381340E-01 0.92627999E+02</pdfrwt>
<pdfrwt beam="1">  1       -1 0.26194738E-02 0.92627999E+02</pdfrwt>
<totfact> 0.10410256E+05</totfact>
</mgrwt>
</event>
<event>
 7    1  0.3607059E-009  0.9337845E+02  0.7818608E-02  0.1294871E+00
          1   -1    0    0  501    0  0.00000000000E+00  0.00000000000E+00  0.31196319156E+03  0.31196319160E+03  0.50400000000E-02 0. -1.
         -1   -1    0    0    0  501 -0.00000000000E+00 -0.00000000000E+00 -0.69876297462E+01  0.69876315638E+01  0.50400000000E-02 0.  1.
         23    2    1    2    0    0  0.00000000000E+00 -0.88817841970E-15  0.30497556181E+03  0.31895082316E+03  0.93378446622E+02 0.  0.
    9000005    2    3    3    0    0  0.24143627426E+02 -0.58679963942E+01  0.28686493648E+03  0.28820439448E+03  0.12366611772E+02 0.  0.
         22    1    3    3    0    0 -0.24143627426E+02  0.58679963942E+01  0.18110625328E+02  0.30746428683E+02  0.00000000000E+00 0.  1.
         22    1    4    4    0    0  0.66491242811E+01 -0.13198693564E-01  0.32605295924E+02  0.33276363236E+02  0.00000000000E+00 0. -1.
         22    1    4    4    0    0  0.17494503145E+02 -0.58547977006E+01  0.25425964056E+03  0.25492803124E+03  0.00000000000E+00 0. -1.
<mgrwt>
<rscale>  0 0.93378447E+02</rscale>
<asrwt>0</asrwt>
<pdfrwt beam="1">  1        1 0.47994348E-01 0.93378447E+02</pdfrwt>
<pdfrwt beam="2">  1       -1 0.10750199E-02 0.93378447E+02</pdfrwt>
<totfact> 0.12111424E+05</totfact>
</mgrwt>
</event>
<event>
 7    1  0.3607059E-009  0.8969030E+02  0.7818608E-02  0.1303603E+00
         -1   -1    0    0    0  501 -0.00000000000E+00  0.00000000000E+00  0.13495889046E+03  0.13495889055E+03  0.50400000000E-02 0.  1.
          1   -1    0    0  501    0  0.00000000000E+00 -0.00000000000E+00 -0.14901480401E+02  0.14901481253E+02  0.50400000000E-02 0. -1.
         23    2    1    2    0    0  0.17763568394E-14  0.00000000000E+00  0.12005741006E+03  0.14986037180E+03  0.89690296732E+02 0.  0.
    9000005    2    3    3    0    0 -0.13715777325E+02 -0.15287156430E+02 -0.30987672843E+01  0.25003398765E+02  0.13919335176E+02 0.  0.
         22    1    3    3    0    0  0.13715777325E+02  0.15287156430E+02  0.12315617734E+03  0.12485697304E+03  0.00000000000E+00 0.  1.
         22    1    4    4    0    0 -0.16076059833E+02 -0.10695983720E+02 -0.72847812524E+00  0.19322899572E+02  0.00000000000E+00 0. -1.
         22    1    4    4    0    0  0.23602825084E+01 -0.45911727107E+01 -0.23702891591E+01  0.56804991925E+01  0.00000000000E+00 0. -1.
<mgrwt>
<rscale>  0 0.89690297E+02</rscale>
<asrwt>0</asrwt>
<pdfrwt beam="2">  1        1 0.22925355E-02 0.89690297E+02</pdfrwt>
<pdfrwt beam="1">  1       -1 0.20762906E-01 0.89690297E+02</pdfrwt>
<totfact> 0.79929432E+04</totfact>
</mgrwt>
</event>
<event>
 7    1  0.3607059E-009  0.8940641E+02  0.7818608E-02  0.1304296E+00
          1   -1    0    0  501    0  0.00000000000E+00  0.00000000000E+00  0.18128566283E+02  0.18128566983E+02  0.50400000000E-02 0. -1.
         -1   -1    0    0    0  501 -0.00000000000E+00 -0.00000000000E+00 -0.11023355440E+03  0.11023355452E+03  0.50400000000E-02 0.  1.
         23    2    1    2    0    0  0.00000000000E+00  0.23592239273E-15 -0.92104988120E+02  0.12836212150E+03  0.89406405809E+02 0.  0.
    9000005    2    3    3    0    0  0.25507715987E+02 -0.34802749867E-01 -0.98195684180E+02  0.10213729806E+03  0.11789422238E+02 0.  0.
         22    1    3    3    0    0 -0.25507715987E+02  0.34802749867E-01  0.60906960609E+01  0.26224823443E+02  0.00000000000E+00 0. -1.
         22    1    4    4    0    0  0.99502498751E+01  0.36541111572E+01 -0.23971598477E+02  0.26210637811E+02  0.00000000000E+00 0. -1.
         22    1    4    4    0    0  0.15557466112E+02 -0.36889139071E+01 -0.74224085704E+02  0.75926660247E+02  0.00000000000E+00 0. -1.
<mgrwt>
<rscale>  0 0.89406406E+02</rscale>
<asrwt>0</asrwt>
<pdfrwt beam="1">  1        1 0.27890103E-02 0.89406406E+02</pdfrwt>
<pdfrwt beam="2">  1       -1 0.16959008E-01 0.89406406E+02</pdfrwt>
<totfact> 0.84014955E+04</totfact>
</mgrwt>
</event>
<event>
 7    1  0.3607059E-009  0.9177224E+02  0.7818608E-02  0.1298616E+00
         -1   -1    0    0    0  501 -0.00000000000E+00  0.00000000000E+00  0.30977089927E+03  0.30977089931E+03  0.50400000000E-02 0.  1.
          1   -1    0    0  501    0  0.00000000000E+00 -0.00000000000E+00 -0.67970746474E+01  0.67970765159E+01  0.50400000000E-02 0. -1.
         23    2    1    2    0    0  0.00000000000E+00  0.00000000000E+00  0.30297382462E+03  0.31656797583E+03  0.91772244784E+02 0.  0.
    9000005    2    3    3    0    0 -0.82460683316E+01 -0.20980789391E+02  0.28888314370E+03  0.28998342288E+03  0.11345645196E+02 0.  0.
         22    1    3    3    0    0  0.82460683316E+01  0.20980789391E+02  0.14090680918E+02  0.26584552942E+02  0.00000000000E+00 0. -1.
         22    1    4    4    0    0 -0.53622538264E+01 -0.20373835009E+02  0.21210024867E+03  0.21314399454E+03  0.00000000000E+00 0. -1.
         22    1    4    4    0    0 -0.28838145052E+01 -0.60695438177E+00  0.76782895030E+02  0.76839428348E+02  0.00000000000E+00 0. -1.
<mgrwt>
<rscale>  0 0.91772245E+02</rscale>
<asrwt>0</asrwt>
<pdfrwt beam="2">  1        1 0.10457038E-02 0.91772245E+02</pdfrwt>
<pdfrwt beam="1">  1       -1 0.47657066E-01 0.91772245E+02</pdfrwt>
<totfact> 0.58805851E+04</totfact>
</mgrwt>
</event>
<event>
 7    1  0.3607059E-009  0.9008344E+02  0.7818608E-02  0.1302650E+00
          1   -1    0    0  501    0  0.00000000000E+00  0.00000000000E+00  0.98946383000E+03  0.98946383002E+03  0.50400000000E-02 0.  1.
         -1   -1    0    0    0  501 -0.00000000000E+00 -0.00000000000E+00 -0.20503562665E+01  0.20503624610E+01  0.50400000000E-02 0. -1.
         23    2    1    2    0    0  0.00000000000E+00  0.00000000000E+00  0.98741347374E+03  0.99151419248E+03  0.90083437804E+02 0.  0.
    9000005    2    3    3    0    0 -0.28556089174E+02  0.20125783802E+02  0.80463186047E+03  0.80542385003E+03  0.73925581709E+01 0.  0.
         22    1    3    3    0    0  0.28556089174E+02 -0.20125783802E+02  0.18278161327E+03  0.18609034245E+03  0.00000000000E+00 0.  1.
         22    1    4    4    0    0 -0.39995302830E+01  0.10340885132E+00  0.99878292445E+02  0.99958392532E+02  0.00000000000E+00 0.  1.
         22    1    4    4    0    0 -0.24556558891E+02  0.20022374950E+02  0.70475356802E+03  0.70546545750E+03  0.00000000000E+00 0.  1.
<mgrwt>
<rscale>  0 0.90083438E+02</rscale>
<asrwt>0</asrwt>
<pdfrwt beam="1">  1        1 0.15222529E+00 0.90083438E+02</pdfrwt>
<pdfrwt beam="2">  1       -1 0.31543974E-03 0.90083438E+02</pdfrwt>
<totfact> 0.14080905E+05</totfact>
</mgrwt>
</event>
<event>
 7    1  0.3607059E-009  0.8995934E+02  0.7818608E-02  0.1302950E+00
         -1   -1    0    0    0  501 -0.00000000000E+00  0.00000000000E+00  0.59619093955E+02  0.59619094168E+02  0.50400000000E-02 0.  1.
          1   -1    0    0  501    0  0.00000000000E+00 -0.00000000000E+00 -0.33934948043E+02  0.33934948417E+02  0.50400000000E-02 0. -1.
         23    2    1    2    0    0  0.00000000000E+00  0.00000000000E+00  0.25684145912E+02  0.93554042585E+02  0.89959343777E+02 0.  0.
    9000005    2    3    3    0    0 -0.17761211344E+02 -0.12475159023E+02  0.53521602112E+02  0.58255116415E+02  0.76161981886E+01 0.  0.
         22    1    3    3    0    0  0.17761211344E+02  0.12475159023E+02 -0.27837456200E+02  0.35298926170E+02  0.00000000000E+00 0. -1.
         22    1    4    4    0    0 -0.61956316500E+01 -0.29971551213E+01  0.26423378822E+02  0.27305013069E+02  0.00000000000E+00 0. -1.
         22    1    4    4    0    0 -0.11565579694E+02 -0.94780039019E+01  0.27098223290E+02  0.30950103346E+02  0.00000000000E+00 0. -1.
<mgrwt>
<rscale>  0 0.89959344E+02</rscale>
<asrwt>0</asrwt>
<pdfrwt beam="2">  1        1 0.52207613E-02 0.89959344E+02</pdfrwt>
<pdfrwt beam="1">  1       -1 0.91721683E-02 0.89959344E+02</pdfrwt>
<totfact> 0.91842644E+04</totfact>
</mgrwt>
</event>
<event>
 7    1  0.3607059E-009  0.9057170E+02  0.7818608E-02  0.1301473E+00
          1   -1    0    0  501    0  0.00000000000E+00  0.00000000000E+00  0.10445663506E+02  0.10445664722E+02  0.50400000000E-02 0. -1.
         -1   -1    0    0    0  501 -0.00000000000E+00 -0.00000000000E+00 -0.19633105166E+03  0.19633105172E+03  0.50400000000E-02 0.  1.
         23    2    1    2    0    0  0.00000000000E+00  0.35527136788E-14 -0.18588538815E+03  0.20677671644E+03  0.90571700522E+02 0.  0.
    9000005    2    3    3    0    0 -0.86334255097E+01 -0.29076177082E+02 -0.16657073763E+02  0.34851783696E+02  0.41507361686E+01 0.  0.
         22    1    3    3    0    0  0.86334255097E+01  0.29076177082E+02 -0.16922831439E+03  0.17192493275E+03  0.00000000000E+00 0.  1.
         22    1    4    4    0    0  0.84614517979E-01 -0.49467570319E+01 -0.23684701239E+01  0.54851814444E+01  0.00000000000E+00 0. -1.
         22    1    4    4    0    0 -0.87180400277E+01 -0.24129420050E+02 -0.14288603639E+02  0.29366602252E+02  0.00000000000E+00 0. -1.
<mgrwt>
<rscale>  0 0.90571701E+02</rscale>
<asrwt>0</asrwt>
<pdfrwt beam="1">  1        1 0.16070254E-02 0.90571701E+02</pdfrwt>
<pdfrwt beam="2">  1       -1 0.30204774E-01 0.90571701E+02</pdfrwt>
<totfact> 0.71011158E+04</totfact>
</mgrwt>
</event>
<event>
 7    1  0.3607059E-009  0.9081866E+02  0.7818608E-02  0.1300881E+00
         -1   -1    0    0    0  501 -0.00000000000E+00  0.00000000000E+00  0.39014960741E+01  0.39014993295E+01  0.50400000000E-02 0.  1.
          1   -1    0    0  501    0  0.00000000000E+00 -0.00000000000E+00 -0.52851681100E+03  0.52851681102E+03  0.50400000000E-02 0. -1.
         23    2    1    2    0    0  0.00000000000E+00  0.00000000000E+00 -0.52461531493E+03  0.53241831035E+03  0.90818657471E+02 0.  0.
    9000005    2    3    3    0    0 -0.38831791713E+02  0.41504944124E+01 -0.39389046764E+03  0.39598473550E+03  0.11361144022E+02 0.  0.
         22    1    3    3    0    0  0.38831791713E+02 -0.41504944124E+01 -0.13072484728E+03  0.13643357486E+03  0.00000000000E+00 0.  1.
         22    1    4    4    0    0 -0.12706440927E+02  0.12864789738E+01 -0.18628863990E+03  0.18672591150E+03  0.00000000000E+00 0. -1.
         22    1    4    4    0    0 -0.26125350786E+02  0.28640154386E+01 -0.20760182774E+03  0.20925882400E+03  0.00000000000E+00 0. -1.
<mgrwt>
<rscale>  0 0.90818657E+02</rscale>
<asrwt>0</asrwt>
<pdfrwt beam="2">  1        1 0.81310222E-01 0.90818657E+02</pdfrwt>
<pdfrwt beam="1">  1       -1 0.60023084E-03 0.90818657E+02</pdfrwt>
<totfact> 0.14158891E+05</totfact>
</mgrwt>
</event>
<event>
 7    1  0.3607059E-009  0.9087025E+02  0.7818608E-02  0.1300758E+00
         -1   -1    0    0    0  501 -0.00000000000E+00  0.00000000000E+00  0.16461575105E+02  0.16461575876E+02  0.50400000000E-02 0.  1.
          1   -1    0    0  501    0  0.00000000000E+00 -0.00000000000E+00 -0.12540418755E+03  0.12540418765E+03  0.50400000000E-02 0. -1.
         23    2    1    2    0    0  0.00000000000E+00  0.71054273576E-14 -0.10894261245E+03  0.14186576353E+03  0.90870248458E+02 0.  0.
    9000005    2    3    3    0    0  0.11725943717E+02 -0.39171396752E+02 -0.85369736018E+02  0.94668554049E+02  0.14990725428E+01 0.  0.
         22    1    3    3    0    0 -0.11725943717E+02  0.39171396752E+02 -0.23572876430E+02  0.47197209480E+02  0.00000000000E+00 0.  1.
         22    1    4    4    0    0  0.10011641009E+02 -0.34634204677E+02 -0.74427990776E+02  0.82699981259E+02  0.00000000000E+00 0. -1.
         22    1    4    4    0    0  0.17143027072E+01 -0.45371920753E+01 -0.10941745241E+02  0.11968572790E+02  0.00000000000E+00 0. -1.
<mgrwt>
<rscale>  0 0.90870248E+02</rscale>
<asrwt>0</asrwt>
<pdfrwt beam="2">  1        1 0.19292951E-01 0.90870248E+02</pdfrwt>
<pdfrwt beam="1">  1       -1 0.25325502E-02 0.90870248E+02</pdfrwt>
<totfact> 0.10956800E+05</totfact>
</mgrwt>
</event>
<event>
 7    1  0.3607059E-009  0.9443589E+02  0.7818608E-02  0.1292452E+00
         -1   -1    0    0    0  501 -0.00000000000E+00  0.00000000000E+00  0.26735331659E+02  0.26735332135E+02  0.50400000000E-02 0.  1.
          1   -1    0    0  501    0  0.00000000000E+00 -0.00000000000E+00 -0.83392799040E+02  0.83392799193E+02  0.50400000000E-02 0. -1.
         23    2    1    2    0    0  0.00000000000E+00  0.00000000000E+00 -0.56657467381E+02  0.11012813133E+03  0.94435886715E+02 0.  0.
    9000005    2    3    3    0    0 -0.94861329850E+01  0.42714710801E+02 -0.48875641464E+02  0.65686146083E+02  0.33627698264E+01 0.  0.
         22    1    3    3    0    0  0.94861329850E+01 -0.42714710801E+02 -0.77818259170E+01  0.44441985244E+02  0.00000000000E+00 0.  1.
         22    1    4    4    0    0 -0.31841132069E+01  0.11368032112E+02 -0.15249988393E+02  0.19285561361E+02  0.00000000000E+00 0. -1.
         22    1    4    4    0    0 -0.63020197781E+01  0.31346678689E+02 -0.33625653071E+02  0.46400584722E+02  0.00000000000E+00 0. -1.
<mgrwt>
<rscale>  0 0.94435887E+02</rscale>
<asrwt>0</asrwt>
<pdfrwt beam="2">  1        1 0.12829661E-01 0.94435887E+02</pdfrwt>
<pdfrwt beam="1">  1       -1 0.41131280E-02 0.94435887E+02</pdfrwt>
<totfact> 0.92073348E+04</totfact>
</mgrwt>
</event>
<event>
 7    1  0.3607059E-009  0.9067412E+02  0.7818608E-02  0.1301227E+00
         -1   -1    0    0    0  501 -0.00000000000E+00  0.00000000000E+00  0.37360504135E+01  0.37360538130E+01  0.50400000000E-02 0.  1.
          1   -1    0    0  501    0  0.00000000000E+00 -0.00000000000E+00 -0.55016608807E+03  0.55016608809E+03  0.50400000000E-02 0. -1.
         23    2    1    2    0    0  0.00000000000E+00  0.00000000000E+00 -0.54643003765E+03  0.55390214190E+03  0.90674123954E+02 0.  0.
    9000005    2    3    3    0    0  0.17473627509E+02  0.16716514899E+02 -0.50689316191E+03  0.50755633225E+03  0.93799407407E+01 0.  0.
         22    1    3    3    0    0 -0.17473627509E+02 -0.16716514899E+02 -0.39536875739E+02  0.46345809648E+02  0.00000000000E+00 0.  1.
         22    1    4    4    0    0  0.91127858684E+01  0.12568204691E+02 -0.24105338524E+03  0.24155276270E+03  0.00000000000E+00 0. -1.
         22    1    4    4    0    0  0.83608416402E+01  0.41483102086E+01 -0.26583977668E+03  0.26600356955E+03  0.00000000000E+00 0. -1.
<mgrwt>
<rscale>  0 0.90674124E+02</rscale>
<asrwt>0</asrwt>
<pdfrwt beam="2">  1        1 0.84640873E-01 0.90674124E+02</pdfrwt>
<pdfrwt beam="1">  1       -1 0.57477769E-03 0.90674124E+02</pdfrwt>
<totfact> 0.14273815E+05</totfact>
</mgrwt>
</event>
<event>
 7    1  0.3607059E-009  0.9062681E+02  0.7818608E-02  0.1301341E+00
         -1   -1    0    0    0  501 -0.00000000000E+00  0.00000000000E+00  0.13451371819E+02  0.13451372764E+02  0.50400000000E-02 0.  1.
          1   -1    0    0  501    0  0.00000000000E+00 -0.00000000000E+00 -0.15264648898E+03  0.15264648906E+03  0.50400000000E-02 0. -1.
         23    2    1    2    0    0 -0.35527136788E-14  0.35527136788E-14 -0.13919511716E+03  0.16609786182E+03  0.90626812048E+02 0.  0.
    9000005    2    3    3    0    0 -0.29409408063E+02  0.21834233687E+02 -0.11797946268E+03  0.12376878153E+03  0.76099030618E+01 0.  0.
         22    1    3    3    0    0  0.29409408063E+02 -0.21834233687E+02 -0.21215654478E+02  0.42329080291E+02  0.00000000000E+00 0.  1.
         22    1    4    4    0    0 -0.29444752852E+02  0.20043698949E+02 -0.11244578012E+03  0.11795251928E+03  0.00000000000E+00 0.  1.
         22    1    4    4    0    0  0.35344789146E-01  0.17905347387E+01 -0.55336825631E+01  0.58162622545E+01  0.00000000000E+00 0.  1.
<mgrwt>
<rscale>  0 0.90626812E+02</rscale>
<asrwt>0</asrwt>
<pdfrwt beam="2">  1        1 0.23484074E-01 0.90626812E+02</pdfrwt>
<pdfrwt beam="1">  1       -1 0.20694420E-02 0.90626812E+02</pdfrwt>
<totfact> 0.11434375E+05</totfact>
</mgrwt>
</event>
<event>
 7    1  0.3607059E-009  0.9085081E+02  0.7818608E-02  0.1300804E+00
          1   -1    0    0  501    0  0.00000000000E+00  0.00000000000E+00  0.24683612692E+03  0.24683612697E+03  0.50400000000E-02 0. -1.
         -1   -1    0    0    0  501 -0.00000000000E+00 -0.00000000000E+00 -0.83596642399E+01  0.83596657592E+01  0.50400000000E-02 0.  1.
         23    2    1    2    0    0  0.00000000000E+00  0.44408920985E-15  0.23847646268E+03  0.25519579273E+03  0.90850808335E+02 0.  0.
    9000005    2    3    3    0    0 -0.35365971112E+02 -0.29297233077E+01  0.40738724588E+02  0.54298932982E+02  0.54217387016E+01 0.  0.
         22    1    3    3    0    0  0.35365971112E+02  0.29297233077E+01  0.19773773809E+03  0.20089685975E+03  0.00000000000E+00 0. -1.
         22    1    4    4    0    0 -0.10369171837E+02 -0.27812592252E+01  0.99216891499E+01  0.14618311908E+02  0.00000000000E+00 0. -1.
         22    1    4    4    0    0 -0.24996799275E+02 -0.14846408244E+00  0.30817035438E+02  0.39680621074E+02  0.00000000000E+00 0. -1.
<mgrwt>
<rscale>  0 0.90850808E+02</rscale>
<asrwt>0</asrwt>
<pdfrwt beam="1">  1        1 0.37974787E-01 0.90850808E+02</pdfrwt>
<pdfrwt beam="2">  1       -1 0.12861024E-02 0.90850808E+02</pdfrwt>
<totfact> 0.12454971E+05</totfact>
</mgrwt>
</event>
<event>
 7    1  0.3607059E-009  0.9352556E+02  0.7818608E-02  0.1294532E+00
          1   -1    0    0  501    0  0.00000000000E+00  0.00000000000E+00  0.59202471424E+03  0.59202471426E+03  0.50400000000E-02 0. -1.
         -1   -1    0    0    0  501 -0.00000000000E+00 -0.00000000000E+00 -0.36936916674E+01  0.36936951059E+01  0.50400000000E-02 0.  1.
         23    2    1    2    0    0  0.71054273576E-14  0.00000000000E+00  0.58833102257E+03  0.59571840937E+03  0.93525564087E+02 0.  0.
    9000005    2    3    3    0    0 -0.39680915134E+02 -0.20553171180E+02  0.37436505616E+03  0.37713560434E+03  0.92228474262E+01 0.  0.
         22    1    3    3    0    0  0.39680915134E+02  0.20553171180E+02  0.21396596642E+03  0.21858280503E+03  0.00000000000E+00 0.  1.
         22    1    4    4    0    0 -0.10226703598E+02 -0.10613419146E+01  0.78978626179E+02  0.79645058267E+02  0.00000000000E+00 0.  1.
         22    1    4    4    0    0 -0.29454211536E+02 -0.19491829266E+02  0.29538642998E+03  0.29749054607E+03  0.00000000000E+00 0.  1.
<mgrwt>
<rscale>  0 0.93525564E+02</rscale>
<asrwt>0</asrwt>
<pdfrwt beam="1">  1        1 0.91080763E-01 0.93525564E+02</pdfrwt>
<pdfrwt beam="2">  1       -1 0.56826029E-03 0.93525564E+02</pdfrwt>
<totfact> 0.13224547E+05</totfact>
</mgrwt>
</event>
<event>
 7    1  0.3607059E-009  0.9035452E+02  0.7818608E-02  0.1301995E+00
          1   -1    0    0  501    0  0.00000000000E+00  0.00000000000E+00  0.97819061494E+03  0.97819061495E+03  0.50400000000E-02 0. -1.
         -1   -1    0    0    0  501 -0.00000000000E+00 -0.00000000000E+00 -0.20864868356E+01  0.20864929227E+01  0.50400000000E-02 0.  1.
         23    2    1    2    0    0  0.00000000000E+00  0.00000000000E+00  0.97610412810E+03  0.98027710787E+03  0.90354520211E+02 0.  0.
    9000005    2    3    3    0    0 -0.17048870096E+02  0.10944540768E+02  0.92490756096E+03  0.92521772691E+03  0.12782759334E+02 0.  0.
         22    1    3    3    0    0  0.17048870096E+02 -0.10944540768E+02  0.51196567145E+02  0.55059380959E+02  0.00000000000E+00 0.  1.
         22    1    4    4    0    0 -0.10368652464E+02  0.16430331008E+01  0.63071747464E+03  0.63080483617E+03  0.00000000000E+00 0.  1.
         22    1    4    4    0    0 -0.66802176326E+01  0.93015076673E+01  0.29419008631E+03  0.29441289074E+03  0.00000000000E+00 0.  1.
<mgrwt>
<rscale>  0 0.90354520E+02</rscale>
<asrwt>0</asrwt>
<pdfrwt beam="1">  1        1 0.15049064E+00 0.90354520E+02</pdfrwt>
<pdfrwt beam="2">  1       -1 0.32099892E-03 0.90354520E+02</pdfrwt>
<totfact> 0.14009727E+05</totfact>
</mgrwt>
</event>
<event>
 7    1  0.3607059E-009  0.9351715E+02  0.7818608E-02  0.1294551E+00
         -1   -1    0    0    0  501 -0.00000000000E+00  0.00000000000E+00  0.53294665039E+02  0.53294665277E+02  0.50400000000E-02 0.  1.
          1   -1    0    0  501    0  0.00000000000E+00 -0.00000000000E+00 -0.41024071873E+02  0.41024072183E+02  0.50400000000E-02 0. -1.
         23    2    1    2    0    0  0.00000000000E+00 -0.17763568394E-14  0.12270593166E+02  0.94318737461E+02  0.93517146981E+02 0.  0.
    9000005    2    3    3    0    0 -0.43516791943E+02  0.12289507728E+02  0.10532083739E+02  0.49066493359E+02  0.15869870869E+02 0.  0.
         22    1    3    3    0    0  0.43516791943E+02 -0.12289507728E+02  0.17385094266E+01  0.45252244102E+02  0.00000000000E+00 0.  1.
         22    1    4    4    0    0 -0.32445491997E+02  0.20365553793E+01  0.45147592401E+01  0.32821343052E+02  0.00000000000E+00 0. -1.
         22    1    4    4    0    0 -0.11071299946E+02  0.10252952348E+02  0.60173244990E+01  0.16245150306E+02  0.00000000000E+00 0. -1.
<mgrwt>
<rscale>  0 0.93517147E+02</rscale>
<asrwt>0</asrwt>
<pdfrwt beam="2">  1        1 0.63113957E-02 0.93517147E+02</pdfrwt>
<pdfrwt beam="1">  1       -1 0.81991793E-02 0.93517147E+02</pdfrwt>
<totfact> 0.84713234E+04</totfact>
</mgrwt>
</event>
<event>
 7    1  0.3607059E-009  0.1221215E+03  0.7818608E-02  0.1239638E+00
         -1   -1    0    0    0  501 -0.00000000000E+00  0.00000000000E+00  0.15437622554E+03  0.15437622562E+03  0.50400000000E-02 0.  1.
          1   -1    0    0  501    0  0.00000000000E+00 -0.00000000000E+00 -0.24151502276E+02  0.24151502802E+02  0.50400000000E-02 0. -1.
         23    2    1    2    0    0  0.00000000000E+00  0.00000000000E+00  0.13022472326E+03  0.17852772842E+03  0.12212154301E+03 0.  0.
    9000005    2    3    3    0    0 -0.23768146818E+02 -0.69470200767E+01 -0.15452613489E+02  0.30760775641E+02  0.97085613394E+01 0.  0.
         22    1    3    3    0    0  0.23768146818E+02  0.69470200767E+01  0.14567733675E+03  0.14776695278E+03  0.00000000000E+00 0.  1.
         22    1    4    4    0    0 -0.10906282084E+02  0.29225080589E+00 -0.10632899968E+02  0.15234531866E+02  0.00000000000E+00 0. -1.
         22    1    4    4    0    0 -0.12861864734E+02 -0.72392708826E+01 -0.48197135210E+01  0.15526243776E+02  0.00000000000E+00 0. -1.
<mgrwt>
<rscale>  0 0.12212154E+03</rscale>
<asrwt>0</asrwt>
<pdfrwt beam="2">  1        1 0.37156158E-02 0.12212154E+03</pdfrwt>
<pdfrwt beam="1">  1       -1 0.23750188E-01 0.12212154E+03</pdfrwt>
<totfact> 0.34609862E+04</totfact>
</mgrwt>
</event>
<event>
 7    1  0.3607059E-009  0.9059438E+02  0.7818608E-02  0.1301419E+00
         -1   -1    0    0    0  501 -0.00000000000E+00  0.00000000000E+00  0.32106263808E+02  0.32106264203E+02  0.50400000000E-02 0.  1.
          1   -1    0    0  501    0  0.00000000000E+00 -0.00000000000E+00 -0.63907636265E+02  0.63907636463E+02  0.50400000000E-02 0. -1.
         23    2    1    2    0    0 -0.35527136788E-14  0.00000000000E+00 -0.31801372457E+02  0.96013900667E+02  0.90594380792E+02 0.  0.
    9000005    2    3    3    0    0 -0.31348698037E+02 -0.20508716613E+02  0.99510243658E+01  0.39919239903E+02  0.95485340654E+01 0.  0.
         22    1    3    3    0    0  0.31348698037E+02  0.20508716613E+02 -0.41752396823E+02  0.56094660763E+02  0.00000000000E+00 0. -1.
         22    1    4    4    0    0 -0.20118546817E+02 -0.10044863009E+02  0.99000278196E+01  0.24569610289E+02  0.00000000000E+00 0. -1.
         22    1    4    4    0    0 -0.11230151220E+02 -0.10463853603E+02  0.50996546180E-01  0.15349629615E+02  0.00000000000E+00 0. -1.
<mgrwt>
<rscale>  0 0.90594381E+02</rscale>
<asrwt>0</asrwt>
<pdfrwt beam="2">  1        1 0.98319441E-02 0.90594381E+02</pdfrwt>
<pdfrwt beam="1">  1       -1 0.49394253E-02 0.90594381E+02</pdfrwt>
<totfact> 0.99038118E+04</totfact>
</mgrwt>
</event>
<event>
 7    1  0.3607059E-009  0.9002698E+02  0.7818608E-02  0.1302786E+00
         -1   -1    0    0    0  501 -0.00000000000E+00  0.00000000000E+00  0.22166543991E+01  0.22166601288E+01  0.50400000000E-02 0.  1.
          1   -1    0    0  501    0  0.00000000000E+00 -0.00000000000E+00 -0.91408555942E+03  0.91408555943E+03  0.50400000000E-02 0. -1.
         23    2    1    2    0    0  0.00000000000E+00  0.00000000000E+00 -0.91186890502E+03  0.91630221956E+03  0.90026982796E+02 0.  0.
    9000005    2    3    3    0    0  0.17929887447E+02  0.17815557563E+02 -0.83250543910E+03  0.83301095545E+03  0.14250291457E+02 0.  0.
         22    1    3    3    0    0 -0.17929887447E+02 -0.17815557563E+02 -0.79363465916E+02  0.83291264112E+02  0.00000000000E+00 0.  1.
         22    1    4    4    0    0  0.14977024358E+02  0.71418103801E+01 -0.61495893306E+03  0.61518274201E+03  0.00000000000E+00 0. -1.
         22    1    4    4    0    0  0.29528630894E+01  0.10673747183E+02 -0.21754650604E+03  0.21782821344E+03  0.00000000000E+00 0. -1.
<mgrwt>
<rscale>  0 0.90026983E+02</rscale>
<asrwt>0</asrwt>
<pdfrwt beam="2">  1        1 0.14062825E+00 0.90026983E+02</pdfrwt>
<pdfrwt beam="1">  1       -1 0.34102493E-03 0.90026983E+02</pdfrwt>
<totfact> 0.14352149E+05</totfact>
</mgrwt>
</event>
<event>
 7    1  0.3607059E-009  0.8788592E+02  0.7818608E-02  0.1308054E+00
          1   -1    0    0  501    0  0.00000000000E+00  0.00000000000E+00  0.44627981502E+02  0.44627981787E+02  0.50400000000E-02 0. -1.
         -1   -1    0    0    0  501 -0.00000000000E+00 -0.00000000000E+00 -0.43268452971E+02  0.43268453265E+02  0.50400000000E-02 0.  1.
         23    2    1    2    0    0  0.00000000000E+00  0.00000000000E+00  0.13595285308E+01  0.87896435052E+02  0.87885920243E+02 0.  0.
    9000005    2    3    3    0    0 -0.24685174094E+01  0.28329591836E+02 -0.32302256955E+02  0.43830857172E+02  0.83095658274E+01 0.  0.
         22    1    3    3    0    0  0.24685174094E+01 -0.28329591836E+02  0.33661785486E+02  0.44065577880E+02  0.00000000000E+00 0. -1.
         22    1    4    4    0    0 -0.51881060047E+01  0.22817455779E+02 -0.26838178330E+02  0.35606748633E+02  0.00000000000E+00 0.  1.
         22    1    4    4    0    0  0.27195885953E+01  0.55121360572E+01 -0.54640786251E+01  0.82241085390E+01  0.00000000000E+00 0.  1.
<mgrwt>
<rscale>  0 0.87885920E+02</rscale>
<asrwt>0</asrwt>
<pdfrwt beam="1">  1        1 0.68658434E-02 0.87885920E+02</pdfrwt>
<pdfrwt beam="2">  1       -1 0.66566851E-02 0.87885920E+02</pdfrwt>
<totfact> 0.10216560E+05</totfact>
</mgrwt>
</event>
<event>
 7    1  0.3607059E-009  0.1020543E+03  0.7818608E-02  0.1276034E+00
         -1   -1    0    0    0  501 -0.00000000000E+00  0.00000000000E+00  0.57127278569E+02  0.57127278792E+02  0.50400000000E-02 0.  1.
          1   -1    0    0  501    0  0.00000000000E+00 -0.00000000000E+00 -0.45578362133E+02  0.45578362411E+02  0.50400000000E-02 0. -1.
         23    2    1    2    0    0 -0.35527136788E-14  0.00000000000E+00  0.11548916437E+02  0.10270564120E+03  0.10205425647E+03 0.  0.
    9000005    2    3    3    0    0 -0.25187330297E+02 -0.36397849356E+02  0.30705961921E+02  0.54474972154E+02  0.80908249552E+01 0.  0.
         22    1    3    3    0    0  0.25187330297E+02  0.36397849356E+02 -0.19157045485E+02  0.48230669049E+02  0.00000000000E+00 0. -1.
         22    1    4    4    0    0 -0.11975638709E+02 -0.11758625354E+02  0.14367332698E+02  0.22093017937E+02  0.00000000000E+00 0. -1.
         22    1    4    4    0    0 -0.13211691588E+02 -0.24639224002E+02  0.16338629224E+02  0.32381954217E+02  0.00000000000E+00 0. -1.
<mgrwt>
<rscale>  0 0.10205426E+03</rscale>
<asrwt>0</asrwt>
<pdfrwt beam="2">  1        1 0.70120558E-02 0.10205426E+03</pdfrwt>
<pdfrwt beam="1">  1       -1 0.87888121E-02 0.10205426E+03</pdfrwt>
<totfact> 0.67176227E+04</totfact>
</mgrwt>
</event>
<event>
 7    1  0.3607059E-009  0.9092979E+02  0.7818608E-02  0.1300616E+00
         -1   -1    0    0    0  501 -0.00000000000E+00  0.00000000000E+00  0.13527875828E+02  0.13527876767E+02  0.50400000000E-02 0.  1.
          1   -1    0    0  501    0  0.00000000000E+00 -0.00000000000E+00 -0.15279980617E+03  0.15279980625E+03  0.50400000000E-02 0. -1.
         23    2    1    2    0    0  0.17763568394E-14 -0.17763568394E-14 -0.13927193034E+03  0.16632768302E+03  0.90929794663E+02 0.  0.
    9000005    2    3    3    0    0  0.94139605618E+01 -0.15502377652E+02 -0.14546364361E+03  0.14716303641E+03  0.12974640831E+02 0.  0.
         22    1    3    3    0    0 -0.94139605618E+01  0.15502377652E+02  0.61917132768E+01  0.19164646609E+02  0.00000000000E+00 0.  1.
         22    1    4    4    0    0  0.34213162619E+01 -0.81355771029E+00 -0.68039047351E+02  0.68129870435E+02  0.00000000000E+00 0. -1.
         22    1    4    4    0    0  0.59926442999E+01 -0.14688819942E+02 -0.77424596264E+02  0.79033165972E+02  0.00000000000E+00 0. -1.
<mgrwt>
<rscale>  0 0.90929795E+02</rscale>
<asrwt>0</asrwt>
<pdfrwt beam="2">  1        1 0.23507661E-01 0.90929795E+02</pdfrwt>
<pdfrwt beam="1">  1       -1 0.20812119E-02 0.90929795E+02</pdfrwt>
<totfact> 0.11334160E+05</totfact>
</mgrwt>
</event>
<event>
 7    1  0.3607059E-009  0.9161093E+02  0.7818608E-02  0.1298997E+00
          1   -1    0    0  501    0  0.00000000000E+00  0.00000000000E+00  0.43762840465E+03  0.43762840468E+03  0.50400000000E-02 0. -1.
         -1   -1    0    0    0  501 -0.00000000000E+00 -0.00000000000E+00 -0.47943417745E+01  0.47943444236E+01  0.50400000000E-02 0.  1.
         23    2    1    2    0    0  0.00000000000E+00  0.00000000000E+00  0.43283406288E+03  0.44242274911E+03  0.91610932417E+02 0.  0.
    9000005    2    3    3    0    0  0.44539407599E+01 -0.25659253785E+02  0.39712652042E+03  0.39822700857E+03  0.14037173511E+02 0.  0.
         22    1    3    3    0    0 -0.44539407599E+01  0.25659253785E+02  0.35707542458E+02  0.44195740535E+02  0.00000000000E+00 0.  1.
         22    1    4    4    0    0 -0.10905223057E+01 -0.93073103482E+00  0.34554488891E+01  0.37410728653E+01  0.00000000000E+00 0. -1.
         22    1    4    4    0    0  0.55444630656E+01 -0.24728522750E+02  0.39367107153E+03  0.39448593570E+03  0.00000000000E+00 0. -1.
<mgrwt>
<rscale>  0 0.91610932E+02</rscale>
<asrwt>0</asrwt>
<pdfrwt beam="1">  1        1 0.67327463E-01 0.91610932E+02</pdfrwt>
<pdfrwt beam="2">  1       -1 0.73759107E-03 0.91610932E+02</pdfrwt>
<totfact> 0.13508688E+05</totfact>
</mgrwt>
</event>
<event>
 7    1  0.3607059E-009  0.9225590E+02  0.7818608E-02  0.1297479E+00
          1   -1    0    0  501    0  0.00000000000E+00  0.00000000000E+00  0.30029590543E+02  0.30029590966E+02  0.50400000000E-02 0. -1.
         -1   -1    0    0    0  501 -0.00000000000E+00 -0.00000000000E+00 -0.70856374289E+02  0.70856374469E+02  0.50400000000E-02 0.  1.
         23    2    1    2    0    0  0.00000000000E+00  0.00000000000E+00 -0.40826783746E+02  0.10088596543E+03  0.92255903609E+02 0.  0.
    9000005    2    3    3    0    0  0.39862223712E+02 -0.22023473734E+02 -0.28196617041E+02  0.53625502195E+02  0.25719639340E+01 0.  0.
         22    1    3    3    0    0 -0.39862223712E+02  0.22023473734E+02 -0.12630166705E+02  0.47260463240E+02  0.00000000000E+00 0.  1.
         22    1    4    4    0    0  0.32305248666E+02 -0.17618126698E+02 -0.23923033140E+02  0.43890078541E+02  0.00000000000E+00 0. -1.
         22    1    4    4    0    0  0.75569750463E+01 -0.44053470359E+01 -0.42735839007E+01  0.97354236536E+01  0.00000000000E+00 0. -1.
<mgrwt>
<rscale>  0 0.92255904E+02</rscale>
<asrwt>0</asrwt>
<pdfrwt beam="1">  1        1 0.46199371E-02 0.92255904E+02</pdfrwt>
<pdfrwt beam="2">  1       -1 0.10900981E-01 0.92255904E+02</pdfrwt>
<totfact> 0.83812979E+04</totfact>
</mgrwt>
</event>
<event>
 7    1  0.3607059E-009  0.8529021E+02  0.7818608E-02  0.1314675E+00
         -1   -1    0    0    0  501 -0.00000000000E+00  0.00000000000E+00  0.86962430304E+01  0.86962444909E+01  0.50400000000E-02 0.  1.
          1   -1    0    0  501    0  0.00000000000E+00 -0.00000000000E+00 -0.20912535166E+03  0.20912535172E+03  0.50400000000E-02 0. -1.
         23    2    1    2    0    0  0.00000000000E+00  0.00000000000E+00 -0.20042910863E+03  0.21782159622E+03  0.85290211574E+02 0.  0.
    9000005    2    3    3    0    0 -0.40004406257E+02  0.12032726047E+02 -0.11371755067E+03  0.12157174790E+03  0.10142462286E+02 0.  0.
         22    1    3    3    0    0  0.40004406257E+02 -0.12032726047E+02 -0.86711557965E+02  0.96249848316E+02  0.00000000000E+00 0. -1.
         22    1    4    4    0    0 -0.85693255559E+01  0.52387344939E+00 -0.14408368122E+02  0.16772264481E+02  0.00000000000E+00 0. -1.
         22    1    4    4    0    0 -0.31435080701E+02  0.11508852598E+02 -0.99309182546E+02  0.10479948342E+03  0.00000000000E+00 0. -1.
<mgrwt>
<rscale>  0 0.85290212E+02</rscale>
<asrwt>0</asrwt>
<pdfrwt beam="2">  1        1 0.32173127E-01 0.85290212E+02</pdfrwt>
<pdfrwt beam="1">  1       -1 0.13378838E-02 0.85290212E+02</pdfrwt>
<totfact> 0.14271895E+05</totfact>
</mgrwt>
</event>
<event>
 7    1  0.3607059E-009  0.8981977E+02  0.7818608E-02  0.1303289E+00
         -1   -1    0    0    0  501 -0.00000000000E+00  0.00000000000E+00  0.79644163988E+01  0.79644179935E+01  0.50400000000E-02 0.  1.
          1   -1    0    0  501    0  0.00000000000E+00 -0.00000000000E+00 -0.25323858514E+03  0.25323858519E+03  0.50400000000E-02 0. -1.
         23    2    1    2    0    0  0.00000000000E+00  0.00000000000E+00 -0.24527416874E+03  0.26120300318E+03  0.89819769652E+02 0.  0.
    9000005    2    3    3    0    0 -0.17886831976E+02 -0.32357239612E+02 -0.58680418181E+02  0.70981665102E+02  0.15102171675E+02 0.  0.
         22    1    3    3    0    0  0.17886831976E+02  0.32357239612E+02 -0.18659375056E+03  0.19022133808E+03  0.00000000000E+00 0. -1.
         22    1    4    4    0    0 -0.13660497039E+02 -0.97842778799E+01 -0.28057691096E+02  0.32704362134E+02  0.00000000000E+00 0.  1.
         22    1    4    4    0    0 -0.42263349374E+01 -0.22572961732E+02 -0.30622727085E+02  0.38277302967E+02  0.00000000000E+00 0.  1.
<mgrwt>
<rscale>  0 0.89819770E+02</rscale>
<asrwt>0</asrwt>
<pdfrwt beam="2">  1        1 0.38959776E-01 0.89819770E+02</pdfrwt>
<pdfrwt beam="1">  1       -1 0.12252952E-02 0.89819770E+02</pdfrwt>
<totfact> 0.12903986E+05</totfact>
</mgrwt>
</event>
<event>
 7    1  0.3607059E-009  0.9448116E+02  0.7818608E-02  0.1292349E+00
          1   -1    0    0  501    0  0.00000000000E+00  0.00000000000E+00  0.68460999783E+02  0.68460999968E+02  0.50400000000E-02 0. -1.
         -1   -1    0    0    0  501 -0.00000000000E+00 -0.00000000000E+00 -0.32597715665E+02  0.32597716055E+02  0.50400000000E-02 0.  1.
         23    2    1    2    0    0 -0.11102230246E-15  0.00000000000E+00  0.35863284118E+02  0.10105871602E+03  0.94481156516E+02 0.  0.
    9000005    2    3    3    0    0  0.69292383191E+00  0.31922318493E+02 -0.19150595810E+02  0.37450213871E+02  0.40322001050E+01 0.  0.
         22    1    3    3    0    0 -0.69292383191E+00 -0.31922318493E+02  0.55013879928E+02  0.63608502153E+02  0.00000000000E+00 0. -1.
         22    1    4    4    0    0  0.15472169303E+01  0.68880296621E+01 -0.52943015328E+01  0.88243108272E+01  0.00000000000E+00 0. -1.
         22    1    4    4    0    0 -0.85429309835E+00  0.25034288830E+02 -0.13856294278E+02  0.28625903043E+02  0.00000000000E+00 0. -1.
<mgrwt>
<rscale>  0 0.94481157E+02</rscale>
<asrwt>0</asrwt>
<pdfrwt beam="1">  1        1 0.10532461E-01 0.94481157E+02</pdfrwt>
<pdfrwt beam="2">  1       -1 0.50150333E-02 0.94481157E+02</pdfrwt>
<totfact> 0.89097077E+04</totfact>
</mgrwt>
</event>
<event>
 7    1  0.3607059E-009  0.8905111E+02  0.7818608E-02  0.1305166E+00
         -1   -1    0    0    0  501 -0.00000000000E+00  0.00000000000E+00  0.72306621302E+01  0.72306638867E+01  0.50400000000E-02 0.  1.
          1   -1    0    0  501    0  0.00000000000E+00 -0.00000000000E+00 -0.27418304881E+03  0.27418304886E+03  0.50400000000E-02 0. -1.
         23    2    1    2    0    0 -0.22204460493E-15 -0.35527136788E-14 -0.26695238668E+03  0.28141371275E+03  0.89051114344E+02 0.  0.
    9000005    2    3    3    0    0 -0.11586135321E+01  0.30448484185E+02 -0.23415003241E+03  0.23664266160E+03  0.15654361671E+02 0.  0.
         22    1    3    3    0    0  0.11586135321E+01 -0.30448484185E+02 -0.32802354275E+02  0.44771051143E+02  0.00000000000E+00 0.  1.
         22    1    4    4    0    0 -0.68909964350E+01  0.10546718220E+02 -0.63269582513E+02  0.64511697919E+02  0.00000000000E+00 0.  1.
         22    1    4    4    0    0  0.57323829029E+01  0.19901765965E+02 -0.17088044989E+03  0.17213096368E+03  0.00000000000E+00 0.  1.
<mgrwt>
<rscale>  0 0.89051114E+02</rscale>
<asrwt>0</asrwt>
<pdfrwt beam="2">  1        1 0.42182000E-01 0.89051114E+02</pdfrwt>
<pdfrwt beam="1">  1       -1 0.11124099E-02 0.89051114E+02</pdfrwt>
<totfact> 0.13408311E+05</totfact>
</mgrwt>
</event>
<event>
 6    1  0.3721752E-009  0.2051527E+03  0.7818608E-02  0.1145463E+00
         -1   -1    0    0    0  501 -0.00000000000E+00  0.00000000000E+00  0.42662369610E+02  0.42662369907E+02  0.50400000000E-02 0.  1.
          1   -1    0    0  501    0  0.00000000000E+00 -0.00000000000E+00 -0.24663212339E+03  0.24663212344E+03  0.50400000000E-02 0. -1.
    9000005    2    1    2    0    0  0.80038121382E+02 -0.33295056422E+02 -0.25835073924E+02  0.91186881621E+02  0.11529730203E+02 0.  0.
         22    1    1    2    0    0 -0.80038121382E+02  0.33295056422E+02 -0.17813467985E+03  0.19810761172E+03  0.00000000000E+00 0. -1.
         22    1    3    3    0    0  0.46992398680E+02 -0.25495209322E+02 -0.14562735197E+02  0.55410869768E+02  0.00000000000E+00 0. -1.
         22    1    3    3    0    0  0.33045722703E+02 -0.77998471004E+01 -0.11272338727E+02  0.35776011853E+02  0.00000000000E+00 0. -1.
<mgrwt>
<rscale>  0 0.20515273E+03</rscale>
<asrwt>0</asrwt>
<pdfrwt beam="2">  1        1 0.37943403E-01 0.20515273E+03</pdfrwt>
<pdfrwt beam="1">  1       -1 0.65634417E-02 0.20515273E+03</pdfrwt>
<totfact> 0.12712977E+04</totfact>
</mgrwt>
</event>
<event>
 7    1  0.3607059E-009  0.9617827E+02  0.7818608E-02  0.1288544E+00
         -1   -1    0    0    0  501 -0.00000000000E+00  0.00000000000E+00  0.10250486395E+02  0.10250487634E+02  0.50400000000E-02 0.  1.
          1   -1    0    0  501    0  0.00000000000E+00 -0.00000000000E+00 -0.22560535140E+03  0.22560535145E+03  0.50400000000E-02 0. -1.
         23    2    1    2    0    0  0.00000000000E+00  0.00000000000E+00 -0.21535486500E+03  0.23585583909E+03  0.96178266525E+02 0.  0.
    9000005    2    3    3    0    0 -0.32419490440E+02  0.29243061082E+02 -0.63439591142E+02  0.77791199102E+02  0.10986762563E+02 0.  0.
         22    1    3    3    0    0  0.32419490440E+02 -0.29243061082E+02 -0.15191527386E+03  0.15806463999E+03  0.00000000000E+00 0. -1.
         22    1    4    4    0    0 -0.19523751194E+02  0.19598510419E+02 -0.30827412220E+02  0.41419896372E+02  0.00000000000E+00 0.  1.
         22    1    4    4    0    0 -0.12895739246E+02  0.96445506634E+01 -0.32612178922E+02  0.36371302730E+02  0.00000000000E+00 0.  1.
<mgrwt>
<rscale>  0 0.96178267E+02</rscale>
<asrwt>0</asrwt>
<pdfrwt beam="2">  1        1 0.34708512E-01 0.96178267E+02</pdfrwt>
<pdfrwt beam="1">  1       -1 0.15769982E-02 0.96178267E+02</pdfrwt>
<totfact> 0.10502155E+05</totfact>
</mgrwt>
</event>
<event>
 7    1  0.3607059E-009  0.8965719E+02  0.7818608E-02  0.1303684E+00
         -1   -1    0    0    0  501 -0.00000000000E+00  0.00000000000E+00  0.20130425357E+03  0.20130425364E+03  0.50400000000E-02 0.  1.
          1   -1    0    0  501    0  0.00000000000E+00 -0.00000000000E+00 -0.99829129195E+01  0.99829141917E+01  0.50400000000E-02 0. -1.
         23    2    1    2    0    0  0.00000000000E+00  0.00000000000E+00  0.19132134065E+03  0.21128716783E+03  0.89657191007E+02 0.  0.
    9000005    2    3    3    0    0 -0.16442034150E+02  0.14738693262E+02  0.18736387690E+03  0.18885435513E+03  0.85542691322E+01 0.  0.
         22    1    3    3    0    0  0.16442034150E+02 -0.14738693262E+02  0.39574637569E+01  0.22432812696E+02  0.00000000000E+00 0. -1.
         22    1    4    4    0    0 -0.96262800514E+01  0.89508483892E+01  0.14270553530E+03  0.14330963945E+03  0.00000000000E+00 0.  1.
         22    1    4    4    0    0 -0.68157540989E+01  0.57878448729E+01  0.44658341598E+02  0.45544715681E+02  0.00000000000E+00 0.  1.
<mgrwt>
<rscale>  0 0.89657191E+02</rscale>
<asrwt>0</asrwt>
<pdfrwt beam="2">  1        1 0.15358328E-02 0.89657191E+02</pdfrwt>
<pdfrwt beam="1">  1       -1 0.30969887E-01 0.89657191E+02</pdfrwt>
<totfact> 0.72393769E+04</totfact>
</mgrwt>
</event>
<event>
 7    1  0.3607059E-009  0.9017195E+02  0.7818608E-02  0.1302436E+00
         -1   -1    0    0    0  501 -0.00000000000E+00  0.00000000000E+00  0.11781748685E+02  0.11781749763E+02  0.50400000000E-02 0.  1.
          1   -1    0    0  501    0  0.00000000000E+00 -0.00000000000E+00 -0.17253338914E+03  0.17253338921E+03  0.50400000000E-02 0. -1.
         23    2    1    2    0    0  0.00000000000E+00  0.00000000000E+00 -0.16075164045E+03  0.18431513897E+03  0.90171949888E+02 0.  0.
    9000005    2    3    3    0    0 -0.13328848292E+02 -0.31835038827E+02 -0.13909627814E+03  0.14357102761E+03  0.85870532290E+01 0.  0.
         22    1    3    3    0    0  0.13328848292E+02  0.31835038827E+02 -0.21655362317E+02  0.40744111366E+02  0.00000000000E+00 0.  1.
         22    1    4    4    0    0 -0.45936312636E+01 -0.98063111500E+01 -0.29063674312E+02  0.31015517908E+02  0.00000000000E+00 0.  1.
         22    1    4    4    0    0 -0.87352170280E+01 -0.22028727677E+02 -0.11003260382E+03  0.11255550970E+03  0.00000000000E+00 0.  1.
<mgrwt>
<rscale>  0 0.90171950E+02</rscale>
<asrwt>0</asrwt>
<pdfrwt beam="2">  1        1 0.26543597E-01 0.90171950E+02</pdfrwt>
<pdfrwt beam="1">  1       -1 0.18125769E-02 0.90171950E+02</pdfrwt>
<totfact> 0.11857388E+05</totfact>
</mgrwt>
</event>
<event>
 7    1  0.3607059E-009  0.8136405E+02  0.7818608E-02  0.1325224E+00
         -1   -1    0    0    0  501 -0.00000000000E+00  0.00000000000E+00  0.19666634684E+02  0.19666635330E+02  0.50400000000E-02 0.  1.
          1   -1    0    0  501    0  0.00000000000E+00 -0.00000000000E+00 -0.84154066541E+02  0.84154066692E+02  0.50400000000E-02 0. -1.
         23    2    1    2    0    0  0.00000000000E+00 -0.88817841970E-15 -0.64487431857E+02  0.10382070202E+03  0.81364054108E+02 0.  0.
    9000005    2    3    3    0    0  0.22976060333E+02  0.42678721654E+01  0.80102610877E+01  0.27649647392E+02  0.12418721229E+02 0.  0.
         22    1    3    3    0    0 -0.22976060333E+02 -0.42678721654E+01 -0.72497692944E+02  0.76171054630E+02  0.00000000000E+00 0. -1.
         22    1    4    4    0    0  0.22881664606E+02  0.48513427552E+01  0.41637712083E+01  0.23758011120E+02  0.00000000000E+00 0.  1.
         22    1    4    4    0    0  0.94395726318E-01 -0.58347058979E+00  0.38464898794E+01  0.38916362721E+01  0.00000000000E+00 0.  1.
<mgrwt>
<rscale>  0 0.81364054E+02</rscale>
<asrwt>0</asrwt>
<pdfrwt beam="2">  1        1 0.12946779E-01 0.81364054E+02</pdfrwt>
<pdfrwt beam="1">  1       -1 0.30256362E-02 0.81364054E+02</pdfrwt>
<totfact> 0.13839127E+05</totfact>
</mgrwt>
</event>
<event>
 7    1  0.3607059E-009  0.9097305E+02  0.7818608E-02  0.1300512E+00
          1   -1    0    0  501    0  0.00000000000E+00  0.00000000000E+00  0.20059018229E+02  0.20059018862E+02  0.50400000000E-02 0. -1.
         -1   -1    0    0    0  501 -0.00000000000E+00 -0.00000000000E+00 -0.10314680970E+03  0.10314680982E+03  0.50400000000E-02 0.  1.
         23    2    1    2    0    0  0.71054273576E-14  0.00000000000E+00 -0.83087791473E+02  0.12320582869E+03  0.90973046177E+02 0.  0.
    9000005    2    3    3    0    0  0.37901728475E+02  0.19407142478E+02 -0.59338086640E+02  0.74449017059E+02  0.14438469946E+02 0.  0.
         22    1    3    3    0    0 -0.37901728475E+02 -0.19407142478E+02 -0.23749704832E+02  0.48756811628E+02  0.00000000000E+00 0.  1.
         22    1    4    4    0    0  0.44545587313E+01  0.31785362774E+01 -0.14666998253E+01  0.56654562690E+01  0.00000000000E+00 0. -1.
         22    1    4    4    0    0  0.33447169744E+02  0.16228606200E+02 -0.57871386815E+02  0.68783560790E+02  0.00000000000E+00 0. -1.
<mgrwt>
<rscale>  0 0.90973046E+02</rscale>
<asrwt>0</asrwt>
<pdfrwt beam="1">  1        1 0.30860029E-02 0.90973046E+02</pdfrwt>
<pdfrwt beam="2">  1       -1 0.15868740E-01 0.90973046E+02</pdfrwt>
<totfact> 0.81367654E+04</totfact>
</mgrwt>
</event>
<event>
 7    1  0.3607059E-009  0.9158131E+02  0.7818608E-02  0.1299067E+00
          1   -1    0    0  501    0  0.00000000000E+00  0.00000000000E+00  0.85044833706E+01  0.85044848640E+01  0.50400000000E-02 0. -1.
         -1   -1    0    0    0  501 -0.00000000000E+00 -0.00000000000E+00 -0.24655042607E+03  0.24655042612E+03  0.50400000000E-02 0.  1.
         23    2    1    2    0    0  0.00000000000E+00  0.00000000000E+00 -0.23804594270E+03  0.25505491098E+03  0.91581312406E+02 0.  0.
    9000005    2    3    3    0    0  0.38096037904E+02  0.46521561581E+01 -0.51612201503E+02  0.64711824646E+02  0.71309357051E+01 0.  0.
         22    1    3    3    0    0 -0.38096037904E+02 -0.46521561581E+01 -0.18643374119E+03  0.19034308634E+03  0.00000000000E+00 0.  1.
         22    1    4    4    0    0  0.11045448778E+02  0.15923240624E+01 -0.99924560433E+01  0.14979539793E+02  0.00000000000E+00 0.  1.
         22    1    4    4    0    0  0.27050589127E+02  0.30598320957E+01 -0.41619745460E+02  0.49732284853E+02  0.00000000000E+00 0.  1.
<mgrwt>
<rscale>  0 0.91581312E+02</rscale>
<asrwt>0</asrwt>
<pdfrwt beam="1">  1        1 0.13083824E-02 0.91581312E+02</pdfrwt>
<pdfrwt beam="2">  1       -1 0.37930830E-01 0.91581312E+02</pdfrwt>
<totfact> 0.64320638E+04</totfact>
</mgrwt>
</event>
<event>
 7    1  0.3607059E-009  0.9113257E+02  0.7818608E-02  0.1300132E+00
          1   -1    0    0  501    0  0.00000000000E+00  0.00000000000E+00  0.18251867429E+03  0.18251867436E+03  0.50400000000E-02 0. -1.
         -1   -1    0    0    0  501 -0.00000000000E+00 -0.00000000000E+00 -0.11375747058E+02  0.11375748174E+02  0.50400000000E-02 0.  1.
         23    2    1    2    0    0  0.00000000000E+00  0.00000000000E+00  0.17114292723E+03  0.19389442253E+03  0.91132571279E+02 0.  0.
    9000005    2    3    3    0    0  0.27344657039E+02  0.25728504439E+02  0.14008600575E+03  0.14516846865E+03  0.63331726642E+01 0.  0.
         22    1    3    3    0    0 -0.27344657039E+02 -0.25728504439E+02  0.31056921484E+02  0.48725953878E+02  0.00000000000E+00 0.  1.
         22    1    4    4    0    0  0.73275402489E+01  0.40847914294E+01  0.37729143627E+02  0.38650571095E+02  0.00000000000E+00 0.  1.
         22    1    4    4    0    0  0.20017116790E+02  0.21643713010E+02  0.10235686212E+03  0.10651789756E+03  0.00000000000E+00 0.  1.
<mgrwt>
<rscale>  0 0.91132571E+02</rscale>
<asrwt>0</asrwt>
<pdfrwt beam="1">  1        1 0.28079795E-01 0.91132571E+02</pdfrwt>
<pdfrwt beam="2">  1       -1 0.17501151E-02 0.91132571E+02</pdfrwt>
<totfact> 0.11648728E+05</totfact>
</mgrwt>
</event>
<event>
 7    1  0.3607059E-009  0.9118021E+02  0.7818608E-02  0.1300019E+00
          1   -1    0    0  501    0  0.00000000000E+00  0.00000000000E+00  0.35137470092E+02  0.35137470453E+02  0.50400000000E-02 0. -1.
         -1   -1    0    0    0  501 -0.00000000000E+00 -0.00000000000E+00 -0.59152165249E+02  0.59152165464E+02  0.50400000000E-02 0.  1.
         23    2    1    2    0    0  0.00000000000E+00 -0.88817841970E-15 -0.24014695157E+02  0.94289635917E+02  0.91180205406E+02 0.  0.
    9000005    2    3    3    0    0  0.12225624142E+02 -0.79658843894E+01  0.32614737829E+02  0.35810461161E+02  0.23972494957E+01 0.  0.
         22    1    3    3    0    0 -0.12225624142E+02  0.79658843894E+01 -0.56629432986E+02  0.58479174756E+02  0.00000000000E+00 0.  1.
         22    1    4    4    0    0  0.55197955230E+01 -0.48464761842E+01  0.14839992784E+02  0.16558437724E+02  0.00000000000E+00 0.  1.
         22    1    4    4    0    0  0.67058286187E+01 -0.31194082053E+01  0.17774745045E+02  0.19252023437E+02  0.00000000000E+00 0.  1.
<mgrwt>
<rscale>  0 0.91180205E+02</rscale>
<asrwt>0</asrwt>
<pdfrwt beam="1">  1        1 0.54057647E-02 0.91180205E+02</pdfrwt>
<pdfrwt beam="2">  1       -1 0.91003332E-02 0.91180205E+02</pdfrwt>
<totfact> 0.88868738E+04</totfact>
</mgrwt>
</event>
<event>
 7    1  0.3607059E-009  0.9134691E+02  0.7818608E-02  0.1299622E+00
          1   -1    0    0  501    0  0.00000000000E+00  0.00000000000E+00  0.15281900097E+02  0.15281900928E+02  0.50400000000E-02 0. -1.
         -1   -1    0    0    0  501 -0.00000000000E+00 -0.00000000000E+00 -0.13650555286E+03  0.13650555295E+03  0.50400000000E-02 0.  1.
         23    2    1    2    0    0  0.00000000000E+00 -0.71054273576E-14 -0.12122365276E+03  0.15178745388E+03  0.91346905621E+02 0.  0.
    9000005    2    3    3    0    0 -0.11065039000E+02 -0.33925518729E+02 -0.10755853929E+03  0.11357605198E+03  0.75699603741E+01 0.  0.
         22    1    3    3    0    0  0.11065039000E+02  0.33925518729E+02 -0.13665113474E+02  0.38211401903E+02  0.00000000000E+00 0. -1.
         22    1    4    4    0    0 -0.18585439153E+01 -0.10874658137E+02 -0.24109983662E+02  0.26514216701E+02  0.00000000000E+00 0. -1.
         22    1    4    4    0    0 -0.92064950844E+01 -0.23050860592E+02 -0.83448555626E+02  0.87061835278E+02  0.00000000000E+00 0. -1.
<mgrwt>
<rscale>  0 0.91346906E+02</rscale>
<asrwt>0</asrwt>
<pdfrwt beam="1">  1        1 0.23510617E-02 0.91346906E+02</pdfrwt>
<pdfrwt beam="2">  1       -1 0.21000854E-01 0.91346906E+02</pdfrwt>
<totfact> 0.76040144E+04</totfact>
</mgrwt>
</event>
<event>
 7    1  0.3607059E-009  0.9245170E+02  0.7818608E-02  0.1297021E+00
         -1   -1    0    0    0  501 -0.00000000000E+00  0.00000000000E+00  0.24984704018E+02  0.24984704526E+02  0.50400000000E-02 0.  1.
          1   -1    0    0  501    0  0.00000000000E+00 -0.00000000000E+00 -0.85525491691E+02  0.85525491839E+02  0.50400000000E-02 0. -1.
         23    2    1    2    0    0  0.00000000000E+00  0.00000000000E+00 -0.60540787673E+02  0.11051019637E+03  0.92451698355E+02 0.  0.
    9000005    2    3    3    0    0  0.22299804405E+02 -0.12442047707E+02 -0.75599009938E+02  0.80865030057E+02  0.13109422370E+02 0.  0.
         22    1    3    3    0    0 -0.22299804405E+02  0.12442047707E+02  0.15058222265E+02  0.29645166308E+02  0.00000000000E+00 0.  1.
         22    1    4    4    0    0  0.43538067960E+01 -0.76003264290E+01 -0.37013963885E+02  0.38036221131E+02  0.00000000000E+00 0.  1.
         22    1    4    4    0    0  0.17945997609E+02 -0.48417212785E+01 -0.38585046053E+02  0.42828808927E+02  0.00000000000E+00 0.  1.
<mgrwt>
<rscale>  0 0.92451698E+02</rscale>
<asrwt>0</asrwt>
<pdfrwt beam="2">  1        1 0.13157768E-01 0.92451698E+02</pdfrwt>
<pdfrwt beam="1">  1       -1 0.38438007E-02 0.92451698E+02</pdfrwt>
<totfact> 0.98013173E+04</totfact>
</mgrwt>
</event>
<event>
 7    1  0.3607059E-009  0.9483206E+02  0.7818608E-02  0.1291555E+00
          1   -1    0    0  501    0  0.00000000000E+00  0.00000000000E+00  0.29154278703E+03  0.29154278707E+03  0.50400000000E-02 0. -1.
         -1   -1    0    0    0  501 -0.00000000000E+00 -0.00000000000E+00 -0.77116620827E+01  0.77116637296E+01  0.50400000000E-02 0.  1.
         23    2    1    2    0    0  0.00000000000E+00  0.00000000000E+00  0.28383112495E+03  0.29925445080E+03  0.94832055955E+02 0.  0.
    9000005    2    3    3    0    0  0.22618294406E+02 -0.47108180915E+01  0.27242921934E+03  0.27349047401E+03  0.67513533940E+01 0.  0.
         22    1    3    3    0    0 -0.22618294406E+02  0.47108180915E+01  0.11401905606E+02  0.25763976797E+02  0.00000000000E+00 0.  1.
         22    1    4    4    0    0  0.59386559243E+01 -0.14392669849E+01  0.42934239980E+02  0.43366900815E+02  0.00000000000E+00 0.  1.
         22    1    4    4    0    0  0.16679638482E+02 -0.32715511066E+01  0.22949497936E+03  0.23012357319E+03  0.00000000000E+00 0.  1.
<mgrwt>
<rscale>  0 0.94832056E+02</rscale>
<asrwt>0</asrwt>
<pdfrwt beam="1">  1        1 0.44852740E-01 0.94832056E+02</pdfrwt>
<pdfrwt beam="2">  1       -1 0.11864096E-02 0.94832056E+02</pdfrwt>
<totfact> 0.11471627E+05</totfact>
</mgrwt>
</event>
<event>
 7    1  0.3607059E-009  0.9842484E+02  0.7818608E-02  0.1283644E+00
         -1   -1    0    0    0  501 -0.00000000000E+00  0.00000000000E+00  0.18169470907E+02  0.18169471606E+02  0.50400000000E-02 0.  1.
          1   -1    0    0  501    0  0.00000000000E+00 -0.00000000000E+00 -0.13329293129E+03  0.13329293138E+03  0.50400000000E-02 0. -1.
         23    2    1    2    0    0  0.00000000000E+00  0.35527136788E-14 -0.11512346038E+03  0.15146240299E+03  0.98424836241E+02 0.  0.
    9000005    2    3    3    0    0  0.11406634179E+02  0.22335805378E+02 -0.12243209921E+03  0.12533931537E+03  0.95564405303E+01 0.  0.
         22    1    3    3    0    0 -0.11406634179E+02 -0.22335805378E+02  0.73086388290E+01  0.26123087618E+02  0.00000000000E+00 0.  1.
         22    1    4    4    0    0  0.93120345371E+00  0.83034838285E+01 -0.25377769215E+02  0.26717899503E+02  0.00000000000E+00 0. -1.
         22    1    4    4    0    0  0.10475430725E+02  0.14032321549E+02 -0.97054329993E+02  0.98621415865E+02  0.00000000000E+00 0. -1.
<mgrwt>
<rscale>  0 0.98424836E+02</rscale>
<asrwt>0</asrwt>
<pdfrwt beam="2">  1        1 0.20506604E-01 0.98424836E+02</pdfrwt>
<pdfrwt beam="1">  1       -1 0.27953034E-02 0.98424836E+02</pdfrwt>
<totfact> 0.89142650E+04</totfact>
</mgrwt>
</event>
<event>
 7    1  0.3607059E-009  0.9141899E+02  0.7818608E-02  0.1299451E+00
         -1   -1    0    0    0  501 -0.00000000000E+00  0.00000000000E+00  0.52482451559E+01  0.52482475759E+01  0.50400000000E-02 0.  1.
          1   -1    0    0  501    0  0.00000000000E+00 -0.00000000000E+00 -0.39810593489E+03  0.39810593492E+03  0.50400000000E-02 0. -1.
         23    2    1    2    0    0  0.00000000000E+00  0.00000000000E+00 -0.39285768973E+03  0.40335418249E+03  0.91418992311E+02 0.  0.
    9000005    2    3    3    0    0  0.61265137446E+01  0.42122124195E+02 -0.14355650116E+03  0.15044532512E+03  0.14612299846E+02 0.  0.
         22    1    3    3    0    0 -0.61265137446E+01 -0.42122124195E+02 -0.24930118857E+03  0.25290885738E+03  0.00000000000E+00 0. -1.
         22    1    4    4    0    0  0.10956745947E+02  0.30933499277E+02 -0.10490924037E+03  0.10992215597E+03  0.00000000000E+00 0. -1.
         22    1    4    4    0    0 -0.48302322021E+01  0.11188624919E+02 -0.38647260794E+02  0.40523169146E+02  0.00000000000E+00 0. -1.
<mgrwt>
<rscale>  0 0.91418992E+02</rscale>
<asrwt>0</asrwt>
<pdfrwt beam="2">  1        1 0.61247043E-01 0.91418992E+02</pdfrwt>
<pdfrwt beam="1">  1       -1 0.80742283E-03 0.91418992E+02</pdfrwt>
<totfact> 0.13383992E+05</totfact>
</mgrwt>
</event>
<event>
 7    1  0.3607059E-009  0.9095662E+02  0.7818608E-02  0.1300551E+00
         -1   -1    0    0    0  501 -0.00000000000E+00  0.00000000000E+00  0.50696470396E+01  0.50696495449E+01  0.50400000000E-02 0.  1.
          1   -1    0    0  501    0  0.00000000000E+00 -0.00000000000E+00 -0.40797243590E+03  0.40797243593E+03  0.50400000000E-02 0. -1.
         23    2    1    2    0    0  0.00000000000E+00  0.00000000000E+00 -0.40290278886E+03  0.41304208548E+03  0.90956622095E+02 0.  0.
    9000005    2    3    3    0    0 -0.39162979987E+02  0.12490595378E+02 -0.28304465575E+03  0.28633089399E+03  0.13466615461E+02 0.  0.
         22    1    3    3    0    0  0.39162979987E+02 -0.12490595378E+02 -0.11985813312E+03  0.12671119149E+03  0.00000000000E+00 0.  1.
         22    1    4    4    0    0 -0.26121066041E+02  0.12963298369E+02 -0.16393095470E+03  0.16650439966E+03  0.00000000000E+00 0.  1.
         22    1    4    4    0    0 -0.13041913946E+02 -0.47270299078E+00 -0.11911370105E+03  0.11982649433E+03  0.00000000000E+00 0.  1.
<mgrwt>
<rscale>  0 0.90956622E+02</rscale>
<asrwt>0</asrwt>
<pdfrwt beam="2">  1        1 0.62764965E-01 0.90956622E+02</pdfrwt>
<pdfrwt beam="1">  1       -1 0.77994621E-03 0.90956622E+02</pdfrwt>
<totfact> 0.13619568E+05</totfact>
</mgrwt>
</event>
<event>
 7    1  0.3607059E-009  0.9512795E+02  0.7818608E-02  0.1290888E+00
         -1   -1    0    0    0  501 -0.00000000000E+00  0.00000000000E+00  0.32141224529E+02  0.32141224925E+02  0.50400000000E-02 0.  1.
          1   -1    0    0  501    0  0.00000000000E+00 -0.00000000000E+00 -0.70387232567E+02  0.70387232747E+02  0.50400000000E-02 0. -1.
         23    2    1    2    0    0  0.00000000000E+00  0.00000000000E+00 -0.38246008038E+02  0.10252845767E+03  0.95127953314E+02 0.  0.
    9000005    2    3    3    0    0  0.44781640216E+02 -0.53188555831E+01 -0.61854958961E+01  0.47197074498E+02  0.12474692645E+02 0.  0.
         22    1    3    3    0    0 -0.44781640216E+02  0.53188555831E+01 -0.32060512142E+02  0.55331383174E+02  0.00000000000E+00 0. -1.
         22    1    4    4    0    0  0.39301515163E+02 -0.53287931123E+01 -0.10322076874E+01  0.39674558383E+02  0.00000000000E+00 0. -1.
         22    1    4    4    0    0  0.54801250529E+01  0.99375292374E-02 -0.51532882087E+01  0.75225161157E+01  0.00000000000E+00 0. -1.
<mgrwt>
<rscale>  0 0.95127953E+02</rscale>
<asrwt>0</asrwt>
<pdfrwt beam="2">  1        1 0.10828805E-01 0.95127953E+02</pdfrwt>
<pdfrwt beam="1">  1       -1 0.49448038E-02 0.95127953E+02</pdfrwt>
<totfact> 0.87809735E+04</totfact>
</mgrwt>
</event>
<event>
 7    1  0.3607059E-009  0.9338776E+02  0.7818608E-02  0.1294849E+00
         -1   -1    0    0    0  501 -0.00000000000E+00  0.00000000000E+00  0.46849140236E+02  0.46849140507E+02  0.50400000000E-02 0.  1.
          1   -1    0    0  501    0  0.00000000000E+00 -0.00000000000E+00 -0.46539137937E+02  0.46539138210E+02  0.50400000000E-02 0. -1.
         23    2    1    2    0    0  0.00000000000E+00  0.17763568394E-14  0.31000229881E+00  0.93388278717E+02  0.93387764189E+02 0.  0.
    9000005    2    3    3    0    0  0.40644329103E+02 -0.11373113410E+02  0.19520295046E+02  0.47016471071E+02  0.69424373527E+01 0.  0.
         22    1    3    3    0    0 -0.40644329103E+02  0.11373113410E+02 -0.19210292748E+02  0.46371807646E+02  0.00000000000E+00 0. -1.
         22    1    4    4    0    0  0.28864210564E+02 -0.11271426930E+02  0.14472231644E+02  0.34199900662E+02  0.00000000000E+00 0.  1.
         22    1    4    4    0    0  0.11780118539E+02 -0.10168647944E+00  0.50480634023E+01  0.12816570409E+02  0.00000000000E+00 0.  1.
<mgrwt>
<rscale>  0 0.93387764E+02</rscale>
<asrwt>0</asrwt>
<pdfrwt beam="2">  1        1 0.71598674E-02 0.93387764E+02</pdfrwt>
<pdfrwt beam="1">  1       -1 0.72075601E-02 0.93387764E+02</pdfrwt>
<totfact> 0.86715120E+04</totfact>
</mgrwt>
</event>
<event>
 7    1  0.3607059E-009  0.8990054E+02  0.7818608E-02  0.1303093E+00
          1   -1    0    0  501    0  0.00000000000E+00  0.00000000000E+00  0.47066886133E+02  0.47066886403E+02  0.50400000000E-02 0.  1.
         -1   -1    0    0    0  501 -0.00000000000E+00 -0.00000000000E+00 -0.42928836099E+02  0.42928836394E+02  0.50400000000E-02 0. -1.
         23    2    1    2    0    0  0.00000000000E+00  0.17763568394E-14  0.41380500343E+01  0.89995722797E+02  0.89900537616E+02 0.  0.
    9000005    2    3    3    0    0 -0.33703661285E+02  0.15046266402E+02  0.26842157613E+02  0.46662093621E+02  0.97222754115E+01 0.  0.
         22    1    3    3    0    0  0.33703661285E+02 -0.15046266402E+02 -0.22704107578E+02  0.43333629176E+02  0.00000000000E+00 0. -1.
         22    1    4    4    0    0 -0.20805102952E+02  0.93718474931E+01  0.10603834904E+02  0.25161978240E+02  0.00000000000E+00 0. -1.
         22    1    4    4    0    0 -0.12898558333E+02  0.56744189091E+01  0.16238322709E+02  0.21500115381E+02  0.00000000000E+00 0. -1.
<mgrwt>
<rscale>  0 0.89900538E+02</rscale>
<asrwt>0</asrwt>
<pdfrwt beam="1">  1        1 0.72410594E-02 0.89900538E+02</pdfrwt>
<pdfrwt beam="2">  1       -1 0.66044364E-02 0.89900538E+02</pdfrwt>
<totfact> 0.96654233E+04</totfact>
</mgrwt>
</event>
<event>
 7    1  0.3607059E-009  0.8290480E+02  0.7818608E-02  0.1321004E+00
          1   -1    0    0  501    0  0.00000000000E+00  0.00000000000E+00  0.91197863578E+01  0.91197877504E+01  0.50400000000E-02 0. -1.
         -1   -1    0    0    0  501 -0.00000000000E+00 -0.00000000000E+00 -0.18841466819E+03  0.18841466825E+03  0.50400000000E-02 0.  1.
         23    2    1    2    0    0  0.00000000000E+00  0.35527136788E-14 -0.17929488183E+03  0.19753445600E+03  0.82904804800E+02 0.  0.
    9000005    2    3    3    0    0 -0.12694076356E+02 -0.26043270109E+02 -0.15965979868E+03  0.16253548484E+03  0.93349357014E+01 0.  0.
         22    1    3    3    0    0  0.12694076356E+02  0.26043270109E+02 -0.19635083151E+02  0.34998971168E+02  0.00000000000E+00 0. -1.
         22    1    4    4    0    0 -0.77978563954E+01 -0.22921736534E+02 -0.13815529179E+03  0.14026081855E+03  0.00000000000E+00 0. -1.
         22    1    4    4    0    0 -0.48962199609E+01 -0.31215335746E+01 -0.21504506884E+02  0.22274666284E+02  0.00000000000E+00 0. -1.
<mgrwt>
<rscale>  0 0.82904805E+02</rscale>
<asrwt>0</asrwt>
<pdfrwt beam="1">  1        1 0.14030443E-02 0.82904805E+02</pdfrwt>
<pdfrwt beam="2">  1       -1 0.28986869E-01 0.82904805E+02</pdfrwt>
<totfact> 0.90353860E+04</totfact>
</mgrwt>
</event>
<event>
 7    1  0.3607059E-009  0.8949237E+02  0.7818608E-02  0.1304086E+00
         -1   -1    0    0    0  501 -0.00000000000E+00  0.00000000000E+00  0.79715226145E+03  0.79715226147E+03  0.50400000000E-02 0.  1.
          1   -1    0    0  501    0  0.00000000000E+00 -0.00000000000E+00 -0.25117146662E+01  0.25117197228E+01  0.50400000000E-02 0. -1.
         23    2    1    2    0    0  0.35527136788E-14  0.35527136788E-14  0.79464054679E+03  0.79966398119E+03  0.89492369606E+02 0.  0.
    9000005    2    3    3    0    0 -0.31013131017E+02  0.24335617451E+02  0.57325360691E+03  0.57479465531E+03  0.14668379983E+02 0.  0.
         22    1    3    3    0    0  0.31013131017E+02 -0.24335617451E+02  0.22138693988E+03  0.22486932588E+03  0.00000000000E+00 0. -1.
         22    1    4    4    0    0 -0.29234183600E+02  0.17049674837E+02  0.42181377554E+03  0.42316922163E+03  0.00000000000E+00 0. -1.
         22    1    4    4    0    0 -0.17789474164E+01  0.72859426144E+01  0.15143983137E+03  0.15162543368E+03  0.00000000000E+00 0. -1.
<mgrwt>
<rscale>  0 0.89492370E+02</rscale>
<asrwt>0</asrwt>
<pdfrwt beam="2">  1        1 0.38641764E-03 0.89492370E+02</pdfrwt>
<pdfrwt beam="1">  1       -1 0.12263893E+00 0.89492370E+02</pdfrwt>
<totfact> 0.34409167E+04</totfact>
</mgrwt>
</event>
<event>
 6    1  0.1091670E-008  0.3224313E+03  0.7818608E-02  0.1074536E+00
          1   -1    0    0  501    0  0.00000000000E+00  0.00000000000E+00  0.10991633173E+03  0.10991633185E+03  0.50400000000E-02 0. -1.
         -1   -1    0    0    0  501 -0.00000000000E+00 -0.00000000000E+00 -0.23645695055E+03  0.23645695060E+03  0.50400000000E-02 0.  1.
    9000005    2    1    2    0    0  0.15796483586E+03 -0.14427779447E+02 -0.34495247176E+02  0.16297916959E+03  0.14534010256E+02 0.  0.
         22    1    1    2    0    0 -0.15796483586E+03  0.14427779447E+02 -0.92045371641E+02  0.18339411285E+03  0.00000000000E+00 0.  1.
         22    1    3    3    0    0  0.11971828333E+03 -0.54267602378E+01 -0.22868932684E+02  0.12200370967E+03  0.00000000000E+00 0.  1.
         22    1    3    3    0    0  0.38246552531E+02 -0.90010192088E+01 -0.11626314492E+02  0.40975459924E+02  0.00000000000E+00 0.  1.
<mgrwt>
<rscale>  0 0.32243127E+03</rscale>
<asrwt>0</asrwt>
<pdfrwt beam="1">  1        1 0.16910205E-01 0.32243127E+03</pdfrwt>
<pdfrwt beam="2">  1       -1 0.36377992E-01 0.32243127E+03</pdfrwt>
<totfact> 0.23279623E+03</totfact>
</mgrwt>
</event>
<event>
 7    1  0.3819926E-009  0.9204424E+02  0.7818608E-02  0.1297975E+00
         -1   -1    0    0    0  501 -0.00000000000E+00  0.00000000000E+00  0.45279265235E+01  0.45279293285E+01  0.50400000000E-02 0.  1.
          1   -1    0    0  501    0  0.00000000000E+00 -0.00000000000E+00 -0.46777151668E+03  0.46777151671E+03  0.50400000000E-02 0. -1.
         23    2    1    2    0    0 -0.44408920985E-15  0.17763568394E-14 -0.46324359016E+03  0.47229944604E+03  0.92044244277E+02 0.  0.
    9000005    2    3    3    0    0 -0.30810364849E+01  0.99070645490E+01 -0.46140237367E+03  0.46176223616E+03  0.14985646574E+02 0.  0.
         22    1    3    3    0    0  0.30810364849E+01 -0.99070645490E+01 -0.18412164881E+01  0.10537209875E+02  0.00000000000E+00 0.  1.
         22    1    4    4    0    0 -0.65867419267E+00  0.44209643629E+01 -0.40795101691E+03  0.40797550291E+03  0.00000000000E+00 0.  1.
         22    1    4    4    0    0 -0.24223622923E+01  0.54861001861E+01 -0.53451356755E+02  0.53786733246E+02  0.00000000000E+00 0.  1.
<mgrwt>
<rscale>  0 0.92044244E+02</rscale>
<asrwt>0</asrwt>
<pdfrwt beam="2">  1        1 0.71964811E-01 0.92044244E+02</pdfrwt>
<pdfrwt beam="1">  1       -1 0.69660467E-03 0.92044244E+02</pdfrwt>
<totfact> 0.13467020E+05</totfact>
</mgrwt>
</event>
<event>
 7    1  0.3607059E-009  0.9219683E+02  0.7818608E-02  0.1297617E+00
         -1   -1    0    0    0  501 -0.00000000000E+00  0.00000000000E+00  0.21478038992E+02  0.21478039583E+02  0.50400000000E-02 0.  1.
          1   -1    0    0  501    0  0.00000000000E+00 -0.00000000000E+00 -0.98941240138E+02  0.98941240267E+02  0.50400000000E-02 0. -1.
         23    2    1    2    0    0  0.00000000000E+00  0.00000000000E+00 -0.77463201146E+02  0.12041927985E+03  0.92196829814E+02 0.  0.
    9000005    2    3    3    0    0 -0.16667742145E+02 -0.12559106055E+02  0.14063058948E+02  0.26543824805E+02  0.84415777663E+01 0.  0.
         22    1    3    3    0    0  0.16667742145E+02  0.12559106055E+02 -0.91526260094E+02  0.93875455045E+02  0.00000000000E+00 0. -1.
         22    1    4    4    0    0 -0.99082436840E+01 -0.61166997305E+01  0.29185610652E+01  0.12004386998E+02  0.00000000000E+00 0.  1.
         22    1    4    4    0    0 -0.67594984608E+01 -0.64424063247E+01  0.11144497883E+02  0.14539437807E+02  0.00000000000E+00 0.  1.
<mgrwt>
<rscale>  0 0.92196830E+02</rscale>
<asrwt>0</asrwt>
<pdfrwt beam="2">  1        1 0.15221729E-01 0.92196830E+02</pdfrwt>
<pdfrwt beam="1">  1       -1 0.33043138E-02 0.92196830E+02</pdfrwt>
<totfact> 0.10114662E+05</totfact>
</mgrwt>
</event>
<event>
 7    1  0.3607059E-009  0.9160746E+02  0.7818608E-02  0.1299005E+00
          1   -1    0    0  501    0  0.00000000000E+00  0.00000000000E+00  0.43770967725E+03  0.43770967728E+03  0.50400000000E-02 0. -1.
         -1   -1    0    0    0  501 -0.00000000000E+00 -0.00000000000E+00 -0.47930881895E+01  0.47930908393E+01  0.50400000000E-02 0.  1.
         23    2    1    2    0    0  0.00000000000E+00  0.17763568394E-14  0.43291658906E+03  0.44250276812E+03  0.91607459896E+02 0.  0.
    9000005    2    3    3    0    0  0.41734557940E+02 -0.13751791490E+02  0.17322666223E+03  0.17912140357E+03  0.12087829121E+02 0.  0.
         22    1    3    3    0    0 -0.41734557940E+02  0.13751791490E+02  0.25968992683E+03  0.26338136455E+03  0.00000000000E+00 0. -1.
         22    1    4    4    0    0  0.10188378015E+02  0.17207696854E+01  0.34482589020E+02  0.35997403245E+02  0.00000000000E+00 0.  1.
         22    1    4    4    0    0  0.31546179925E+02 -0.15472561175E+02  0.13874407321E+03  0.14312400032E+03  0.00000000000E+00 0.  1.
<mgrwt>
<rscale>  0 0.91607460E+02</rscale>
<asrwt>0</asrwt>
<pdfrwt beam="1">  1        1 0.67339941E-01 0.91607460E+02</pdfrwt>
<pdfrwt beam="2">  1       -1 0.73739849E-03 0.91607460E+02</pdfrwt>
<totfact> 0.13510419E+05</totfact>
</mgrwt>
</event>
<event>
 7    1  0.3607059E-009  0.9057728E+02  0.7818608E-02  0.1301460E+00
         -1   -1    0    0    0  501 -0.00000000000E+00  0.00000000000E+00  0.21733860226E+02  0.21733860811E+02  0.50400000000E-02 0.  1.
          1   -1    0    0  501    0  0.00000000000E+00 -0.00000000000E+00 -0.94371678954E+02  0.94371679089E+02  0.50400000000E-02 0. -1.
         23    2    1    2    0    0  0.00000000000E+00  0.00000000000E+00 -0.72637818728E+02  0.11610553990E+03  0.90577280185E+02 0.  0.
    9000005    2    3    3    0    0 -0.14062013944E+02  0.15970727970E+02  0.14330954621E+02  0.26571345729E+02  0.69177861654E+01 0.  0.
         22    1    3    3    0    0  0.14062013944E+02 -0.15970727970E+02 -0.86968773349E+02  0.89534194171E+02  0.00000000000E+00 0. -1.
         22    1    4    4    0    0 -0.11982468481E+02  0.12387336679E+02  0.14352644549E+02  0.22428198020E+02  0.00000000000E+00 0.  1.
         22    1    4    4    0    0 -0.20795454633E+01  0.35833912911E+01 -0.21689928331E-01  0.41431477082E+01  0.00000000000E+00 0.  1.
<mgrwt>
<rscale>  0 0.90577280E+02</rscale>
<asrwt>0</asrwt>
<pdfrwt beam="2">  1        1 0.14518720E-01 0.90577280E+02</pdfrwt>
<pdfrwt beam="1">  1       -1 0.33436709E-02 0.90577280E+02</pdfrwt>
<totfact> 0.10533642E+05</totfact>
</mgrwt>
</event>
<event>
 7    1  0.3607059E-009  0.9105770E+02  0.7818608E-02  0.1300310E+00
         -1   -1    0    0    0  501 -0.00000000000E+00  0.00000000000E+00  0.32413674489E+02  0.32413674880E+02  0.50400000000E-02 0. -1.
          1   -1    0    0  501    0  0.00000000000E+00 -0.00000000000E+00 -0.63950666489E+02  0.63950666688E+02  0.50400000000E-02 0.  1.
         23    2    1    2    0    0  0.00000000000E+00  0.00000000000E+00 -0.31536992000E+02  0.96364341568E+02  0.91057698529E+02 0.  0.
    9000005    2    3    3    0    0  0.18329815544E+02 -0.39509628705E+02 -0.25892291359E+02  0.52445603613E+02  0.13532837406E+02 0.  0.
         22    1    3    3    0    0 -0.18329815544E+02  0.39509628705E+02 -0.56447006414E+01  0.43918737955E+02  0.00000000000E+00 0. -1.
         22    1    4    4    0    0  0.75794998842E+01 -0.15117503302E+02 -0.27257991089E+01  0.17129439727E+02  0.00000000000E+00 0.  1.
         22    1    4    4    0    0  0.10750315659E+02 -0.24392125402E+02 -0.23166492250E+02  0.35316163886E+02  0.00000000000E+00 0.  1.
<mgrwt>
<rscale>  0 0.91057699E+02</rscale>
<asrwt>0</asrwt>
<pdfrwt beam="2">  1        1 0.98385641E-02 0.91057699E+02</pdfrwt>
<pdfrwt beam="1">  1       -1 0.49867192E-02 0.91057699E+02</pdfrwt>
<totfact> 0.97662018E+04</totfact>
</mgrwt>
</event>
<event>
 7    1  0.3607059E-009  0.9257803E+02  0.7818608E-02  0.1296726E+00
         -1   -1    0    0    0  501 -0.00000000000E+00  0.00000000000E+00  0.23994209698E+02  0.23994210227E+02  0.50400000000E-02 0.  1.
          1   -1    0    0  501    0  0.00000000000E+00 -0.00000000000E+00 -0.89299578965E+02  0.89299579107E+02  0.50400000000E-02 0. -1.
         23    2    1    2    0    0  0.00000000000E+00  0.00000000000E+00 -0.65305369267E+02  0.11329378933E+03  0.92578028962E+02 0.  0.
    9000005    2    3    3    0    0 -0.10093278019E+02 -0.81535905293E+01 -0.86396058661E+02  0.88531469596E+02  0.14324344906E+02 0.  0.
         22    1    3    3    0    0  0.10093278019E+02  0.81535905293E+01  0.21090689394E+02  0.24762319738E+02  0.00000000000E+00 0.  1.
         22    1    4    4    0    0 -0.35764675325E+01 -0.66249514168E+01 -0.14626126629E+02  0.16450066305E+02  0.00000000000E+00 0.  1.
         22    1    4    4    0    0 -0.65168104869E+01 -0.15286391125E+01 -0.71769932032E+02  0.72081403291E+02  0.00000000000E+00 0.  1.
<mgrwt>
<rscale>  0 0.92578029E+02</rscale>
<asrwt>0</asrwt>
<pdfrwt beam="2">  1        1 0.13738397E-01 0.92578029E+02</pdfrwt>
<pdfrwt beam="1">  1       -1 0.36914170E-02 0.92578029E+02</pdfrwt>
<totfact> 0.98333456E+04</totfact>
</mgrwt>
</event>
<event>
 7    1  0.3607059E-009  0.9116642E+02  0.7818608E-02  0.1300051E+00
          1   -1    0    0  501    0  0.00000000000E+00  0.00000000000E+00  0.19436374274E+02  0.19436374927E+02  0.50400000000E-02 0. -1.
         -1   -1    0    0    0  501 -0.00000000000E+00 -0.00000000000E+00 -0.10690413478E+03  0.10690413490E+03  0.50400000000E-02 0.  1.
         23    2    1    2    0    0  0.00000000000E+00  0.35527136788E-14 -0.87467760509E+02  0.12634050983E+03  0.91166415392E+02 0.  0.
    9000005    2    3    3    0    0 -0.19760496592E+02  0.26110643321E+02 -0.86741159929E+02  0.93587328783E+02  0.12740343902E+02 0.  0.
         22    1    3    3    0    0  0.19760496592E+02 -0.26110643321E+02 -0.72660057972E+00  0.32753181046E+02  0.00000000000E+00 0. -1.
         22    1    4    4    0    0 -0.80117884094E+01  0.96877131957E+01 -0.18098623179E+02  0.22036349549E+02  0.00000000000E+00 0.  1.
         22    1    4    4    0    0 -0.11748708183E+02  0.16422930125E+02 -0.68642536750E+02  0.71550979234E+02  0.00000000000E+00 0.  1.
<mgrwt>
<rscale>  0 0.91166415E+02</rscale>
<asrwt>0</asrwt>
<pdfrwt beam="1">  1        1 0.29902115E-02 0.91166415E+02</pdfrwt>
<pdfrwt beam="2">  1       -1 0.16446790E-01 0.91166415E+02</pdfrwt>
<totfact> 0.80373929E+04</totfact>
</mgrwt>
</event>
<event>
 7    1  0.3607059E-009  0.9162277E+02  0.7818608E-02  0.1298969E+00
          1   -1    0    0  501    0  0.00000000000E+00  0.00000000000E+00  0.36590511397E+02  0.36590511744E+02  0.50400000000E-02 0. -1.
         -1   -1    0    0    0  501 -0.00000000000E+00 -0.00000000000E+00 -0.57355928417E+02  0.57355928639E+02  0.50400000000E-02 0.  1.
         23    2    1    2    0    0  0.00000000000E+00  0.22204460493E-15 -0.20765417021E+02  0.93946440383E+02  0.91622765274E+02 0.  0.
    9000005    2    3    3    0    0 -0.12087978918E+02 -0.11268093067E+01 -0.54719148778E+02  0.57887532554E+02  0.14470392141E+02 0.  0.
         22    1    3    3    0    0  0.12087978918E+02  0.11268093067E+01  0.33953731757E+02  0.36058907828E+02  0.00000000000E+00 0. -1.
         22    1    4    4    0    0  0.25452126035E+00  0.45297603712E+01 -0.22006384334E+02  0.22469189161E+02  0.00000000000E+00 0.  1.
         22    1    4    4    0    0 -0.12342500179E+02 -0.56565696779E+01 -0.32712764443E+02  0.35418343393E+02  0.00000000000E+00 0.  1.
<mgrwt>
<rscale>  0 0.91622765E+02</rscale>
<asrwt>0</asrwt>
<pdfrwt beam="1">  1        1 0.56293095E-02 0.91622765E+02</pdfrwt>
<pdfrwt beam="2">  1       -1 0.88239890E-02 0.91622765E+02</pdfrwt>
<totfact> 0.88205223E+04</totfact>
</mgrwt>
</event>
<event>
 7    1  0.3607059E-009  0.1134586E+03  0.7818608E-02  0.1254296E+00
          1   -1    0    0  501    0  0.00000000000E+00  0.00000000000E+00  0.30284223154E+03  0.30284223158E+03  0.50400000000E-02 0. -1.
         -1   -1    0    0    0  501 -0.00000000000E+00 -0.00000000000E+00 -0.10626695538E+02  0.10626696733E+02  0.50400000000E-02 0.  1.
         23    2    1    2    0    0  0.00000000000E+00  0.00000000000E+00  0.29221553600E+03  0.31346892831E+03  0.11345858071E+03 0.  0.
    9000005    2    3    3    0    0  0.34810825411E+01  0.45509358301E+02  0.23891773057E+03  0.24329859490E+03  0.54133785482E+01 0.  0.
         22    1    3    3    0    0 -0.34810825411E+01 -0.45509358301E+02  0.53297805429E+02  0.70170333419E+02  0.00000000000E+00 0. -1.
         22    1    4    4    0    0  0.17608957774E+01  0.14595275377E+02  0.90432382241E+02  0.91619531625E+02  0.00000000000E+00 0.  1.
         22    1    4    4    0    0  0.17201867637E+01  0.30914082924E+02  0.14848534833E+03  0.15167906327E+03  0.00000000000E+00 0.  1.
<mgrwt>
<rscale>  0 0.11345858E+03</rscale>
<asrwt>0</asrwt>
<pdfrwt beam="1">  1        1 0.46591113E-01 0.11345858E+03</pdfrwt>
<pdfrwt beam="2">  1       -1 0.16348763E-02 0.11345858E+03</pdfrwt>
<totfact> 0.71196021E+04</totfact>
</mgrwt>
</event>
<event>
 7    1  0.3607059E-009  0.9102968E+02  0.7818608E-02  0.1300377E+00
         -1   -1    0    0    0  501 -0.00000000000E+00  0.00000000000E+00  0.96181306998E+01  0.96181320203E+01  0.50400000000E-02 0.  1.
          1   -1    0    0  501    0  0.00000000000E+00 -0.00000000000E+00 -0.21538492451E+03  0.21538492457E+03  0.50400000000E-02 0. -1.
         23    2    1    2    0    0  0.00000000000E+00  0.00000000000E+00 -0.20576679381E+03  0.22500305659E+03  0.91029676698E+02 0.  0.
    9000005    2    3    3    0    0 -0.10269513493E+02  0.39588890991E+02 -0.14842302350E+03  0.15456832659E+03  0.13756107057E+02 0.  0.
         22    1    3    3    0    0  0.10269513493E+02 -0.39588890991E+02 -0.57343770308E+02  0.70434730002E+02  0.00000000000E+00 0.  1.
         22    1    4    4    0    0  0.20491987378E+01  0.81303040672E+01 -0.44771200152E+02  0.45549549095E+02  0.00000000000E+00 0.  1.
         22    1    4    4    0    0 -0.12318712231E+02  0.31458586923E+02 -0.10365182335E+03  0.10901877750E+03  0.00000000000E+00 0.  1.
<mgrwt>
<rscale>  0 0.91029677E+02</rscale>
<asrwt>0</asrwt>
<pdfrwt beam="2">  1        1 0.33136139E-01 0.91029677E+02</pdfrwt>
<pdfrwt beam="1">  1       -1 0.14797127E-02 0.91029677E+02</pdfrwt>
<totfact> 0.12064659E+05</totfact>
</mgrwt>
</event>
<event>
 6    1  0.3607059E-009  0.4591299E+02  0.7818608E-02  0.1468721E+00
         -1   -1    0    0    0  501 -0.00000000000E+00  0.00000000000E+00  0.11128585055E+01  0.11128699183E+01  0.50400000000E-02 0.  1.
          1   -1    0    0  501    0  0.00000000000E+00 -0.00000000000E+00 -0.47355335770E+03  0.47355335773E+03  0.50400000000E-02 0. -1.
    9000005    2    1    2    0    0  0.59483337223E+01 -0.14405914484E+02 -0.40614153078E+03  0.40655994116E+03  0.98554393183E+01 0.  0.
         22    1    1    2    0    0 -0.59483337223E+01  0.14405914484E+02 -0.66298968419E+02  0.68106286491E+02  0.00000000000E+00 0.  1.
         22    1    3    3    0    0  0.67232116730E+00 -0.11318151700E+02 -0.32051044066E+03  0.32071092146E+03  0.00000000000E+00 0. -1.
         22    1    3    3    0    0  0.52760125550E+01 -0.30877627845E+01 -0.85631090122E+02  0.85849019698E+02  0.00000000000E+00 0. -1.
<mgrwt>
<rscale>  0 0.45912987E+02</rscale>
<asrwt>0</asrwt>
<pdfrwt beam="2">  1        1 0.72854203E-01 0.45912987E+02</pdfrwt>
<pdfrwt beam="1">  1       -1 0.17121026E-03 0.45912987E+02</pdfrwt>
<totfact> 0.79949432E+05</totfact>
</mgrwt>
</event>
<event>
 7    1  0.3607059E-009  0.9496421E+02  0.7818608E-02  0.1291257E+00
         -1   -1    0    0    0  501 -0.00000000000E+00  0.00000000000E+00  0.39644055983E+02  0.39644056304E+02  0.50400000000E-02 0.  1.
          1   -1    0    0  501    0  0.00000000000E+00 -0.00000000000E+00 -0.56869821634E+02  0.56869821857E+02  0.50400000000E-02 0. -1.
         23    2    1    2    0    0  0.00000000000E+00  0.35527136788E-14 -0.17225765651E+02  0.96513878161E+02  0.94964212604E+02 0.  0.
    9000005    2    3    3    0    0 -0.21727839939E+02 -0.27441769670E+02  0.22342114248E+02  0.43686168854E+02  0.13570612699E+02 0.  0.
         22    1    3    3    0    0  0.21727839939E+02  0.27441769670E+02 -0.39567879898E+02  0.52827709307E+02  0.00000000000E+00 0. -1.
         22    1    4    4    0    0 -0.91403207729E+00 -0.42109462795E+01  0.85650342622E+01  0.95878743797E+01  0.00000000000E+00 0.  1.
         22    1    4    4    0    0 -0.20813807861E+02 -0.23230823391E+02  0.13777079985E+02  0.34098294474E+02  0.00000000000E+00 0.  1.
<mgrwt>
<rscale>  0 0.94964213E+02</rscale>
<asrwt>0</asrwt>
<pdfrwt beam="2">  1        1 0.87492033E-02 0.94964213E+02</pdfrwt>
<pdfrwt beam="1">  1       -1 0.60990856E-02 0.94964213E+02</pdfrwt>
<totfact> 0.85330700E+04</totfact>
</mgrwt>
</event>
<event>
 7    1  0.3607059E-009  0.1027498E+03  0.7818608E-02  0.1274617E+00
         -1   -1    0    0    0  501 -0.00000000000E+00  0.00000000000E+00  0.46707268757E+01  0.46707295949E+01  0.50400000000E-02 0.  1.
          1   -1    0    0  501    0  0.00000000000E+00 -0.00000000000E+00 -0.56509018417E+03  0.56509018420E+03  0.50400000000E-02 0. -1.
         23    2    1    2    0    0  0.00000000000E+00 -0.17763568394E-14 -0.56041945730E+03  0.56976091379E+03  0.10274984558E+03 0.  0.
    9000005    2    3    3    0    0  0.80458211968E+01  0.15543067709E+02 -0.54786822747E+03  0.54822360749E+03  0.91217842235E+01 0.  0.
         22    1    3    3    0    0 -0.80458211968E+01 -0.15543067709E+02 -0.12551229833E+02  0.21537306304E+02  0.00000000000E+00 0.  1.
         22    1    4    4    0    0  0.30808197413E+01  0.68607136680E+01 -0.36850548298E+03  0.36858221854E+03  0.00000000000E+00 0.  1.
         22    1    4    4    0    0  0.49650014555E+01  0.86823540406E+01 -0.17936274449E+03  0.17964138895E+03  0.00000000000E+00 0.  1.
<mgrwt>
<rscale>  0 0.10274985E+03</rscale>
<asrwt>0</asrwt>
<pdfrwt beam="2">  1        1 0.86936897E-01 0.10274985E+03</pdfrwt>
<pdfrwt beam="1">  1       -1 0.71857402E-03 0.10274985E+03</pdfrwt>
<totfact> 0.10255409E+05</totfact>
</mgrwt>
</event>
<event>
 7    1  0.3607059E-009  0.9245668E+02  0.7818608E-02  0.1297009E+00
         -1   -1    0    0    0  501 -0.00000000000E+00  0.00000000000E+00  0.76778988440E+01  0.76779004982E+01  0.50400000000E-02 0.  1.
          1   -1    0    0  501    0  0.00000000000E+00 -0.00000000000E+00 -0.27833905480E+03  0.27833905485E+03  0.50400000000E-02 0. -1.
         23    2    1    2    0    0  0.00000000000E+00  0.00000000000E+00 -0.27066115596E+03  0.28601695534E+03  0.92456678508E+02 0.  0.
    9000005    2    3    3    0    0 -0.39896470428E+02  0.22889395386E+02 -0.14856863817E+03  0.15554766519E+03  0.26044432901E+01 0.  0.
         22    1    3    3    0    0  0.39896470428E+02 -0.22889395386E+02 -0.12209251779E+03  0.13046929016E+03  0.00000000000E+00 0. -1.
         22    1    4    4    0    0 -0.52439723538E+01  0.31644418897E+01 -0.22910314379E+02  0.23714878104E+02  0.00000000000E+00 0. -1.
         22    1    4    4    0    0 -0.34652498074E+02  0.19724953497E+02 -0.12565832379E+03  0.13183278708E+03  0.00000000000E+00 0. -1.
<mgrwt>
<rscale>  0 0.92456679E+02</rscale>
<asrwt>0</asrwt>
<pdfrwt beam="2">  1        1 0.42821385E-01 0.92456679E+02</pdfrwt>
<pdfrwt beam="1">  1       -1 0.11812156E-02 0.92456679E+02</pdfrwt>
<totfact> 0.12167196E+05</totfact>
</mgrwt>
</event>
<event>
 7    1  0.3607059E-009  0.9008702E+02  0.7818608E-02  0.1302641E+00
         -1   -1    0    0    0  501 -0.00000000000E+00  0.00000000000E+00  0.27447356225E+01  0.27447402499E+01  0.50400000000E-02 0.  1.
          1   -1    0    0  501    0  0.00000000000E+00 -0.00000000000E+00 -0.73920266489E+03  0.73920266491E+03  0.50400000000E-02 0. -1.
         23    2    1    2    0    0  0.00000000000E+00  0.00000000000E+00 -0.73645792927E+03  0.74194740516E+03  0.90087015926E+02 0.  0.
    9000005    2    3    3    0    0 -0.21640801434E+02  0.48220485690E+01 -0.69086331333E+03  0.69124784459E+03  0.63157349447E+01 0.  0.
         22    1    3    3    0    0  0.21640801434E+02 -0.48220485690E+01 -0.45594615942E+02  0.50699560570E+02  0.00000000000E+00 0.  1.
         22    1    4    4    0    0 -0.37170176274E+01  0.28806098805E+01 -0.19554445579E+03  0.19560099264E+03  0.00000000000E+00 0.  1.
         22    1    4    4    0    0 -0.17923783807E+02  0.19414386885E+01 -0.49531885754E+03  0.49564685194E+03  0.00000000000E+00 0.  1.
<mgrwt>
<rscale>  0 0.90087016E+02</rscale>
<asrwt>0</asrwt>
<pdfrwt beam="2">  1        1 0.11372333E+00 0.90087016E+02</pdfrwt>
<pdfrwt beam="1">  1       -1 0.42226797E-03 0.90087016E+02</pdfrwt>
<totfact> 0.14657844E+05</totfact>
</mgrwt>
</event>
<event>
 7    1  0.3607059E-009  0.9095894E+02  0.7818608E-02  0.1300546E+00
         -1   -1    0    0    0  501 -0.00000000000E+00  0.00000000000E+00  0.78266940160E+02  0.78266940322E+02  0.50400000000E-02 0.  1.
          1   -1    0    0  501    0  0.00000000000E+00 -0.00000000000E+00 -0.26427276786E+02  0.26427277267E+02  0.50400000000E-02 0. -1.
         23    2    1    2    0    0  0.11102230246E-15  0.00000000000E+00  0.51839663374E+02  0.10469421759E+03  0.90958938527E+02 0.  0.
    9000005    2    3    3    0    0 -0.11528161619E+00  0.41923339175E+02  0.43504926928E+02  0.61950241534E+02  0.13695769480E+02 0.  0.
         22    1    3    3    0    0  0.11528161619E+00 -0.41923339175E+02  0.83347364454E+01  0.42743976056E+02  0.00000000000E+00 0. -1.
         22    1    4    4    0    0  0.14495542587E+01 -0.57319552967E+00  0.12127239129E+01  0.19749582155E+01  0.00000000000E+00 0.  1.
         22    1    4    4    0    0 -0.15648358749E+01  0.42496534705E+02  0.42292203015E+02  0.59975283318E+02  0.00000000000E+00 0.  1.
<mgrwt>
<rscale>  0 0.90958939E+02</rscale>
<asrwt>0</asrwt>
<pdfrwt beam="2">  1        1 0.40657349E-02 0.90958939E+02</pdfrwt>
<pdfrwt beam="1">  1       -1 0.12041068E-01 0.90958939E+02</pdfrwt>
<totfact> 0.85485281E+04</totfact>
</mgrwt>
</event>
<event>
 7    1  0.3607059E-009  0.9116959E+02  0.7818608E-02  0.1300044E+00
          1   -1    0    0  501    0  0.00000000000E+00  0.00000000000E+00  0.95078252669E+03  0.95078252670E+03  0.50400000000E-02 0. -1.
         -1   -1    0    0    0  501 -0.00000000000E+00 -0.00000000000E+00 -0.21855375070E+01  0.21855433182E+01  0.50400000000E-02 0.  1.
         23    2    1    2    0    0  0.00000000000E+00 -0.17763568394E-14  0.94859698918E+03  0.95296807002E+03  0.91169592483E+02 0.  0.
    9000005    2    3    3    0    0 -0.19580228239E+02  0.15839128121E+02  0.87030520892E+03  0.87072534284E+03  0.98591415995E+01 0.  0.
         22    1    3    3    0    0  0.19580228239E+02 -0.15839128121E+02  0.78291780264E+02  0.82242727182E+02  0.00000000000E+00 0.  1.
         22    1    4    4    0    0 -0.61455048998E+01  0.59293591581E+01  0.16336058600E+03  0.16358363485E+03  0.00000000000E+00 0. -1.
         22    1    4    4    0    0 -0.13434723339E+02  0.99097689627E+01  0.70694462291E+03  0.70714170799E+03  0.00000000000E+00 0. -1.
<mgrwt>
<rscale>  0 0.91169592E+02</rscale>
<asrwt>0</asrwt>
<pdfrwt beam="1">  1        1 0.14627449E+00 0.91169592E+02</pdfrwt>
<pdfrwt beam="2">  1       -1 0.33623641E-03 0.91169592E+02</pdfrwt>
<totfact> 0.13771683E+05</totfact>
</mgrwt>
</event>
<event>
 7    1  0.3607059E-009  0.9068486E+02  0.7818608E-02  0.1301202E+00
         -1   -1    0    0    0  501 -0.00000000000E+00  0.00000000000E+00  0.91530579362E+01  0.91530593238E+01  0.50400000000E-02 0.  1.
          1   -1    0    0  501    0  0.00000000000E+00 -0.00000000000E+00 -0.22461738322E+03  0.22461738328E+03  0.50400000000E-02 0. -1.
         23    2    1    2    0    0 -0.35527136788E-14  0.00000000000E+00 -0.21546432529E+03  0.23377044260E+03  0.90684862925E+02 0.  0.
    9000005    2    3    3    0    0  0.19581996487E+02 -0.11146586141E+01 -0.21264262142E+03  0.21395481587E+03  0.13231845569E+02 0.  0.
         22    1    3    3    0    0 -0.19581996487E+02  0.11146586141E+01 -0.28217038640E+01  0.19815626736E+02  0.00000000000E+00 0.  1.
         22    1    4    4    0    0  0.31650396273E+01 -0.28985696015E+00 -0.10645770551E+03  0.10650513864E+03  0.00000000000E+00 0.  1.
         22    1    4    4    0    0  0.16416956859E+02 -0.82480165395E+00 -0.10618491591E+03  0.10744967723E+03  0.00000000000E+00 0.  1.
<mgrwt>
<rscale>  0 0.90684863E+02</rscale>
<asrwt>0</asrwt>
<pdfrwt beam="2">  1        1 0.34556517E-01 0.90684863E+02</pdfrwt>
<pdfrwt beam="1">  1       -1 0.14081630E-02 0.90684863E+02</pdfrwt>
<totfact> 0.12287893E+05</totfact>
</mgrwt>
</event>
<event>
 7    1  0.3607059E-009  0.9202329E+02  0.7818608E-02  0.1298025E+00
          1   -1    0    0  501    0  0.00000000000E+00  0.00000000000E+00  0.51409570531E+03  0.51409570533E+03  0.50400000000E-02 0. -1.
         -1   -1    0    0    0  501 -0.00000000000E+00 -0.00000000000E+00 -0.41180473580E+01  0.41180504422E+01  0.50400000000E-02 0.  1.
         23    2    1    2    0    0  0.00000000000E+00 -0.71054273576E-14  0.50997765795E+03  0.51821375578E+03  0.92023285457E+02 0.  0.
    9000005    2    3    3    0    0 -0.27422480964E+02 -0.34936491453E+02  0.32125746402E+03  0.32433786121E+03  0.40173532366E+01 0.  0.
         22    1    3    3    0    0  0.27422480964E+02  0.34936491453E+02  0.18872019393E+03  0.19387589457E+03  0.00000000000E+00 0.  1.
         22    1    4    4    0    0 -0.22179626511E+02 -0.25822229924E+02  0.23945048612E+03  0.24185793081E+03  0.00000000000E+00 0. -1.
         22    1    4    4    0    0 -0.52428544524E+01 -0.91142615293E+01  0.81806977904E+02  0.82479930406E+02  0.00000000000E+00 0. -1.
<mgrwt>
<rscale>  0 0.92023285E+02</rscale>
<asrwt>0</asrwt>
<pdfrwt beam="1">  1        1 0.79091617E-01 0.92023285E+02</pdfrwt>
<pdfrwt beam="2">  1       -1 0.63354623E-03 0.92023285E+02</pdfrwt>
<totfact> 0.13632679E+05</totfact>
</mgrwt>
</event>
<event>
 7    1  0.3607059E-009  0.9130243E+02  0.7818608E-02  0.1299728E+00
         -1   -1    0    0    0  501 -0.00000000000E+00  0.00000000000E+00  0.61581116350E+02  0.61581116556E+02  0.50400000000E-02 0.  1.
          1   -1    0    0  501    0  0.00000000000E+00 -0.00000000000E+00 -0.33842082689E+02  0.33842083065E+02  0.50400000000E-02 0. -1.
         23    2    1    2    0    0  0.00000000000E+00 -0.17763568394E-14  0.27739033661E+02  0.95423199621E+02  0.91302426241E+02 0.  0.
    9000005    2    3    3    0    0  0.42102673760E+02  0.13088090860E+02  0.92662126249E+01  0.47619660242E+02  0.15421935192E+02 0.  0.
         22    1    3    3    0    0 -0.42102673760E+02 -0.13088090860E+02  0.18472821036E+02  0.47803539379E+02  0.00000000000E+00 0. -1.
         22    1    4    4    0    0  0.35438526772E+02  0.12266170513E+02  0.13296007378E+02  0.39788590463E+02  0.00000000000E+00 0.  1.
         22    1    4    4    0    0  0.66641469883E+01  0.82192034706E+00 -0.40297947533E+01  0.78310697796E+01  0.00000000000E+00 0.  1.
<mgrwt>
<rscale>  0 0.91302426E+02</rscale>
<asrwt>0</asrwt>
<pdfrwt beam="2">  1        1 0.52064743E-02 0.91302426E+02</pdfrwt>
<pdfrwt beam="1">  1       -1 0.94740179E-02 0.91302426E+02</pdfrwt>
<totfact> 0.88012715E+04</totfact>
</mgrwt>
</event>
<event>
 6    1  0.3607059E-009  0.1516637E+03  0.7818608E-02  0.1198443E+00
         -1   -1    0    0    0  501 -0.00000000000E+00  0.00000000000E+00  0.44781194643E+01  0.44781223005E+01  0.50400000000E-02 0. -1.
          1   -1    0    0  501    0  0.00000000000E+00 -0.00000000000E+00 -0.12841260869E+04  0.12841260869E+04  0.50400000000E-02 0.  1.
    9000005    2    1    2    0    0  0.33687514608E+02 -0.12180973798E+02 -0.12073349433E+04  0.12079047778E+04  0.96468786788E+01 0.  0.
         22    1    1    2    0    0 -0.33687514608E+02  0.12180973798E+02 -0.72313024154E+02  0.80699431382E+02  0.00000000000E+00 0. -1.
         22    1    3    3    0    0  0.29930004248E+02 -0.10884314673E+02 -0.93799469156E+03  0.93853519638E+03  0.00000000000E+00 0. -1.
         22    1    3    3    0    0  0.37575103601E+01 -0.12966591244E+01 -0.26934025172E+03  0.26936958145E+03  0.00000000000E+00 0. -1.
<mgrwt>
<rscale>  0 0.15166373E+03</rscale>
<asrwt>0</asrwt>
<pdfrwt beam="2">  1        1 0.19755757E+00 0.15166373E+03</pdfrwt>
<pdfrwt beam="1">  1       -1 0.68894270E-03 0.15166373E+03</pdfrwt>
<totfact> 0.30996725E+04</totfact>
</mgrwt>
</event>
<event>
 7    1  0.3607059E-009  0.9282275E+02  0.7818608E-02  0.1296156E+00
         -1   -1    0    0    0  501 -0.00000000000E+00  0.00000000000E+00  0.43332808961E+02  0.43332809254E+02  0.50400000000E-02 0.  1.
          1   -1    0    0  501    0  0.00000000000E+00 -0.00000000000E+00 -0.49708655308E+02  0.49708655564E+02  0.50400000000E-02 0. -1.
         23    2    1    2    0    0  0.00000000000E+00  0.00000000000E+00 -0.63758463480E+01  0.93041464818E+02  0.92822749145E+02 0.  0.
    9000005    2    3    3    0    0  0.39783982324E+02 -0.19335951023E+02  0.10426329924E+02  0.45723842530E+02  0.50316168929E+01 0.  0.
         22    1    3    3    0    0 -0.39783982324E+02  0.19335951023E+02 -0.16802176272E+02  0.47317622288E+02  0.00000000000E+00 0. -1.
         22    1    4    4    0    0  0.12237924454E+02 -0.60609227298E+01  0.56320270054E+01  0.14772315576E+02  0.00000000000E+00 0.  1.
         22    1    4    4    0    0  0.27546057870E+02 -0.13275028293E+02  0.47943029182E+01  0.30951526954E+02  0.00000000000E+00 0.  1.
<mgrwt>
<rscale>  0 0.92822749E+02</rscale>
<asrwt>0</asrwt>
<pdfrwt beam="2">  1        1 0.76474855E-02 0.92822749E+02</pdfrwt>
<pdfrwt beam="1">  1       -1 0.66665860E-02 0.92822749E+02</pdfrwt>
<totfact> 0.89100184E+04</totfact>
</mgrwt>
</event>
<event>
 7    1  0.3788633E-009  0.9369552E+02  0.7818608E-02  0.1294141E+00
         -1   -1    0    0    0  501 -0.00000000000E+00  0.00000000000E+00  0.31973571961E+01  0.31973611684E+01  0.50400000000E-02 0.  1.
          1   -1    0    0  501    0  0.00000000000E+00 -0.00000000000E+00 -0.68641419469E+03  0.68641419471E+03  0.50400000000E-02 0. -1.
         23    2    1    2    0    0  0.00000000000E+00  0.00000000000E+00 -0.68321683749E+03  0.68961155588E+03  0.93695522645E+02 0.  0.
    9000005    2    3    3    0    0  0.40362816824E+01 -0.96854093523E+01 -0.67729141166E+03  0.67756126976E+03  0.15984969563E+02 0.  0.
         22    1    3    3    0    0 -0.40362816824E+01  0.96854093523E+01 -0.59254258386E+01  0.12050286117E+02  0.00000000000E+00 0.  1.
         22    1    4    4    0    0 -0.37031021607E+01 -0.92350702493E+01 -0.24745823819E+03  0.24765819013E+03  0.00000000000E+00 0.  1.
         22    1    4    4    0    0  0.77393838431E+01 -0.45033910306E+00 -0.42983317347E+03  0.42990307963E+03  0.00000000000E+00 0.  1.
<mgrwt>
<rscale>  0 0.93695523E+02</rscale>
<asrwt>0</asrwt>
<pdfrwt beam="2">  1        1 0.10560207E+00 0.93695523E+02</pdfrwt>
<pdfrwt beam="1">  1       -1 0.49190196E-03 0.93695523E+02</pdfrwt>
<totfact> 0.13228487E+05</totfact>
</mgrwt>
</event>
<event>
 7    1  0.3607059E-009  0.9184844E+02  0.7818608E-02  0.1298436E+00
         -1   -1    0    0    0  501 -0.00000000000E+00  0.00000000000E+00  0.62456122637E+02  0.62456122840E+02  0.50400000000E-02 0.  1.
          1   -1    0    0  501    0  0.00000000000E+00 -0.00000000000E+00 -0.33768251777E+02  0.33768252153E+02  0.50400000000E-02 0. -1.
         23    2    1    2    0    0  0.00000000000E+00  0.00000000000E+00  0.28687870860E+02  0.96224374994E+02  0.91848442602E+02 0.  0.
    9000005    2    3    3    0    0  0.12829157127E+02 -0.27878592292E+01  0.60427009435E+02  0.61877142948E+02  0.22356025023E+01 0.  0.
         22    1    3    3    0    0 -0.12829157127E+02  0.27878592292E+01 -0.31739138575E+02  0.34347232045E+02  0.00000000000E+00 0. -1.
         22    1    4    4    0    0  0.15359903826E+01  0.34582522406E+00  0.60532828010E+01  0.62546857803E+01  0.00000000000E+00 0. -1.
         22    1    4    4    0    0  0.11293166744E+02 -0.31336844533E+01  0.54373726634E+02  0.55622457168E+02  0.00000000000E+00 0. -1.
<mgrwt>
<rscale>  0 0.91848443E+02</rscale>
<asrwt>0</asrwt>
<pdfrwt beam="2">  1        1 0.51951158E-02 0.91848443E+02</pdfrwt>
<pdfrwt beam="1">  1       -1 0.96086341E-02 0.91848443E+02</pdfrwt>
<totfact> 0.86497013E+04</totfact>
</mgrwt>
</event>
<event>
 7    1  0.3607059E-009  0.9500426E+02  0.7818608E-02  0.1291166E+00
          1   -1    0    0  501    0  0.00000000000E+00  0.00000000000E+00  0.36972123223E+02  0.36972123566E+02  0.50400000000E-02 0. -1.
         -1   -1    0    0    0  501 -0.00000000000E+00 -0.00000000000E+00 -0.61031185644E+02  0.61031185852E+02  0.50400000000E-02 0.  1.
         23    2    1    2    0    0  0.00000000000E+00  0.00000000000E+00 -0.24059062421E+02  0.98003309419E+02  0.95004263970E+02 0.  0.
    9000005    2    3    3    0    0  0.44945186232E+02  0.11260789805E+02 -0.71344308898E+01  0.48674633124E+02  0.13093687531E+02 0.  0.
         22    1    3    3    0    0 -0.44945186232E+02 -0.11260789805E+02 -0.16924631531E+02  0.49328676294E+02  0.00000000000E+00 0. -1.
         22    1    4    4    0    0 -0.18779939157E-01  0.20255331702E+00  0.15501472607E+01  0.15634375786E+01  0.00000000000E+00 0. -1.
         22    1    4    4    0    0  0.44963966171E+02  0.11058236488E+02 -0.86845781505E+01  0.47111195546E+02  0.00000000000E+00 0. -1.
<mgrwt>
<rscale>  0 0.95004264E+02</rscale>
<asrwt>0</asrwt>
<pdfrwt beam="1">  1        1 0.56880190E-02 0.95004264E+02</pdfrwt>
<pdfrwt beam="2">  1       -1 0.93894132E-02 0.95004264E+02</pdfrwt>
<totfact> 0.79674771E+04</totfact>
</mgrwt>
</event>
<event>
 7    1  0.3607059E-009  0.9358572E+02  0.7818608E-02  0.1294394E+00
         -1   -1    0    0    0  501 -0.00000000000E+00  0.00000000000E+00  0.62683286063E+01  0.62683306325E+01  0.50400000000E-02 0.  1.
          1   -1    0    0  501    0  0.00000000000E+00 -0.00000000000E+00 -0.34930704905E+03  0.34930704909E+03  0.50400000000E-02 0. -1.
         23    2    1    2    0    0  0.35527136788E-14  0.00000000000E+00 -0.34303872045E+03  0.35557537972E+03  0.93585719737E+02 0.  0.
    9000005    2    3    3    0    0 -0.27432510389E+02  0.33696717710E+02 -0.23468101291E+03  0.23883034046E+03  0.87602677512E+01 0.  0.
         22    1    3    3    0    0  0.27432510389E+02 -0.33696717710E+02 -0.10835770753E+03  0.11674503926E+03  0.00000000000E+00 0.  1.
         22    1    4    4    0    0 -0.13711838624E+02  0.23343515662E+02 -0.13720299116E+03  0.13984847166E+03  0.00000000000E+00 0. -1.
         22    1    4    4    0    0 -0.13720671765E+02  0.10353202047E+02 -0.97478021750E+02  0.98981868797E+02  0.00000000000E+00 0. -1.
<mgrwt>
<rscale>  0 0.93585720E+02</rscale>
<asrwt>0</asrwt>
<pdfrwt beam="2">  1        1 0.53739531E-01 0.93585720E+02</pdfrwt>
<pdfrwt beam="1">  1       -1 0.96435868E-03 0.93585720E+02</pdfrwt>
<totfact> 0.12294096E+05</totfact>
</mgrwt>
</event>
<event>
 7    1  0.3607059E-009  0.9430003E+02  0.7818608E-02  0.1292760E+00
         -1   -1    0    0    0  501 -0.00000000000E+00  0.00000000000E+00  0.51627224731E+02  0.51627224977E+02  0.50400000000E-02 0.  1.
          1   -1    0    0  501    0  0.00000000000E+00 -0.00000000000E+00 -0.43061074010E+02  0.43061074305E+02  0.50400000000E-02 0. -1.
         23    2    1    2    0    0  0.00000000000E+00  0.00000000000E+00  0.85661507212E+01  0.94688299281E+02  0.94300026949E+02 0.  0.
    9000005    2    3    3    0    0 -0.82772001563E+01 -0.44991583046E+02 -0.66038748916E+01  0.46491989625E+02  0.50139154674E+01 0.  0.
         22    1    3    3    0    0  0.82772001563E+01  0.44991583046E+02  0.15170025613E+02  0.48196309656E+02  0.00000000000E+00 0.  1.
         22    1    4    4    0    0 -0.41378771487E+01 -0.34232390758E+02 -0.53896882511E+01  0.34900248477E+02  0.00000000000E+00 0. -1.
         22    1    4    4    0    0 -0.41393230076E+01 -0.10759192288E+02 -0.12141866405E+01  0.11591741148E+02  0.00000000000E+00 0. -1.
<mgrwt>
<rscale>  0 0.94300027E+02</rscale>
<asrwt>0</asrwt>
<pdfrwt beam="2">  1        1 0.66247807E-02 0.94300027E+02</pdfrwt>
<pdfrwt beam="1">  1       -1 0.79426500E-02 0.94300027E+02</pdfrwt>
<totfact> 0.83360217E+04</totfact>
</mgrwt>
</event>
<event>
 7    1  0.3607059E-009  0.8919962E+02  0.7818608E-02  0.1304802E+00
          1   -1    0    0  501    0  0.00000000000E+00  0.00000000000E+00  0.24415769350E+02  0.24415769871E+02  0.50400000000E-02 0. -1.
         -1   -1    0    0    0  501 -0.00000000000E+00 -0.00000000000E+00 -0.81469600188E+02  0.81469600344E+02  0.50400000000E-02 0.  1.
         23    2    1    2    0    0  0.00000000000E+00  0.00000000000E+00 -0.57053830838E+02  0.10588537021E+03  0.89199618902E+02 0.  0.
    9000005    2    3    3    0    0 -0.34379416154E+02  0.22794368281E+02 -0.48439524065E+02  0.63745914101E+02  0.39530485081E+01 0.  0.
         22    1    3    3    0    0  0.34379416154E+02 -0.22794368281E+02 -0.86143067732E+01  0.42139456114E+02  0.00000000000E+00 0. -1.
         22    1    4    4    0    0 -0.31952497377E+02  0.20534893596E+02 -0.42975811060E+02  0.57354723257E+02  0.00000000000E+00 0.  1.
         22    1    4    4    0    0 -0.24269187764E+01  0.22594746856E+01 -0.54637130045E+01  0.63911908435E+01  0.00000000000E+00 0.  1.
<mgrwt>
<rscale>  0 0.89199619E+02</rscale>
<asrwt>0</asrwt>
<pdfrwt beam="1">  1        1 0.37562723E-02 0.89199619E+02</pdfrwt>
<pdfrwt beam="2">  1       -1 0.12533785E-01 0.89199619E+02</pdfrwt>
<totfact> 0.89258086E+04</totfact>
</mgrwt>
</event>
<event>
 7    1  0.3607059E-009  0.8578025E+02  0.7818608E-02  0.1313405E+00
          1   -1    0    0  501    0  0.00000000000E+00  0.00000000000E+00  0.27181913872E+03  0.27181913877E+03  0.50400000000E-02 0. -1.
         -1   -1    0    0    0  501 -0.00000000000E+00 -0.00000000000E+00 -0.67675978344E+01  0.67675997111E+01  0.50400000000E-02 0.  1.
         23    2    1    2    0    0  0.00000000000E+00  0.35527136788E-14  0.26505154089E+03  0.27858673848E+03  0.85780251398E+02 0.  0.
    9000005    2    3    3    0    0 -0.21827516186E+02 -0.29165949865E+02  0.20237027735E+03  0.20608822888E+03  0.13839647290E+02 0.  0.
         22    1    3    3    0    0  0.21827516186E+02  0.29165949865E+02  0.62681263540E+02  0.72498509594E+02  0.00000000000E+00 0.  1.
         22    1    4    4    0    0 -0.87701720835E+01 -0.20274062010E+02  0.93267489211E+02  0.95847681519E+02  0.00000000000E+00 0. -1.
         22    1    4    4    0    0 -0.13057344103E+02 -0.88918878554E+01  0.10910278814E+03  0.11024054737E+03  0.00000000000E+00 0. -1.
<mgrwt>
<rscale>  0 0.85780251E+02</rscale>
<asrwt>0</asrwt>
<pdfrwt beam="1">  1        1 0.41818330E-01 0.85780251E+02</pdfrwt>
<pdfrwt beam="2">  1       -1 0.10411690E-02 0.85780251E+02</pdfrwt>
<totfact> 0.14784137E+05</totfact>
</mgrwt>
</event>
<event>
 7    1  0.3607059E-009  0.9239703E+02  0.7818608E-02  0.1297149E+00
         -1   -1    0    0    0  501 -0.00000000000E+00  0.00000000000E+00  0.42129076778E+01  0.42129106926E+01  0.50400000000E-02 0.  1.
          1   -1    0    0  501    0  0.00000000000E+00 -0.00000000000E+00 -0.50661015142E+03  0.50661015144E+03  0.50400000000E-02 0. -1.
         23    2    1    2    0    0  0.88817841970E-15  0.35527136788E-14 -0.50239724374E+03  0.51082306214E+03  0.92397025341E+02 0.  0.
    9000005    2    3    3    0    0  0.57015917607E+01  0.16679700969E+02 -0.48664497994E+03  0.48718296087E+03  0.14600694745E+02 0.  0.
         22    1    3    3    0    0 -0.57015917607E+01 -0.16679700969E+02 -0.15752263796E+02  0.23640101263E+02  0.00000000000E+00 0.  1.
         22    1    4    4    0    0  0.12336274984E+01  0.63738483954E+01 -0.35507924727E+03  0.35513859213E+03  0.00000000000E+00 0. -1.
         22    1    4    4    0    0  0.44679642623E+01  0.10305852574E+02 -0.13156573267E+03  0.13204436874E+03  0.00000000000E+00 0. -1.
<mgrwt>
<rscale>  0 0.92397025E+02</rscale>
<asrwt>0</asrwt>
<pdfrwt beam="2">  1        1 0.77939975E-01 0.92397025E+02</pdfrwt>
<pdfrwt beam="1">  1       -1 0.64814028E-03 0.92397025E+02</pdfrwt>
<totfact> 0.13464566E+05</totfact>
</mgrwt>
</event>
<event>
 7    1  0.3607059E-009  0.9247820E+02  0.7818608E-02  0.1296959E+00
          1   -1    0    0  501    0  0.00000000000E+00  0.00000000000E+00  0.94679370355E+02  0.94679370489E+02  0.50400000000E-02 0. -1.
         -1   -1    0    0    0  501 -0.00000000000E+00 -0.00000000000E+00 -0.22582051770E+02  0.22582052333E+02  0.50400000000E-02 0.  1.
         23    2    1    2    0    0 -0.71054273576E-14  0.00000000000E+00  0.72097318584E+02  0.11726142282E+03  0.92478202487E+02 0.  0.
    9000005    2    3    3    0    0 -0.37329099618E+02 -0.22995368932E+02  0.53874699356E+02  0.69781821706E+02  0.66910940278E+01 0.  0.
         22    1    3    3    0    0  0.37329099618E+02  0.22995368932E+02  0.18222619228E+02  0.47479601116E+02  0.00000000000E+00 0.  1.
         22    1    4    4    0    0 -0.28440405958E+02 -0.15607587445E+02  0.43388473310E+02  0.54175761121E+02  0.00000000000E+00 0.  1.
         22    1    4    4    0    0 -0.88886936605E+01 -0.73877814867E+01  0.10486226046E+02  0.15606060585E+02  0.00000000000E+00 0.  1.
<mgrwt>
<rscale>  0 0.92478202E+02</rscale>
<asrwt>0</asrwt>
<pdfrwt beam="1">  1        1 0.14566057E-01 0.92478202E+02</pdfrwt>
<pdfrwt beam="2">  1       -1 0.34741618E-02 0.92478202E+02</pdfrwt>
<totfact> 0.99576577E+04</totfact>
</mgrwt>
</event>
<event>
 7    1  0.3607059E-009  0.8975587E+02  0.7818608E-02  0.1303444E+00
         -1   -1    0    0    0  501 -0.00000000000E+00  0.00000000000E+00  0.50659428182E+02  0.50659428433E+02  0.50400000000E-02 0.  1.
          1   -1    0    0  501    0  0.00000000000E+00 -0.00000000000E+00 -0.39756252115E+02  0.39756252435E+02  0.50400000000E-02 0. -1.
         23    2    1    2    0    0  0.00000000000E+00  0.00000000000E+00  0.10903176067E+02  0.90415680867E+02  0.89755869437E+02 0.  0.
    9000005    2    3    3    0    0  0.11460664792E+02  0.15718344145E+02  0.45238189611E+02  0.50952960039E+02  0.13088053990E+02 0.  0.
         22    1    3    3    0    0 -0.11460664792E+02 -0.15718344145E+02 -0.34335013544E+02  0.39462720829E+02  0.00000000000E+00 0. -1.
         22    1    4    4    0    0  0.14208255589E+02  0.10952997275E+02  0.35072709065E+02  0.39394639196E+02  0.00000000000E+00 0.  1.
         22    1    4    4    0    0 -0.27475907966E+01  0.47653468702E+01  0.10165480546E+02  0.11558320843E+02  0.00000000000E+00 0.  1.
<mgrwt>
<rscale>  0 0.89755869E+02</rscale>
<asrwt>0</asrwt>
<pdfrwt beam="2">  1        1 0.61163466E-02 0.89755869E+02</pdfrwt>
<pdfrwt beam="1">  1       -1 0.77937582E-02 0.89755869E+02</pdfrwt>
<totfact> 0.94681300E+04</totfact>
</mgrwt>
</event>
<event>
 7    1  0.3607059E-009  0.8230131E+02  0.7818608E-02  0.1322645E+00
         -1   -1    0    0    0  501 -0.00000000000E+00  0.00000000000E+00  0.21238018717E+02  0.21238019315E+02  0.50400000000E-02 0.  1.
          1   -1    0    0  501    0  0.00000000000E+00 -0.00000000000E+00 -0.79733257974E+02  0.79733258133E+02  0.50400000000E-02 0. -1.
         23    2    1    2    0    0  0.44408920985E-15  0.00000000000E+00 -0.58495239257E+02  0.10097127745E+03  0.82301311374E+02 0.  0.
    9000005    2    3    3    0    0 -0.39882626030E+01 -0.34425851471E+02 -0.38094995749E+01  0.36228898649E+02  0.98476048976E+01 0.  0.
         22    1    3    3    0    0  0.39882626030E+01  0.34425851471E+02 -0.54685739682E+02  0.64742378800E+02  0.00000000000E+00 0. -1.
         22    1    4    4    0    0 -0.30434687005E+01 -0.20872368179E+02  0.25152095142E+01  0.21242521838E+02  0.00000000000E+00 0. -1.
         22    1    4    4    0    0 -0.94479390250E+00 -0.13553483292E+02 -0.63247090892E+01  0.14986376811E+02  0.00000000000E+00 0. -1.
<mgrwt>
<rscale>  0 0.82301311E+02</rscale>
<asrwt>0</asrwt>
<pdfrwt beam="2">  1        1 0.12266655E-01 0.82301311E+02</pdfrwt>
<pdfrwt beam="1">  1       -1 0.32673876E-02 0.82301311E+02</pdfrwt>
<totfact> 0.13309393E+05</totfact>
</mgrwt>
</event>
<event>
 6    1  0.3607059E-009  0.1530192E+03  0.7818608E-02  0.1196811E+00
          1   -1    0    0  501    0  0.00000000000E+00  0.00000000000E+00  0.28756360603E+02  0.28756361045E+02  0.50400000000E-02 0.  1.
         -1   -1    0    0    0  501 -0.00000000000E+00 -0.00000000000E+00 -0.20356261762E+03  0.20356261768E+03  0.50400000000E-02 0. -1.
    9000005    2    1    2    0    0  0.59712687183E+01 -0.47201980836E+02  0.31219589380E+01  0.48139356950E+02  0.66308381836E+01 0.  0.
         22    1    1    2    0    0 -0.59712687183E+01  0.47201980836E+02 -0.17792821596E+03  0.18417962178E+03  0.00000000000E+00 0. -1.
         22    1    3    3    0    0  0.48950960065E+01 -0.44571759761E+02  0.14948820334E+01  0.44864667673E+02  0.00000000000E+00 0. -1.
         22    1    3    3    0    0  0.10761727118E+01 -0.26302210749E+01  0.16270769047E+01  0.32746892772E+01  0.00000000000E+00 0. -1.
<mgrwt>
<rscale>  0 0.15301922E+03</rscale>
<asrwt>0</asrwt>
<pdfrwt beam="1">  1        1 0.44240556E-02 0.15301922E+03</pdfrwt>
<pdfrwt beam="2">  1       -1 0.31317325E-01 0.15301922E+03</pdfrwt>
<totfact> 0.17631628E+04</totfact>
</mgrwt>
</event>
<event>
 7    1  0.3607059E-009  0.9402313E+02  0.7818608E-02  0.1293392E+00
         -1   -1    0    0    0  501 -0.00000000000E+00  0.00000000000E+00  0.37696017015E+02  0.37696017351E+02  0.50400000000E-02 0.  1.
          1   -1    0    0  501    0  0.00000000000E+00 -0.00000000000E+00 -0.58629193768E+02  0.58629193985E+02  0.50400000000E-02 0. -1.
         23    2    1    2    0    0 -0.17763568394E-14  0.00000000000E+00 -0.20933176754E+02  0.96325211336E+02  0.94023127208E+02 0.  0.
    9000005    2    3    3    0    0  0.96816272475E+01 -0.34638441782E+02 -0.40197038207E+02  0.55525065340E+02  0.13178597995E+02 0.  0.
         22    1    3    3    0    0 -0.96816272475E+01  0.34638441782E+02  0.19263861453E+02  0.40800145997E+02  0.00000000000E+00 0.  1.
         22    1    4    4    0    0 -0.27494874035E+01 -0.70524514916E+01 -0.48216559938E+01  0.89746932842E+01  0.00000000000E+00 0. -1.
         22    1    4    4    0    0  0.12431114651E+02 -0.27585990291E+02 -0.35375382213E+02  0.46550372055E+02  0.00000000000E+00 0. -1.
<mgrwt>
<rscale>  0 0.94023127E+02</rscale>
<asrwt>0</asrwt>
<pdfrwt beam="2">  1        1 0.90198760E-02 0.94023127E+02</pdfrwt>
<pdfrwt beam="1">  1       -1 0.57993873E-02 0.94023127E+02</pdfrwt>
<totfact> 0.88154728E+04</totfact>
</mgrwt>
</event>
<event>
 7    1  0.3607059E-009  0.8497996E+02  0.7818608E-02  0.1315485E+00
         -1   -1    0    0    0  501 -0.00000000000E+00  0.00000000000E+00  0.17467710781E+02  0.17467711508E+02  0.50400000000E-02 0.  1.
          1   -1    0    0  501    0  0.00000000000E+00 -0.00000000000E+00 -0.10335633015E+03  0.10335633028E+03  0.50400000000E-02 0. -1.
         23    2    1    2    0    0  0.00000000000E+00 -0.44408920985E-15 -0.85888619373E+02  0.12082404179E+03  0.84979963141E+02 0.  0.
    9000005    2    3    3    0    0 -0.41716452590E+02 -0.28944141530E+01 -0.35705539644E+02  0.55501905101E+02  0.75455853651E+01 0.  0.
         22    1    3    3    0    0  0.41716452590E+02  0.28944141530E+01 -0.50183079728E+02  0.65322136684E+02  0.00000000000E+00 0. -1.
         22    1    4    4    0    0 -0.43451826103E+01  0.99096435076E+00 -0.66496817454E+01  0.80050540021E+01  0.00000000000E+00 0.  1.
         22    1    4    4    0    0 -0.37371269980E+02 -0.38853785038E+01 -0.29055857899E+02  0.47496851098E+02  0.00000000000E+00 0.  1.
<mgrwt>
<rscale>  0 0.84979963E+02</rscale>
<asrwt>0</asrwt>
<pdfrwt beam="2">  1        1 0.15900974E-01 0.84979963E+02</pdfrwt>
<pdfrwt beam="1">  1       -1 0.26873402E-02 0.84979963E+02</pdfrwt>
<totfact> 0.12709223E+05</totfact>
</mgrwt>
</event>
<event>
 7    1  0.3607059E-009  0.8998332E+02  0.7818608E-02  0.1302892E+00
          1   -1    0    0  501    0  0.00000000000E+00  0.00000000000E+00  0.37981536644E+03  0.37981536647E+03  0.50400000000E-02 0. -1.
         -1   -1    0    0    0  501 -0.00000000000E+00 -0.00000000000E+00 -0.53295602249E+01  0.53295626080E+01  0.50400000000E-02 0.  1.
         23    2    1    2    0    0 -0.35527136788E-14  0.17763568394E-14  0.37448580621E+03  0.38514492908E+03  0.89983317012E+02 0.  0.
    9000005    2    3    3    0    0  0.20319957938E+02 -0.82032181748E+01  0.35501698867E+03  0.35583233221E+03  0.99695996976E+01 0.  0.
         22    1    3    3    0    0 -0.20319957938E+02  0.82032181748E+01  0.19468817539E+02  0.29312596872E+02  0.00000000000E+00 0.  1.
         22    1    4    4    0    0  0.25111770506E+00 -0.14893953727E+01  0.64889156291E+01  0.66623858129E+01  0.00000000000E+00 0. -1.
         22    1    4    4    0    0  0.20068840233E+02 -0.67138228021E+01  0.34852807305E+03  0.34916994640E+03  0.00000000000E+00 0. -1.
<mgrwt>
<rscale>  0 0.89983317E+02</rscale>
<asrwt>0</asrwt>
<pdfrwt beam="1">  1        1 0.58433129E-01 0.89983317E+02</pdfrwt>
<pdfrwt beam="2">  1       -1 0.81993260E-03 0.89983317E+02</pdfrwt>
<totfact> 0.13848609E+05</totfact>
</mgrwt>
</event>
<event>
 7    1  0.3607059E-009  0.9092876E+02  0.7818608E-02  0.1300618E+00
          1   -1    0    0  501    0  0.00000000000E+00  0.00000000000E+00  0.22290474249E+03  0.22290474255E+03  0.50400000000E-02 0. -1.
         -1   -1    0    0    0  501 -0.00000000000E+00 -0.00000000000E+00 -0.92730624048E+01  0.92730637745E+01  0.50400000000E-02 0.  1.
         23    2    1    2    0    0  0.00000000000E+00  0.00000000000E+00  0.21363168009E+03  0.23217780632E+03  0.90928757895E+02 0.  0.
    9000005    2    3    3    0    0  0.27231848569E+02  0.30797942360E+01  0.19825904712E+03  0.20075525784E+03  0.15651360150E+02 0.  0.
         22    1    3    3    0    0 -0.27231848569E+02 -0.30797942360E+01  0.15372632964E+02  0.31422548485E+02  0.00000000000E+00 0.  1.
         22    1    4    4    0    0  0.26656698629E+02 -0.94043899363E+00  0.15238683602E+03  0.15470362569E+03  0.00000000000E+00 0. -1.
         22    1    4    4    0    0  0.57514993989E+00  0.40202332296E+01  0.45872211101E+02  0.46051632153E+02  0.00000000000E+00 0. -1.
<mgrwt>
<rscale>  0 0.90928758E+02</rscale>
<asrwt>0</asrwt>
<pdfrwt beam="1">  1        1 0.34293036E-01 0.90928758E+02</pdfrwt>
<pdfrwt beam="2">  1       -1 0.14266252E-02 0.90928758E+02</pdfrwt>
<totfact> 0.12181775E+05</totfact>
</mgrwt>
</event>
<event>
 7    1  0.3607059E-009  0.9170679E+02  0.7818608E-02  0.1298770E+00
         -1   -1    0    0    0  501 -0.00000000000E+00  0.00000000000E+00  0.10396464509E+02  0.10396465731E+02  0.50400000000E-02 0.  1.
          1   -1    0    0  501    0  0.00000000000E+00 -0.00000000000E+00 -0.20223544294E+03  0.20223544300E+03  0.50400000000E-02 0. -1.
         23    2    1    2    0    0  0.00000000000E+00  0.00000000000E+00 -0.19183897843E+03  0.21263190873E+03  0.91706788005E+02 0.  0.
    9000005    2    3    3    0    0 -0.39513953414E+02 -0.21455571006E+02 -0.97295555351E+02  0.10794115991E+03  0.12773991935E+02 0.  0.
         22    1    3    3    0    0  0.39513953414E+02  0.21455571006E+02 -0.94543423079E+02  0.10469074882E+03  0.00000000000E+00 0. -1.
         22    1    4    4    0    0 -0.36220860277E+02 -0.19383312376E+02 -0.76974821935E+02  0.87251284975E+02  0.00000000000E+00 0.  1.
         22    1    4    4    0    0 -0.32930931370E+01 -0.20722586303E+01 -0.20320733416E+02  0.20689874935E+02  0.00000000000E+00 0.  1.
<mgrwt>
<rscale>  0 0.91706788E+02</rscale>
<asrwt>0</asrwt>
<pdfrwt beam="2">  1        1 0.31113142E-01 0.91706788E+02</pdfrwt>
<pdfrwt beam="1">  1       -1 0.15994563E-02 0.91706788E+02</pdfrwt>
<totfact> 0.11682998E+05</totfact>
</mgrwt>
</event>
<event>
 7    1  0.3607059E-009  0.8835446E+02  0.7818608E-02  0.1306886E+00
          1   -1    0    0  501    0  0.00000000000E+00  0.00000000000E+00  0.97367009852E+03  0.97367009854E+03  0.50400000000E-02 0. -1.
         -1   -1    0    0    0  501 -0.00000000000E+00 -0.00000000000E+00 -0.20044001726E+01  0.20044065091E+01  0.50400000000E-02 0.  1.
         23    2    1    2    0    0  0.00000000000E+00  0.88817841970E-15  0.97166569835E+03  0.97567450504E+03  0.88354459108E+02 0.  0.
    9000005    2    3    3    0    0  0.29507069569E+02 -0.53940327912E+01  0.84053689177E+03  0.84115860762E+03  0.12073690652E+02 0.  0.
         22    1    3    3    0    0 -0.29507069569E+02  0.53940327912E+01  0.13112880658E+03  0.13451589742E+03  0.00000000000E+00 0.  1.
         22    1    4    4    0    0  0.89622099703E+00  0.94665898800E+00  0.79521905434E+01  0.80583316979E+01  0.00000000000E+00 0.  1.
         22    1    4    4    0    0  0.28610848572E+02 -0.63406917792E+01  0.83258470123E+03  0.83310027593E+03  0.00000000000E+00 0.  1.
<mgrwt>
<rscale>  0 0.88354459E+02</rscale>
<asrwt>0</asrwt>
<pdfrwt beam="1">  1        1 0.14979513E+00 0.88354459E+02</pdfrwt>
<pdfrwt beam="2">  1       -1 0.30837031E-03 0.88354459E+02</pdfrwt>
<totfact> 0.14878825E+05</totfact>
</mgrwt>
</event>
<event>
 7    1  0.3607059E-009  0.8941589E+02  0.7818608E-02  0.1304272E+00
          1   -1    0    0  501    0  0.00000000000E+00  0.00000000000E+00  0.74703927794E+02  0.74703927964E+02  0.50400000000E-02 0. -1.
         -1   -1    0    0    0  501 -0.00000000000E+00 -0.00000000000E+00 -0.26756293044E+02  0.26756293519E+02  0.50400000000E-02 0.  1.
         23    2    1    2    0    0  0.00000000000E+00  0.00000000000E+00  0.47947634750E+02  0.10146022148E+03  0.89415887096E+02 0.  0.
    9000005    2    3    3    0    0  0.30233583328E+02 -0.25550309687E+02  0.46071394333E+02  0.61831845739E+02  0.11563558528E+02 0.  0.
         22    1    3    3    0    0 -0.30233583328E+02  0.25550309687E+02  0.18762404173E+01  0.39628375743E+02  0.00000000000E+00 0. -1.
         22    1    4    4    0    0  0.27951612655E+02 -0.21365595616E+02  0.34313951757E+02  0.49144975442E+02  0.00000000000E+00 0.  1.
         22    1    4    4    0    0  0.22819706726E+01 -0.41847140710E+01  0.11757442576E+02  0.12686870297E+02  0.00000000000E+00 0.  1.
<mgrwt>
<rscale>  0 0.89415887E+02</rscale>
<asrwt>0</asrwt>
<pdfrwt beam="1">  1        1 0.11492912E-01 0.89415887E+02</pdfrwt>
<pdfrwt beam="2">  1       -1 0.41163529E-02 0.89415887E+02</pdfrwt>
<totfact> 0.10514932E+05</totfact>
</mgrwt>
</event>
<event>
 7    1  0.3607059E-009  0.9390523E+02  0.7818608E-02  0.1293661E+00
          1   -1    0    0  501    0  0.00000000000E+00  0.00000000000E+00  0.46194790735E+02  0.46194791009E+02  0.50400000000E-02 0. -1.
         -1   -1    0    0    0  501 -0.00000000000E+00 -0.00000000000E+00 -0.47722868067E+02  0.47722868333E+02  0.50400000000E-02 0.  1.
         23    2    1    2    0    0  0.88817841970E-15  0.00000000000E+00 -0.15280773321E+01  0.93917659342E+02  0.93905227309E+02 0.  0.
    9000005    2    3    3    0    0 -0.61442282552E+01 -0.32926554546E+02 -0.32805857700E+02  0.48089621201E+02  0.10699431419E+02 0.  0.
         22    1    3    3    0    0  0.61442282552E+01  0.32926554546E+02  0.31277780368E+02  0.45828038141E+02  0.00000000000E+00 0. -1.
         22    1    4    4    0    0  0.12364484128E+01 -0.11105141607E+02 -0.16252726736E+02  0.19723186891E+02  0.00000000000E+00 0. -1.
         22    1    4    4    0    0 -0.73806766680E+01 -0.21821412940E+02 -0.16553130964E+02  0.28366434310E+02  0.00000000000E+00 0. -1.
<mgrwt>
<rscale>  0 0.93905227E+02</rscale>
<asrwt>0</asrwt>
<pdfrwt beam="1">  1        1 0.71068909E-02 0.93905227E+02</pdfrwt>
<pdfrwt beam="2">  1       -1 0.73419797E-02 0.93905227E+02</pdfrwt>
<totfact> 0.85277195E+04</totfact>
</mgrwt>
</event>
<event>
 7    1  0.3607059E-009  0.9048718E+02  0.7818608E-02  0.1301676E+00
          1   -1    0    0  501    0  0.00000000000E+00  0.00000000000E+00  0.15784146976E+03  0.15784146984E+03  0.50400000000E-02 0. -1.
         -1   -1    0    0    0  501 -0.00000000000E+00 -0.00000000000E+00 -0.12968597726E+02  0.12968598705E+02  0.50400000000E-02 0.  1.
         23    2    1    2    0    0  0.00000000000E+00 -0.35527136788E-14  0.14487287204E+03  0.17081006855E+03  0.90487183983E+02 0.  0.
    9000005    2    3    3    0    0 -0.10341624376E+02 -0.25164975194E+02  0.61209752281E+01  0.29415888897E+02  0.93596479952E+01 0.  0.
         22    1    3    3    0    0  0.10341624376E+02  0.25164975194E+02  0.13875189681E+03  0.14139417965E+03  0.00000000000E+00 0. -1.
         22    1    4    4    0    0 -0.52332724899E+01 -0.22312837363E+02  0.50478198383E+01  0.23467644476E+02  0.00000000000E+00 0.  1.
         22    1    4    4    0    0 -0.51083518857E+01 -0.28521378311E+01  0.10731553898E+01  0.59482444205E+01  0.00000000000E+00 0.  1.
<mgrwt>
<rscale>  0 0.90487184E+02</rscale>
<asrwt>0</asrwt>
<pdfrwt beam="1">  1        1 0.24283304E-01 0.90487184E+02</pdfrwt>
<pdfrwt beam="2">  1       -1 0.19951689E-02 0.90487184E+02</pdfrwt>
<totfact> 0.11553129E+05</totfact>
</mgrwt>
</event>
<event>
 7    1  0.3607059E-009  0.9042694E+02  0.7818608E-02  0.1301821E+00
          1   -1    0    0  501    0  0.00000000000E+00  0.00000000000E+00  0.67228202362E+02  0.67228202551E+02  0.50400000000E-02 0. -1.
         -1   -1    0    0    0  501 -0.00000000000E+00 -0.00000000000E+00 -0.30407743094E+02  0.30407743511E+02  0.50400000000E-02 0.  1.
         23    2    1    2    0    0  0.00000000000E+00  0.00000000000E+00  0.36820459268E+02  0.97635946062E+02  0.90426941465E+02 0.  0.
    9000005    2    3    3    0    0  0.34912149806E+02 -0.20882300898E+02  0.37139390109E+02  0.56953881073E+02  0.14473478393E+02 0.  0.
         22    1    3    3    0    0 -0.34912149806E+02  0.20882300898E+02 -0.31893084051E+00  0.40682064989E+02  0.00000000000E+00 0.  1.
         22    1    4    4    0    0  0.29669901943E+02 -0.21986594310E+02  0.27935974673E+02  0.46304773961E+02  0.00000000000E+00 0.  1.
         22    1    4    4    0    0  0.52422478637E+01  0.11042934128E+01  0.92034154357E+01  0.10649107112E+02  0.00000000000E+00 0.  1.
<mgrwt>
<rscale>  0 0.90426941E+02</rscale>
<asrwt>0</asrwt>
<pdfrwt beam="1">  1        1 0.10342800E-01 0.90426941E+02</pdfrwt>
<pdfrwt beam="2">  1       -1 0.46781144E-02 0.90426941E+02</pdfrwt>
<totfact> 0.10031499E+05</totfact>
</mgrwt>
</event>
<event>
 7    1  0.3607059E-009  0.9119810E+02  0.7818608E-02  0.1299976E+00
         -1   -1    0    0    0  501 -0.00000000000E+00  0.00000000000E+00  0.48155426782E+01  0.48155453156E+01  0.50400000000E-02 0.  1.
          1   -1    0    0  501    0  0.00000000000E+00 -0.00000000000E+00 -0.43178366052E+03  0.43178366055E+03  0.50400000000E-02 0. -1.
         23    2    1    2    0    0  0.00000000000E+00  0.00000000000E+00 -0.42696811784E+03  0.43659920586E+03  0.91198097066E+02 0.  0.
    9000005    2    3    3    0    0  0.30685119577E+02 -0.55642669532E+01 -0.37019636634E+03  0.37182599073E+03  0.15384410998E+02 0.  0.
         22    1    3    3    0    0 -0.30685119577E+02  0.55642669532E+01 -0.56771751501E+02  0.64773215132E+02  0.00000000000E+00 0.  1.
         22    1    4    4    0    0  0.37799238086E+01  0.12452875776E+01 -0.14133637222E+02  0.14683264837E+02  0.00000000000E+00 0.  1.
         22    1    4    4    0    0  0.26905195768E+02 -0.68095545308E+01 -0.35606272912E+03  0.35714272589E+03  0.00000000000E+00 0.  1.
<mgrwt>
<rscale>  0 0.91198097E+02</rscale>
<asrwt>0</asrwt>
<pdfrwt beam="2">  1        1 0.66428225E-01 0.91198097E+02</pdfrwt>
<pdfrwt beam="1">  1       -1 0.74085327E-03 0.91198097E+02</pdfrwt>
<totfact> 0.13644170E+05</totfact>
</mgrwt>
</event>
<event>
 7    1  0.3607059E-009  0.9060051E+02  0.7818608E-02  0.1301404E+00
         -1   -1    0    0    0  501 -0.00000000000E+00  0.00000000000E+00  0.14838409205E+02  0.14838410061E+02  0.50400000000E-02 0.  1.
          1   -1    0    0  501    0  0.00000000000E+00 -0.00000000000E+00 -0.13829737984E+03  0.13829737993E+03  0.50400000000E-02 0. -1.
         23    2    1    2    0    0  0.00000000000E+00  0.35527136788E-14 -0.12345897063E+03  0.15313578999E+03  0.90600511842E+02 0.  0.
    9000005    2    3    3    0    0 -0.30899873794E+02  0.18682760894E+02 -0.10773937163E+03  0.11375364241E+03  0.53170675362E+01 0.  0.
         22    1    3    3    0    0  0.30899873794E+02 -0.18682760894E+02 -0.15719599001E+02  0.39382147578E+02  0.00000000000E+00 0.  1.
         22    1    4    4    0    0 -0.77641048697E+01  0.75161580536E+01 -0.31310768793E+02  0.33123076528E+02  0.00000000000E+00 0. -1.
         22    1    4    4    0    0 -0.23135768924E+02  0.11166602840E+02 -0.76428602838E+02  0.80630565883E+02  0.00000000000E+00 0. -1.
<mgrwt>
<rscale>  0 0.90600512E+02</rscale>
<asrwt>0</asrwt>
<pdfrwt beam="2">  1        1 0.21276519E-01 0.90600512E+02</pdfrwt>
<pdfrwt beam="1">  1       -1 0.22828324E-02 0.90600512E+02</pdfrwt>
<totfact> 0.11239362E+05</totfact>
</mgrwt>
</event>
<event>
 7    1  0.3607059E-009  0.9121542E+02  0.7818608E-02  0.1299935E+00
          1   -1    0    0  501    0  0.00000000000E+00  0.00000000000E+00  0.99887027859E+01  0.99887040574E+01  0.50400000000E-02 0. -1.
         -1   -1    0    0    0  501 -0.00000000000E+00 -0.00000000000E+00 -0.20824157049E+03  0.20824157055E+03  0.50400000000E-02 0.  1.
         23    2    1    2    0    0  0.35527136788E-14 -0.88817841970E-15 -0.19825286771E+03  0.21823027461E+03  0.91215421957E+02 0.  0.
    9000005    2    3    3    0    0 -0.31320927221E+02  0.74377743543E+01 -0.17525163490E+03  0.17866542051E+03  0.13110148036E+02 0.  0.
         22    1    3    3    0    0  0.31320927221E+02 -0.74377743543E+01 -0.23001232804E+02  0.39564854099E+02  0.00000000000E+00 0. -1.
         22    1    4    4    0    0 -0.35646641342E+01 -0.30900222058E+00 -0.60617964701E+01  0.70390119481E+01  0.00000000000E+00 0. -1.
         22    1    4    4    0    0 -0.27756263087E+02  0.77467765749E+01 -0.16918983843E+03  0.17162640856E+03  0.00000000000E+00 0. -1.
<mgrwt>
<rscale>  0 0.91215422E+02</rscale>
<asrwt>0</asrwt>
<pdfrwt beam="1">  1        1 0.15367238E-02 0.91215422E+02</pdfrwt>
<pdfrwt beam="2">  1       -1 0.32037162E-01 0.91215422E+02</pdfrwt>
<totfact> 0.68539718E+04</totfact>
</mgrwt>
</event>
<event>
 7    1  0.3607059E-009  0.8334629E+02  0.7818608E-02  0.1319815E+00
          1   -1    0    0  501    0  0.00000000000E+00  0.00000000000E+00  0.57754145674E+02  0.57754145894E+02  0.50400000000E-02 0. -1.
         -1   -1    0    0    0  501 -0.00000000000E+00 -0.00000000000E+00 -0.30069718793E+02  0.30069719215E+02  0.50400000000E-02 0.  1.
         23    2    1    2    0    0  0.00000000000E+00  0.00000000000E+00  0.27684426881E+02  0.87823865109E+02  0.83346288405E+02 0.  0.
    9000005    2    3    3    0    0 -0.17939315239E+02 -0.12282089278E+02 -0.21727353536E+02  0.33840601107E+02  0.14157670831E+02 0.  0.
         22    1    3    3    0    0  0.17939315239E+02  0.12282089278E+02  0.49411780417E+02  0.53983264001E+02  0.00000000000E+00 0. -1.
         22    1    4    4    0    0 -0.11604265761E+02 -0.53350631738E+01 -0.33595167806E+01  0.13206371036E+02  0.00000000000E+00 0. -1.
         22    1    4    4    0    0 -0.63350494773E+01 -0.69470261043E+01 -0.18367836756E+02  0.20634230072E+02  0.00000000000E+00 0. -1.
<mgrwt>
<rscale>  0 0.83346288E+02</rscale>
<asrwt>0</asrwt>
<pdfrwt beam="1">  1        1 0.88852532E-02 0.83346288E+02</pdfrwt>
<pdfrwt beam="2">  1       -1 0.46261106E-02 0.83346288E+02</pdfrwt>
<totfact> 0.12273760E+05</totfact>
</mgrwt>
</event>
<event>
 7    1  0.3607059E-009  0.8740370E+02  0.7818608E-02  0.1309264E+00
         -1   -1    0    0    0  501 -0.00000000000E+00  0.00000000000E+00  0.10900683992E+03  0.10900684004E+03  0.50400000000E-02 0.  1.
          1   -1    0    0  501    0  0.00000000000E+00 -0.00000000000E+00 -0.17520473404E+02  0.17520474129E+02  0.50400000000E-02 0. -1.
         23    2    1    2    0    0  0.00000000000E+00  0.00000000000E+00  0.91486366517E+02  0.12652731417E+03  0.87403695411E+02 0.  0.
    9000005    2    3    3    0    0 -0.37505246167E+02 -0.98202383238E+01  0.16897104017E+02  0.42464012714E+02  0.38209528721E+01 0.  0.
         22    1    3    3    0    0  0.37505246167E+02  0.98202383238E+01  0.74589262500E+02  0.84063301452E+02  0.00000000000E+00 0.  1.
         22    1    4    4    0    0 -0.92203700138E+01 -0.40000497068E+01  0.36481307078E+01  0.10692262553E+02  0.00000000000E+00 0.  1.
         22    1    4    4    0    0 -0.28284876153E+02 -0.58201886170E+01  0.13248973309E+02  0.31771750160E+02  0.00000000000E+00 0.  1.
<mgrwt>
<rscale>  0 0.87403695E+02</rscale>
<asrwt>0</asrwt>
<pdfrwt beam="2">  1        1 0.26954575E-02 0.87403695E+02</pdfrwt>
<pdfrwt beam="1">  1       -1 0.16770283E-01 0.87403695E+02</pdfrwt>
<totfact> 0.89254565E+04</totfact>
</mgrwt>
</event>
<event>
 7    1  0.3607059E-009  0.9252223E+02  0.7818608E-02  0.1296856E+00
         -1   -1    0    0    0  501 -0.00000000000E+00  0.00000000000E+00  0.55134727499E+03  0.55134727501E+03  0.50400000000E-02 0.  1.
          1   -1    0    0  501    0  0.00000000000E+00 -0.00000000000E+00 -0.38815641088E+01  0.38815673809E+01  0.50400000000E-02 0. -1.
         23    2    1    2    0    0  0.00000000000E+00  0.00000000000E+00  0.54746571088E+03  0.55522884239E+03  0.92522228872E+02 0.  0.
    9000005    2    3    3    0    0  0.27019513255E+02 -0.27610696059E+02  0.42067639695E+03  0.42268475630E+03  0.14190405818E+02 0.  0.
         22    1    3    3    0    0 -0.27019513255E+02  0.27610696059E+02  0.12678931392E+03  0.13254408610E+03  0.00000000000E+00 0. -1.
         22    1    4    4    0    0  0.13561564802E+02 -0.84253754276E+01  0.11374913080E+03  0.11486412734E+03  0.00000000000E+00 0.  1.
         22    1    4    4    0    0  0.13457948453E+02 -0.19185320631E+02  0.30692726615E+03  0.30782062896E+03  0.00000000000E+00 0.  1.
<mgrwt>
<rscale>  0 0.92522229E+02</rscale>
<asrwt>0</asrwt>
<pdfrwt beam="2">  1        1 0.59716408E-03 0.92522229E+02</pdfrwt>
<pdfrwt beam="1">  1       -1 0.84822641E-01 0.92522229E+02</pdfrwt>
<totfact> 0.42498260E+04</totfact>
</mgrwt>
</event>
<event>
 7    1  0.3607059E-009  0.8958402E+02  0.7818608E-02  0.1303862E+00
         -1   -1    0    0    0  501 -0.00000000000E+00  0.00000000000E+00  0.20699142910E+01  0.20699204269E+01  0.50400000000E-02 0. -1.
          1   -1    0    0  501    0  0.00000000000E+00 -0.00000000000E+00 -0.96927739140E+03  0.96927739142E+03  0.50400000000E-02 0.  1.
         23    2    1    2    0    0  0.00000000000E+00  0.00000000000E+00 -0.96720747711E+03  0.97134731184E+03  0.89584018905E+02 0.  0.
    9000005    2    3    3    0    0  0.22546729779E+02 -0.46739498496E+01 -0.89983633162E+03  0.90014989563E+03  0.58489369160E+01 0.  0.
         22    1    3    3    0    0 -0.22546729779E+02  0.46739498496E+01 -0.67371145490E+02  0.71197416214E+02  0.00000000000E+00 0. -1.
         22    1    4    4    0    0  0.13288194508E+02 -0.31692929015E+01 -0.42064658448E+03  0.42086835182E+03  0.00000000000E+00 0.  1.
         22    1    4    4    0    0  0.92585352708E+01 -0.15046569481E+01 -0.47918974715E+03  0.47928154381E+03  0.00000000000E+00 0.  1.
<mgrwt>
<rscale>  0 0.89584019E+02</rscale>
<asrwt>0</asrwt>
<pdfrwt beam="2">  1        1 0.14911924E+00 0.89584019E+02</pdfrwt>
<pdfrwt beam="1">  1       -1 0.31844960E-03 0.89584019E+02</pdfrwt>
<totfact> 0.14361741E+05</totfact>
</mgrwt>
</event>
<event>
 7    1  0.3607059E-009  0.9392182E+02  0.7818608E-02  0.1293623E+00
          1   -1    0    0  501    0  0.00000000000E+00  0.00000000000E+00  0.13353661597E+03  0.13353661606E+03  0.50400000000E-02 0. -1.
         -1   -1    0    0    0  501 -0.00000000000E+00 -0.00000000000E+00 -0.16514774022E+02  0.16514774792E+02  0.50400000000E-02 0.  1.
         23    2    1    2    0    0  0.00000000000E+00  0.00000000000E+00  0.11702184194E+03  0.15005139085E+03  0.93921820707E+02 0.  0.
    9000005    2    3    3    0    0 -0.33704816470E+02 -0.27979231397E+02  0.84102597403E+02  0.95256056162E+02  0.90342294991E+01 0.  0.
         22    1    3    3    0    0  0.33704816470E+02  0.27979231397E+02  0.32919244540E+02  0.54795334691E+02  0.00000000000E+00 0.  1.
         22    1    4    4    0    0 -0.29219263602E+02 -0.23234487217E+02  0.63686221082E+02  0.73821010000E+02  0.00000000000E+00 0. -1.
         22    1    4    4    0    0 -0.44855528678E+01 -0.47447441792E+01  0.20416376321E+02  0.21435046161E+02  0.00000000000E+00 0. -1.
<mgrwt>
<rscale>  0 0.93921821E+02</rscale>
<asrwt>0</asrwt>
<pdfrwt beam="1">  1        1 0.20544094E-01 0.93921821E+02</pdfrwt>
<pdfrwt beam="2">  1       -1 0.25407347E-02 0.93921821E+02</pdfrwt>
<totfact> 0.10130553E+05</totfact>
</mgrwt>
</event>
<event>
 7    1  0.3607059E-009  0.9307387E+02  0.7818608E-02  0.1295574E+00
          1   -1    0    0  501    0  0.00000000000E+00  0.00000000000E+00  0.12117249176E+03  0.12117249187E+03  0.50400000000E-02 0. -1.
         -1   -1    0    0    0  501 -0.00000000000E+00 -0.00000000000E+00 -0.17872755154E+02  0.17872755865E+02  0.50400000000E-02 0.  1.
         23    2    1    2    0    0  0.00000000000E+00  0.00000000000E+00  0.10329973661E+03  0.13904524773E+03  0.93073870304E+02 0.  0.
    9000005    2    3    3    0    0 -0.19317310286E+02 -0.26992066550E+02  0.38410826085E+01  0.34194143833E+02  0.72632928822E+01 0.  0.
         22    1    3    3    0    0  0.19317310286E+02  0.26992066550E+02  0.99458653999E+02  0.10485110390E+03  0.00000000000E+00 0. -1.
         22    1    4    4    0    0 -0.11007824593E+02 -0.96293818342E+01  0.33672065003E+00  0.14629100368E+02  0.00000000000E+00 0.  1.
         22    1    4    4    0    0 -0.83094856929E+01 -0.17362684716E+02  0.35043619584E+01  0.19565043465E+02  0.00000000000E+00 0.  1.
<mgrwt>
<rscale>  0 0.93073870E+02</rscale>
<asrwt>0</asrwt>
<pdfrwt beam="1">  1        1 0.18641922E-01 0.93073870E+02</pdfrwt>
<pdfrwt beam="2">  1       -1 0.27496546E-02 0.93073870E+02</pdfrwt>
<totfact> 0.10204825E+05</totfact>
</mgrwt>
</event>
<event>
 7    1  0.3607059E-009  0.8941007E+02  0.7818608E-02  0.1304287E+00
         -1   -1    0    0    0  501 -0.00000000000E+00  0.00000000000E+00  0.18951172678E+03  0.18951172685E+03  0.50400000000E-02 0.  1.
          1   -1    0    0  501    0  0.00000000000E+00 -0.00000000000E+00 -0.10545732888E+02  0.10545734093E+02  0.50400000000E-02 0. -1.
         23    2    1    2    0    0  0.00000000000E+00  0.00000000000E+00  0.17896599389E+03  0.20005746094E+03  0.89410070507E+02 0.  0.
    9000005    2    3    3    0    0 -0.21119221134E+02 -0.34885400419E+02  0.53640512387E+02  0.68264103831E+02  0.10939407617E+02 0.  0.
         22    1    3    3    0    0  0.21119221134E+02  0.34885400419E+02  0.12532548150E+03  0.13179335711E+03  0.00000000000E+00 0.  1.
         22    1    4    4    0    0 -0.14442395212E+02 -0.25400905253E+02  0.45571427990E+02  0.54134497469E+02  0.00000000000E+00 0.  1.
         22    1    4    4    0    0 -0.66768259215E+01 -0.94844951662E+01  0.80690843964E+01  0.14129606362E+02  0.00000000000E+00 0.  1.
<mgrwt>
<rscale>  0 0.89410071E+02</rscale>
<asrwt>0</asrwt>
<pdfrwt beam="2">  1        1 0.16224206E-02 0.89410071E+02</pdfrwt>
<pdfrwt beam="1">  1       -1 0.29155649E-01 0.89410071E+02</pdfrwt>
<totfact> 0.74161025E+04</totfact>
</mgrwt>
</event>
<event>
 7    1  0.3820819E-009  0.9134988E+02  0.7818608E-02  0.1299615E+00
          1   -1    0    0  501    0  0.00000000000E+00  0.00000000000E+00  0.10647633803E+03  0.10647633815E+03  0.50400000000E-02 0. -1.
         -1   -1    0    0    0  501 -0.00000000000E+00 -0.00000000000E+00 -0.19593086323E+02  0.19593086971E+02  0.50400000000E-02 0.  1.
         23    2    1    2    0    0  0.00000000000E+00  0.00000000000E+00  0.86883251711E+02  0.12606942512E+03  0.91349879711E+02 0.  0.
    9000005    2    3    3    0    0 -0.13365195488E+02 -0.22376268708E+02  0.94326340402E+02  0.98963606174E+02  0.14731293278E+02 0.  0.
         22    1    3    3    0    0  0.13365195488E+02  0.22376268708E+02 -0.74430886908E+01  0.27105818950E+02  0.00000000000E+00 0.  1.
         22    1    4    4    0    0  0.24800048863E+01 -0.65695915974E+01  0.31397898361E+02  0.32173560255E+02  0.00000000000E+00 0. -1.
         22    1    4    4    0    0 -0.15845200374E+02 -0.15806677110E+02  0.62928442041E+02  0.66790045919E+02  0.00000000000E+00 0. -1.
<mgrwt>
<rscale>  0 0.91349880E+02</rscale>
<asrwt>0</asrwt>
<pdfrwt beam="1">  1        1 0.16380975E-01 0.91349880E+02</pdfrwt>
<pdfrwt beam="2">  1       -1 0.30143210E-02 0.91349880E+02</pdfrwt>
<totfact> 0.10501188E+05</totfact>
</mgrwt>
</event>
<event>
 7    1  0.3607059E-009  0.9085450E+02  0.7818608E-02  0.1300795E+00
         -1   -1    0    0    0  501 -0.00000000000E+00  0.00000000000E+00  0.52617262472E+02  0.52617262713E+02  0.50400000000E-02 0.  1.
          1   -1    0    0  501    0  0.00000000000E+00 -0.00000000000E+00 -0.39219737318E+02  0.39219737642E+02  0.50400000000E-02 0. -1.
         23    2    1    2    0    0  0.00000000000E+00  0.00000000000E+00  0.13397525154E+02  0.91837000355E+02  0.90854504313E+02 0.  0.
    9000005    2    3    3    0    0  0.10781113413E+02  0.35751000497E+02  0.31700342966E+02  0.50251430949E+02  0.11221770154E+02 0.  0.
         22    1    3    3    0    0 -0.10781113413E+02 -0.35751000497E+02 -0.18302817811E+02  0.41585569405E+02  0.00000000000E+00 0. -1.
         22    1    4    4    0    0  0.42634986242E+01  0.29235359447E+02  0.26392745857E+02  0.39616419530E+02  0.00000000000E+00 0. -1.
         22    1    4    4    0    0  0.65176147884E+01  0.65156410496E+01  0.53075971085E+01  0.10635011419E+02  0.00000000000E+00 0. -1.
<mgrwt>
<rscale>  0 0.90854504E+02</rscale>
<asrwt>0</asrwt>
<pdfrwt beam="2">  1        1 0.60338058E-02 0.90854504E+02</pdfrwt>
<pdfrwt beam="1">  1       -1 0.80949635E-02 0.90854504E+02</pdfrwt>
<totfact> 0.91301683E+04</totfact>
</mgrwt>
</event>
<event>
 7    1  0.3607059E-009  0.9065213E+02  0.7818608E-02  0.1301280E+00
          1   -1    0    0  501    0  0.00000000000E+00  0.00000000000E+00  0.22053993601E+03  0.22053993607E+03  0.50400000000E-02 0. -1.
         -1   -1    0    0    0  501 -0.00000000000E+00 -0.00000000000E+00 -0.93155556289E+01  0.93155569923E+01  0.50400000000E-02 0.  1.
         23    2    1    2    0    0  0.00000000000E+00 -0.88817841970E-15  0.21122438038E+03  0.22985549306E+03  0.90652130822E+02 0.  0.
    9000005    2    3    3    0    0  0.10928000937E+02 -0.66061403313E+01  0.21548190062E+03  0.21639485514E+03  0.15205970633E+02 0.  0.
         22    1    3    3    0    0 -0.10928000937E+02  0.66061403313E+01 -0.42575202390E+01  0.13460637917E+02  0.00000000000E+00 0.  1.
         22    1    4    4    0    0  0.66671792861E+01  0.35485508976E+01  0.12798654959E+03  0.12820920548E+03  0.00000000000E+00 0. -1.
         22    1    4    4    0    0  0.42608216506E+01 -0.10154691229E+02  0.87495351031E+02  0.88185649667E+02  0.00000000000E+00 0. -1.
<mgrwt>
<rscale>  0 0.90652131E+02</rscale>
<asrwt>0</asrwt>
<pdfrwt beam="1">  1        1 0.33929223E-01 0.90652131E+02</pdfrwt>
<pdfrwt beam="2">  1       -1 0.14331624E-02 0.90652131E+02</pdfrwt>
<totfact> 0.12255898E+05</totfact>
</mgrwt>
</event>
<event>
 7    1  0.3607059E-009  0.9129840E+02  0.7818608E-02  0.1299738E+00
         -1   -1    0    0    0  501 -0.00000000000E+00  0.00000000000E+00  0.93024324034E+00  0.93025689344E+00  0.50400000000E-02 0.  1.
          1   -1    0    0  501    0  0.00000000000E+00 -0.00000000000E+00 -0.22400961506E+04  0.22400961506E+04  0.50400000000E-02 0. -1.
         23    2    1    2    0    0 -0.88817841970E-15  0.00000000000E+00 -0.22391659073E+04  0.22410264075E+04  0.91298403197E+02 0.  0.
    9000005    2    3    3    0    0 -0.49341836793E+01 -0.91923493820E+01 -0.22100936487E+04  0.22101388424E+04  0.95352545548E+01 0.  0.
         22    1    3    3    0    0  0.49341836793E+01  0.91923493820E+01 -0.29072258606E+02  0.30887565074E+02  0.00000000000E+00 0.  1.
         22    1    4    4    0    0 -0.69572564057E+01 -0.35795542050E+01 -0.10067191105E+04  0.10067495141E+04  0.00000000000E+00 0.  1.
         22    1    4    4    0    0  0.20230727264E+01 -0.56127951770E+01 -0.12033745382E+04  0.12033893283E+04  0.00000000000E+00 0.  1.
<mgrwt>
<rscale>  0 0.91298403E+02</rscale>
<asrwt>0</asrwt>
<pdfrwt beam="2">  1        1 0.34462586E+00 0.91298403E+02</pdfrwt>
<pdfrwt beam="1">  1       -1 0.14311719E-03 0.91298403E+02</pdfrwt>
<totfact> 0.65621187E+04</totfact>
</mgrwt>
</event>
<event>
 7    1  0.3607059E-009  0.9145701E+02  0.7818608E-02  0.1299361E+00
         -1   -1    0    0    0  501 -0.00000000000E+00  0.00000000000E+00  0.76106733434E+03  0.76106733435E+03  0.50400000000E-02 0.  1.
          1   -1    0    0  501    0  0.00000000000E+00 -0.00000000000E+00 -0.27475811918E+01  0.27475858143E+01  0.50400000000E-02 0. -1.
         23    2    1    2    0    0  0.35527136788E-14  0.00000000000E+00  0.75831975315E+03  0.76381492017E+03  0.91457007720E+02 0.  0.
    9000005    2    3    3    0    0 -0.18843357072E+02 -0.19330558025E+02  0.68652671963E+03  0.68711431887E+03  0.88548202002E+01 0.  0.
         22    1    3    3    0    0  0.18843357072E+02  0.19330558025E+02  0.71793033513E+02  0.76700601303E+02  0.00000000000E+00 0. -1.
         22    1    4    4    0    0 -0.10967442063E+02 -0.64576229571E+01  0.38481926415E+03  0.38502967644E+03  0.00000000000E+00 0. -1.
         22    1    4    4    0    0 -0.78759150082E+01 -0.12872935068E+02  0.30170745548E+03  0.30208464242E+03  0.00000000000E+00 0. -1.
<mgrwt>
<rscale>  0 0.91457008E+02</rscale>
<asrwt>0</asrwt>
<pdfrwt beam="2">  1        1 0.42270529E-03 0.91457008E+02</pdfrwt>
<pdfrwt beam="1">  1       -1 0.11708724E+00 0.91457008E+02</pdfrwt>
<totfact> 0.33952007E+04</totfact>
</mgrwt>
</event>
<event>
 7    1  0.3607059E-009  0.9174889E+02  0.7818608E-02  0.1298671E+00
         -1   -1    0    0    0  501 -0.00000000000E+00  0.00000000000E+00  0.50380251840E+02  0.50380252092E+02  0.50400000000E-02 0.  1.
          1   -1    0    0  501    0  0.00000000000E+00 -0.00000000000E+00 -0.41771616055E+02  0.41771616359E+02  0.50400000000E-02 0. -1.
         23    2    1    2    0    0  0.00000000000E+00  0.00000000000E+00  0.86086357850E+01  0.92151868451E+02  0.91748886908E+02 0.  0.
    9000005    2    3    3    0    0  0.16683239693E+02  0.79713097147E+01 -0.36492287209E+02  0.43407991706E+02  0.14515317876E+02 0.  0.
         22    1    3    3    0    0 -0.16683239693E+02 -0.79713097147E+01  0.45100922994E+02  0.48743876745E+02  0.00000000000E+00 0.  1.
         22    1    4    4    0    0  0.92688346192E+00  0.35426789728E+01 -0.19402404112E+02  0.19744948026E+02  0.00000000000E+00 0.  1.
         22    1    4    4    0    0  0.15756356231E+02  0.44286307419E+01 -0.17089883097E+02  0.23663043680E+02  0.00000000000E+00 0.  1.
<mgrwt>
<rscale>  0 0.91748887E+02</rscale>
<asrwt>0</asrwt>
<pdfrwt beam="2">  1        1 0.64264026E-02 0.91748887E+02</pdfrwt>
<pdfrwt beam="1">  1       -1 0.77508080E-02 0.91748887E+02</pdfrwt>
<totfact> 0.89664162E+04</totfact>
</mgrwt>
</event>
<event>
 7    1  0.3607059E-009  0.9030750E+02  0.7818608E-02  0.1302109E+00
          1   -1    0    0  501    0  0.00000000000E+00  0.00000000000E+00  0.21969119208E+02  0.21969119787E+02  0.50400000000E-02 0. -1.
         -1   -1    0    0    0  501 -0.00000000000E+00 -0.00000000000E+00 -0.92805781397E+02  0.92805781534E+02  0.50400000000E-02 0.  1.
         23    2    1    2    0    0  0.00000000000E+00  0.00000000000E+00 -0.70836662189E+02  0.11477490132E+03  0.90307503914E+02 0.  0.
    9000005    2    3    3    0    0  0.13057432481E+02 -0.39842350430E+02 -0.20094427381E+02  0.48951776022E+02  0.15316035164E+02 0.  0.
         22    1    3    3    0    0 -0.13057432481E+02  0.39842350430E+02 -0.50742234808E+02  0.65823125299E+02  0.00000000000E+00 0.  1.
         22    1    4    4    0    0  0.14722137441E+02 -0.40267002660E+02 -0.19728632499E+02  0.47195251608E+02  0.00000000000E+00 0.  1.
         22    1    4    4    0    0 -0.16647049601E+01  0.42465223012E+00 -0.36579488155E+00  0.17565244138E+01  0.00000000000E+00 0.  1.
<mgrwt>
<rscale>  0 0.90307504E+02</rscale>
<asrwt>0</asrwt>
<pdfrwt beam="1">  1        1 0.33798646E-02 0.90307504E+02</pdfrwt>
<pdfrwt beam="2">  1       -1 0.14277812E-01 0.90307504E+02</pdfrwt>
<totfact> 0.84543458E+04</totfact>
</mgrwt>
</event>
<event>
 7    1  0.3607059E-009  0.9109632E+02  0.7818608E-02  0.1300218E+00
          1   -1    0    0  501    0  0.00000000000E+00  0.00000000000E+00  0.23631183071E+03  0.23631183077E+03  0.50400000000E-02 0. -1.
         -1   -1    0    0    0  501 -0.00000000000E+00 -0.00000000000E+00 -0.87792240808E+01  0.87792255275E+01  0.50400000000E-02 0.  1.
         23    2    1    2    0    0 -0.35527136788E-14  0.00000000000E+00  0.22753260663E+03  0.24509105629E+03  0.91096316032E+02 0.  0.
    9000005    2    3    3    0    0 -0.28507287611E+02 -0.34464712507E+02  0.10324570215E+03  0.11300125169E+03  0.10446339814E+02 0.  0.
         22    1    3    3    0    0  0.28507287611E+02  0.34464712507E+02  0.12428690448E+03  0.13208980460E+03  0.00000000000E+00 0. -1.
         22    1    4    4    0    0 -0.56313701044E+01 -0.13673686317E+02  0.38880950510E+02  0.41598201154E+02  0.00000000000E+00 0.  1.
         22    1    4    4    0    0 -0.22875917507E+02 -0.20791026190E+02  0.64364751642E+02  0.71403050536E+02  0.00000000000E+00 0.  1.
<mgrwt>
<rscale>  0 0.91096316E+02</rscale>
<asrwt>0</asrwt>
<pdfrwt beam="1">  1        1 0.36355670E-01 0.91096316E+02</pdfrwt>
<pdfrwt beam="2">  1       -1 0.13506499E-02 0.91096316E+02</pdfrwt>
<totfact> 0.12260918E+05</totfact>
</mgrwt>
</event>
<event>
 7    1  0.3607059E-009  0.9328765E+02  0.7818608E-02  0.1295080E+00
         -1   -1    0    0    0  501 -0.00000000000E+00  0.00000000000E+00  0.27074250773E+03  0.27074250778E+03  0.50400000000E-02 0.  1.
          1   -1    0    0  501    0  0.00000000000E+00 -0.00000000000E+00 -0.80358506290E+01  0.80358522095E+01  0.50400000000E-02 0. -1.
         23    2    1    2    0    0  0.00000000000E+00  0.35527136788E-14  0.26270665710E+03  0.27877835999E+03  0.93287653586E+02 0.  0.
    9000005    2    3    3    0    0 -0.17000162080E+02  0.24035465249E+02  0.23886059098E+03  0.24089242632E+03  0.10395673764E+02 0.  0.
         22    1    3    3    0    0  0.17000162080E+02 -0.24035465249E+02  0.23846066118E+02  0.37885933666E+02  0.00000000000E+00 0. -1.
         22    1    4    4    0    0 -0.32455641177E+01  0.55810653326E+01  0.93326111125E+02  0.93549158171E+02  0.00000000000E+00 0.  1.
         22    1    4    4    0    0 -0.13754597962E+02  0.18454399917E+02  0.14553447986E+03  0.14734326815E+03  0.00000000000E+00 0.  1.
<mgrwt>
<rscale>  0 0.93287654E+02</rscale>
<asrwt>0</asrwt>
<pdfrwt beam="2">  1        1 0.12362849E-02 0.93287654E+02</pdfrwt>
<pdfrwt beam="1">  1       -1 0.41652690E-01 0.93287654E+02</pdfrwt>
<totfact> 0.59319235E+04</totfact>
</mgrwt>
</event>
<event>
 7    1  0.3607059E-009  0.9322504E+02  0.7818608E-02  0.1295225E+00
          1   -1    0    0  501    0  0.00000000000E+00  0.00000000000E+00  0.10216367375E+03  0.10216367387E+03  0.50400000000E-02 0. -1.
         -1   -1    0    0    0  501 -0.00000000000E+00 -0.00000000000E+00 -0.21267120862E+02  0.21267121459E+02  0.50400000000E-02 0.  1.
         23    2    1    2    0    0  0.00000000000E+00  0.00000000000E+00  0.80896552884E+02  0.12343079533E+03  0.93225044742E+02 0.  0.
    9000005    2    3    3    0    0 -0.16916370710E+02 -0.11120553822E+02  0.95262213524E+02  0.98607368473E+02  0.15449707974E+02 0.  0.
         22    1    3    3    0    0  0.16916370710E+02  0.11120553822E+02 -0.14365660639E+02  0.24823426857E+02  0.00000000000E+00 0.  1.
         22    1    4    4    0    0 -0.62144016500E+01 -0.36631032133E+00  0.58602017443E+02  0.58931735250E+02  0.00000000000E+00 0.  1.
         22    1    4    4    0    0 -0.10701969060E+02 -0.10754243500E+02  0.36660196080E+02  0.39675633223E+02  0.00000000000E+00 0.  1.
<mgrwt>
<rscale>  0 0.93225045E+02</rscale>
<asrwt>0</asrwt>
<pdfrwt beam="1">  1        1 0.15717488E-01 0.93225045E+02</pdfrwt>
<pdfrwt beam="2">  1       -1 0.32718649E-02 0.93225045E+02</pdfrwt>
<totfact> 0.98654966E+04</totfact>
</mgrwt>
</event>
<event>
 7    1  0.3607059E-009  0.9559312E+02  0.7818608E-02  0.1289846E+00
         -1   -1    0    0    0  501 -0.00000000000E+00  0.00000000000E+00  0.13249983868E+02  0.13249984827E+02  0.50400000000E-02 0.  1.
          1   -1    0    0  501    0  0.00000000000E+00 -0.00000000000E+00 -0.17241615199E+03  0.17241615206E+03  0.50400000000E-02 0. -1.
         23    2    1    2    0    0 -0.71054273576E-14  0.00000000000E+00 -0.15916616812E+03  0.18566613689E+03  0.95593123774E+02 0.  0.
    9000005    2    3    3    0    0 -0.32843897878E+02 -0.34597747666E+02 -0.85078639688E+02  0.97548671873E+02  0.12816714591E+01 0.  0.
         22    1    3    3    0    0  0.32843897878E+02  0.34597747666E+02 -0.74087528430E+02  0.88117465012E+02  0.00000000000E+00 0. -1.
         22    1    4    4    0    0 -0.28795799100E+02 -0.30051774699E+02 -0.73425981167E+02  0.84401907080E+02  0.00000000000E+00 0. -1.
         22    1    4    4    0    0 -0.40480987784E+01 -0.45459729668E+01 -0.11652658520E+02  0.13146764793E+02  0.00000000000E+00 0. -1.
<mgrwt>
<rscale>  0 0.95593124E+02</rscale>
<asrwt>0</asrwt>
<pdfrwt beam="2">  1        1 0.26525560E-01 0.95593124E+02</pdfrwt>
<pdfrwt beam="1">  1       -1 0.20384593E-02 0.95593124E+02</pdfrwt>
<totfact> 0.10129036E+05</totfact>
</mgrwt>
</event>
<event>
 7    1  0.3607059E-009  0.9157622E+02  0.7818608E-02  0.1299079E+00
         -1   -1    0    0    0  501 -0.00000000000E+00  0.00000000000E+00  0.60895738258E+01  0.60895759115E+01  0.50400000000E-02 0.  1.
          1   -1    0    0  501    0  0.00000000000E+00 -0.00000000000E+00 -0.34428529966E+03  0.34428529970E+03  0.50400000000E-02 0. -1.
         23    2    1    2    0    0  0.00000000000E+00  0.00000000000E+00 -0.33819572584E+03  0.35037487561E+03  0.91576222269E+02 0.  0.
    9000005    2    3    3    0    0  0.34949467546E+02  0.20571875392E+02 -0.24976847204E+03  0.25309154429E+03  0.51354480917E+01 0.  0.
         22    1    3    3    0    0 -0.34949467546E+02 -0.20571875392E+02 -0.88427253799E+02  0.97283331323E+02  0.00000000000E+00 0.  1.
         22    1    4    4    0    0  0.15705248681E+02  0.99829414834E+01 -0.13005508413E+03  0.13137975059E+03  0.00000000000E+00 0.  1.
         22    1    4    4    0    0  0.19244218865E+02  0.10588933909E+02 -0.11971338791E+03  0.12171179370E+03  0.00000000000E+00 0.  1.
<mgrwt>
<rscale>  0 0.91576222E+02</rscale>
<asrwt>0</asrwt>
<pdfrwt beam="2">  1        1 0.52966954E-01 0.91576222E+02</pdfrwt>
<pdfrwt beam="1">  1       -1 0.93685795E-03 0.91576222E+02</pdfrwt>
<totfact> 0.12992339E+05</totfact>
</mgrwt>
</event>
<event>
 7    1  0.3607059E-009  0.9107019E+02  0.7818608E-02  0.1300281E+00
         -1   -1    0    0    0  501 -0.00000000000E+00  0.00000000000E+00  0.10179008173E+02  0.10179009421E+02  0.50400000000E-02 0.  1.
          1   -1    0    0  501    0  0.00000000000E+00 -0.00000000000E+00 -0.20369810166E+03  0.20369810172E+03  0.50400000000E-02 0. -1.
         23    2    1    2    0    0  0.00000000000E+00  0.00000000000E+00 -0.19351909348E+03  0.21387711114E+03  0.91070187915E+02 0.  0.
    9000005    2    3    3    0    0 -0.22479812988E+02  0.17159610696E+02 -0.17988477836E+03  0.18248143023E+03  0.11880431788E+02 0.  0.
         22    1    3    3    0    0  0.22479812988E+02 -0.17159610696E+02 -0.13634315121E+02  0.31395680914E+02  0.00000000000E+00 0.  1.
         22    1    4    4    0    0 -0.14812042129E+02  0.17576401046E+02 -0.13685463615E+03  0.13877145924E+03  0.00000000000E+00 0.  1.
         22    1    4    4    0    0 -0.76677708589E+01 -0.41679034988E+00 -0.43030142215E+02  0.43709970981E+02  0.00000000000E+00 0.  1.
<mgrwt>
<rscale>  0 0.91070188E+02</rscale>
<asrwt>0</asrwt>
<pdfrwt beam="2">  1        1 0.31338167E-01 0.91070188E+02</pdfrwt>
<pdfrwt beam="1">  1       -1 0.15660015E-02 0.91070188E+02</pdfrwt>
<totfact> 0.11920158E+05</totfact>
</mgrwt>
</event>
<event>
 7    1  0.3607059E-009  0.9388884E+02  0.7818608E-02  0.1293698E+00
         -1   -1    0    0    0  501 -0.00000000000E+00  0.00000000000E+00  0.11417326506E+03  0.11417326517E+03  0.50400000000E-02 0.  1.
          1   -1    0    0  501    0  0.00000000000E+00 -0.00000000000E+00 -0.19302053570E+02  0.19302054228E+02  0.50400000000E-02 0. -1.
         23    2    1    2    0    0  0.00000000000E+00  0.00000000000E+00  0.94871211492E+02  0.13347531940E+03  0.93888839163E+02 0.  0.
    9000005    2    3    3    0    0 -0.43593315689E+02  0.12513757921E+02  0.61260728322E+02  0.77025023663E+02  0.11090812669E+02 0.  0.
         22    1    3    3    0    0  0.43593315689E+02 -0.12513757921E+02  0.33610483170E+02  0.56450295739E+02  0.00000000000E+00 0. -1.
         22    1    4    4    0    0 -0.27607754226E+02  0.13204452418E+02  0.42420811992E+02  0.52307465500E+02  0.00000000000E+00 0. -1.
         22    1    4    4    0    0 -0.15985561463E+02 -0.69069449659E+00  0.18839916330E+02  0.24717558162E+02  0.00000000000E+00 0. -1.
<mgrwt>
<rscale>  0 0.93888839E+02</rscale>
<asrwt>0</asrwt>
<pdfrwt beam="2">  1        1 0.29695468E-02 0.93888839E+02</pdfrwt>
<pdfrwt beam="1">  1       -1 0.17565117E-01 0.93888839E+02</pdfrwt>
<totfact> 0.73532063E+04</totfact>
</mgrwt>
</event>
<event>
 7    1  0.3607059E-009  0.9097903E+02  0.7818608E-02  0.1300498E+00
         -1   -1    0    0    0  501 -0.00000000000E+00  0.00000000000E+00  0.49322415738E+03  0.49322415741E+03  0.50400000000E-02 0.  1.
          1   -1    0    0  501    0  0.00000000000E+00 -0.00000000000E+00 -0.41954456729E+01  0.41954487002E+01  0.50400000000E-02 0. -1.
         23    2    1    2    0    0  0.00000000000E+00 -0.17763568394E-14  0.48902871171E+03  0.49741960611E+03  0.90979028708E+02 0.  0.
    9000005    2    3    3    0    0  0.32576366945E+02  0.10033039618E+02  0.40776710806E+03  0.40929849743E+03  0.94532541668E+01 0.  0.
         22    1    3    3    0    0 -0.32576366945E+02 -0.10033039618E+02  0.81261603652E+02  0.88121108682E+02  0.00000000000E+00 0. -1.
         22    1    4    4    0    0  0.28641773253E+02  0.11653241237E+02  0.37087342803E+03  0.37216024617E+03  0.00000000000E+00 0.  1.
         22    1    4    4    0    0  0.39345936912E+01 -0.16202016186E+01  0.36893680023E+02  0.37138251257E+02  0.00000000000E+00 0.  1.
<mgrwt>
<rscale>  0 0.90979029E+02</rscale>
<asrwt>0</asrwt>
<pdfrwt beam="2">  1        1 0.64545402E-03 0.90979029E+02</pdfrwt>
<pdfrwt beam="1">  1       -1 0.75880568E-01 0.90979029E+02</pdfrwt>
<totfact> 0.47708783E+04</totfact>
</mgrwt>
</event>
<event>
 7    1  0.3607059E-009  0.1015594E+03  0.7818608E-02  0.1277051E+00
         -1   -1    0    0    0  501 -0.00000000000E+00  0.00000000000E+00  0.71560821229E+02  0.71560821407E+02  0.50400000000E-02 0.  1.
          1   -1    0    0  501    0  0.00000000000E+00 -0.00000000000E+00 -0.36033373151E+02  0.36033373503E+02  0.50400000000E-02 0. -1.
         23    2    1    2    0    0  0.00000000000E+00  0.00000000000E+00  0.35527448079E+02  0.10759419491E+03  0.10155939745E+03 0.  0.
    9000005    2    3    3    0    0  0.11195261616E+02  0.47482379262E+02  0.28348654365E+02  0.58284507198E+02  0.14612575132E+02 0.  0.
         22    1    3    3    0    0 -0.11195261616E+02 -0.47482379262E+02  0.71787937136E+01  0.49309687712E+02  0.00000000000E+00 0. -1.
         22    1    4    4    0    0  0.12092164159E+02  0.31737950228E+02  0.24975168479E+02  0.42157762740E+02  0.00000000000E+00 0.  1.
         22    1    4    4    0    0 -0.89690254316E+00  0.15744429035E+02  0.33734858863E+01  0.16126744458E+02  0.00000000000E+00 0.  1.
<mgrwt>
<rscale>  0 0.10155940E+03</rscale>
<asrwt>0</asrwt>
<pdfrwt beam="2">  1        1 0.55435960E-02 0.10155940E+03</pdfrwt>
<pdfrwt beam="1">  1       -1 0.11009357E-01 0.10155940E+03</pdfrwt>
<totfact> 0.65468522E+04</totfact>
</mgrwt>
</event>
<event>
 7    1  0.3607059E-009  0.9028188E+02  0.7818608E-02  0.1302171E+00
         -1   -1    0    0    0  501 -0.00000000000E+00  0.00000000000E+00  0.35810467017E+03  0.35810467020E+03  0.50400000000E-02 0.  1.
          1   -1    0    0  501    0  0.00000000000E+00 -0.00000000000E+00 -0.56902474687E+01  0.56902497007E+01  0.50400000000E-02 0. -1.
         23    2    1    2    0    0  0.35527136788E-14  0.00000000000E+00  0.35241442270E+03  0.36379491990E+03  0.90281883130E+02 0.  0.
    9000005    2    3    3    0    0  0.26833807090E+02  0.34145028909E+02  0.21668524301E+03  0.22128756423E+03  0.11391020251E+02 0.  0.
         22    1    3    3    0    0 -0.26833807090E+02 -0.34145028909E+02  0.13572917969E+03  0.14250735567E+03  0.00000000000E+00 0. -1.
         22    1    4    4    0    0  0.22701615338E+02  0.23365738437E+02  0.14014862102E+03  0.14388522178E+03  0.00000000000E+00 0. -1.
         22    1    4    4    0    0  0.41321917526E+01  0.10779290471E+02  0.76536621987E+02  0.77402342451E+02  0.00000000000E+00 0. -1.
<mgrwt>
<rscale>  0 0.90281883E+02</rscale>
<asrwt>0</asrwt>
<pdfrwt beam="2">  1        1 0.87542295E-03 0.90281883E+02</pdfrwt>
<pdfrwt beam="1">  1       -1 0.55093021E-01 0.90281883E+02</pdfrwt>
<totfact> 0.57671071E+04</totfact>
</mgrwt>
</event>
<event>
 6    1  0.4283233E-009  0.1293467E+03  0.7818608E-02  0.1228428E+00
         -1   -1    0    0    0  501 -0.00000000000E+00  0.00000000000E+00  0.29572675197E+03  0.29572675201E+03  0.50400000000E-02 0.  1.
          1   -1    0    0  501    0  0.00000000000E+00 -0.00000000000E+00 -0.14143612633E+02  0.14143613531E+02  0.50400000000E-02 0. -1.
    9000005    2    1    2    0    0 -0.53878176922E+02 -0.22390639532E+00  0.22515050434E+03  0.23184761005E+03  0.12556137837E+02 0.  0.
         22    1    1    2    0    0  0.53878176922E+02  0.22390639532E+00  0.56432634993E+02  0.78022755493E+02  0.00000000000E+00 0. -1.
         22    1    3    3    0    0 -0.53338201493E+02  0.13361517253E+01  0.21278056390E+03  0.21936799542E+03  0.00000000000E+00 0. -1.
         22    1    3    3    0    0 -0.53997542891E+00 -0.15600581206E+01  0.12369940442E+02  0.12479614631E+02  0.00000000000E+00 0. -1.
<mgrwt>
<rscale>  0 0.12934674E+03</rscale>
<asrwt>0</asrwt>
<pdfrwt beam="2">  1        1 0.21759406E-02 0.12934674E+03</pdfrwt>
<pdfrwt beam="1">  1       -1 0.45496421E-01 0.12934674E+03</pdfrwt>
<totfact> 0.24173524E+04</totfact>
</mgrwt>
</event>
<event>
 7    1  0.3607059E-009  0.8924482E+02  0.7818608E-02  0.1304691E+00
         -1   -1    0    0    0  501 -0.00000000000E+00  0.00000000000E+00  0.16082249843E+02  0.16082250632E+02  0.50400000000E-02 0.  1.
          1   -1    0    0  501    0  0.00000000000E+00 -0.00000000000E+00 -0.12381100913E+03  0.12381100923E+03  0.50400000000E-02 0. -1.
         23    2    1    2    0    0  0.00000000000E+00  0.00000000000E+00 -0.10772875929E+03  0.13989325987E+03  0.89244823816E+02 0.  0.
    9000005    2    3    3    0    0 -0.25338796995E+02  0.13719742164E+02 -0.10725662884E+03  0.11107470915E+03  0.18222583354E+01 0.  0.
         22    1    3    3    0    0  0.25338796995E+02 -0.13719742164E+02 -0.47213045280E+00  0.28818550716E+02  0.00000000000E+00 0.  1.
         22    1    4    4    0    0 -0.22152435841E+02  0.11837125340E+02 -0.95620936613E+02  0.98864611812E+02  0.00000000000E+00 0.  1.
         22    1    4    4    0    0 -0.31863611542E+01  0.18826168231E+01 -0.11635692222E+02  0.12210097338E+02  0.00000000000E+00 0.  1.
<mgrwt>
<rscale>  0 0.89244824E+02</rscale>
<asrwt>0</asrwt>
<pdfrwt beam="2">  1        1 0.19047847E-01 0.89244824E+02</pdfrwt>
<pdfrwt beam="1">  1       -1 0.24741924E-02 0.89244824E+02</pdfrwt>
<totfact> 0.11478879E+05</totfact>
</mgrwt>
</event>
<event>
 7    1  0.3607059E-009  0.8619047E+02  0.7818608E-02  0.1312348E+00
          1   -1    0    0  501    0  0.00000000000E+00  0.00000000000E+00  0.15476621440E+03  0.15476621448E+03  0.50400000000E-02 0. -1.
         -1   -1    0    0    0  501 -0.00000000000E+00 -0.00000000000E+00 -0.12000029264E+02  0.12000030322E+02  0.50400000000E-02 0.  1.
         23    2    1    2    0    0  0.00000000000E+00  0.00000000000E+00  0.14276618514E+03  0.16676624481E+03  0.86190468081E+02 0.  0.
    9000005    2    3    3    0    0 -0.18880761670E+02 -0.27606299741E+02  0.21886686878E+02  0.41345177811E+02  0.10573822351E+02 0.  0.
         22    1    3    3    0    0  0.18880761670E+02  0.27606299741E+02  0.12087949826E+03  0.12542106700E+03  0.00000000000E+00 0. -1.
         22    1    4    4    0    0 -0.80603167134E+01 -0.11173315899E+02  0.30590239003E+01  0.14112736125E+02  0.00000000000E+00 0.  1.
         22    1    4    4    0    0 -0.10820444956E+02 -0.16432983842E+02  0.18827662978E+02  0.27232441686E+02  0.00000000000E+00 0.  1.
<mgrwt>
<rscale>  0 0.86190468E+02</rscale>
<asrwt>0</asrwt>
<pdfrwt beam="1">  1        1 0.23810186E-01 0.86190468E+02</pdfrwt>
<pdfrwt beam="2">  1       -1 0.18461585E-02 0.86190468E+02</pdfrwt>
<totfact> 0.13116581E+05</totfact>
</mgrwt>
</event>
<event>
 7    1  0.3607059E-009  0.8525160E+02  0.7818608E-02  0.1314776E+00
          1   -1    0    0  501    0  0.00000000000E+00  0.00000000000E+00  0.11525116596E+02  0.11525117698E+02  0.50400000000E-02 0. -1.
         -1   -1    0    0    0  501 -0.00000000000E+00 -0.00000000000E+00 -0.15765207213E+03  0.15765207221E+03  0.50400000000E-02 0.  1.
         23    2    1    2    0    0  0.00000000000E+00 -0.71054273576E-14 -0.14612695553E+03  0.16917718991E+03  0.85251595008E+02 0.  0.
    9000005    2    3    3    0    0  0.21513411258E+02  0.35040046719E+02 -0.60493247931E+02  0.74183697415E+02  0.12375628425E+02 0.  0.
         22    1    3    3    0    0 -0.21513411258E+02 -0.35040046719E+02 -0.85633707602E+02  0.94993492492E+02  0.00000000000E+00 0.  1.
         22    1    4    4    0    0  0.18454935242E+02  0.32191978549E+02 -0.59090568682E+02  0.69775378357E+02  0.00000000000E+00 0. -1.
         22    1    4    4    0    0  0.30584760165E+01  0.28480681696E+01 -0.14026792487E+01  0.44083190580E+01  0.00000000000E+00 0. -1.
<mgrwt>
<rscale>  0 0.85251595E+02</rscale>
<asrwt>0</asrwt>
<pdfrwt beam="1">  1        1 0.17730951E-02 0.85251595E+02</pdfrwt>
<pdfrwt beam="2">  1       -1 0.24254164E-01 0.85251595E+02</pdfrwt>
<totfact> 0.87962585E+04</totfact>
</mgrwt>
</event>
<event>
 7    1  0.3607059E-009  0.8533883E+02  0.7818608E-02  0.1314549E+00
         -1   -1    0    0    0  501 -0.00000000000E+00  0.00000000000E+00  0.23292531134E+03  0.23292531140E+03  0.50400000000E-02 0.  1.
          1   -1    0    0  501    0  0.00000000000E+00 -0.00000000000E+00 -0.78165770671E+01  0.78165786920E+01  0.50400000000E-02 0. -1.
         23    2    1    2    0    0  0.00000000000E+00  0.00000000000E+00  0.22510873428E+03  0.24074189009E+03  0.85338827017E+02 0.  0.
    9000005    2    3    3    0    0 -0.32508254874E+02 -0.18569644103E+02  0.16534026654E+03  0.17021609302E+03  0.15313270900E+02 0.  0.
         22    1    3    3    0    0  0.32508254874E+02  0.18569644103E+02  0.59768467734E+02  0.70525797069E+02  0.00000000000E+00 0. -1.
         22    1    4    4    0    0 -0.11556394638E+02 -0.11042225211E+02  0.97898050638E+02  0.99194300811E+02  0.00000000000E+00 0. -1.
         22    1    4    4    0    0 -0.20951860236E+02 -0.75274188919E+01  0.67442215904E+02  0.71021792209E+02  0.00000000000E+00 0. -1.
<mgrwt>
<rscale>  0 0.85338827E+02</rscale>
<asrwt>0</asrwt>
<pdfrwt beam="2">  1        1 0.12025505E-02 0.85338827E+02</pdfrwt>
<pdfrwt beam="1">  1       -1 0.35834663E-01 0.85338827E+02</pdfrwt>
<totfact> 0.78750889E+04</totfact>
</mgrwt>
</event>
<event>
 7    1  0.3607059E-009  0.8998490E+02  0.7818608E-02  0.1302888E+00
          1   -1    0    0  501    0  0.00000000000E+00  0.00000000000E+00  0.30500548436E+02  0.30500548852E+02  0.50400000000E-02 0. -1.
         -1   -1    0    0    0  501 -0.00000000000E+00 -0.00000000000E+00 -0.66369966886E+02  0.66369967077E+02  0.50400000000E-02 0.  1.
         23    2    1    2    0    0 -0.17763568394E-14  0.00000000000E+00 -0.35869418450E+02  0.96870515930E+02  0.89984896935E+02 0.  0.
    9000005    2    3    3    0    0  0.10884116280E+02  0.36683335995E+02 -0.42126417585E+02  0.58098345948E+02  0.11689808228E+02 0.  0.
         22    1    3    3    0    0 -0.10884116280E+02 -0.36683335995E+02  0.62569991350E+01  0.38772169982E+02  0.00000000000E+00 0. -1.
         22    1    4    4    0    0 -0.82474102606E+00  0.17046406457E+02 -0.16193579718E+02  0.23526414834E+02  0.00000000000E+00 0.  1.
         22    1    4    4    0    0  0.11708857306E+02  0.19636929537E+02 -0.25932837868E+02  0.34571931114E+02  0.00000000000E+00 0.  1.
<mgrwt>
<rscale>  0 0.89984897E+02</rscale>
<asrwt>0</asrwt>
<pdfrwt beam="1">  1        1 0.46923921E-02 0.89984897E+02</pdfrwt>
<pdfrwt beam="2">  1       -1 0.10210764E-01 0.89984897E+02</pdfrwt>
<totfact> 0.90251856E+04</totfact>
</mgrwt>
</event>
<event>
 7    1  0.3607059E-009  0.8804993E+02  0.7818608E-02  0.1307644E+00
         -1   -1    0    0    0  501 -0.00000000000E+00  0.00000000000E+00  0.31909428998E+01  0.31909468800E+01  0.50400000000E-02 0.  1.
          1   -1    0    0  501    0  0.00000000000E+00 -0.00000000000E+00 -0.60740546440E+03  0.60740546442E+03  0.50400000000E-02 0. -1.
         23    2    1    2    0    0  0.00000000000E+00  0.00000000000E+00 -0.60421452150E+03  0.61059641130E+03  0.88049926188E+02 0.  0.
    9000005    2    3    3    0    0 -0.17084454448E+02  0.38757500297E+02 -0.36893984850E+03  0.37153952651E+03  0.11444891048E+02 0.  0.
         22    1    3    3    0    0  0.17084454448E+02 -0.38757500297E+02 -0.23527467299E+03  0.23905688479E+03  0.00000000000E+00 0.  1.
         22    1    4    4    0    0 -0.79762876281E+01  0.69066555902E+01 -0.10502674973E+03  0.10555539406E+03  0.00000000000E+00 0.  1.
         22    1    4    4    0    0 -0.91081668196E+01  0.31850844707E+02 -0.26391309877E+03  0.26598413245E+03  0.00000000000E+00 0.  1.
<mgrwt>
<rscale>  0 0.88049926E+02</rscale>
<asrwt>0</asrwt>
<pdfrwt beam="2">  1        1 0.93446903E-01 0.88049926E+02</pdfrwt>
<pdfrwt beam="1">  1       -1 0.49091508E-03 0.88049926E+02</pdfrwt>
<totfact> 0.15536867E+05</totfact>
</mgrwt>
</event>
<event>
 7    1  0.3607059E-009  0.9224152E+02  0.7818608E-02  0.1297513E+00
          1   -1    0    0  501    0  0.00000000000E+00  0.00000000000E+00  0.81672922851E+02  0.81672923007E+02  0.50400000000E-02 0. -1.
         -1   -1    0    0    0  501 -0.00000000000E+00 -0.00000000000E+00 -0.26044426101E+02  0.26044426589E+02  0.50400000000E-02 0.  1.
         23    2    1    2    0    0  0.00000000000E+00  0.00000000000E+00  0.55628496750E+02  0.10771734960E+03  0.92241518597E+02 0.  0.
    9000005    2    3    3    0    0  0.60068823810E+01 -0.42818733221E+02  0.14427980368E+02  0.47992906519E+02  0.15020849113E+02 0.  0.
         22    1    3    3    0    0 -0.60068823810E+01  0.42818733221E+02  0.41200516383E+02  0.59724443076E+02  0.00000000000E+00 0. -1.
         22    1    4    4    0    0 -0.19515568809E+01 -0.29000342147E+02  0.13420918696E+02  0.32014832149E+02  0.00000000000E+00 0.  1.
         22    1    4    4    0    0  0.79584392619E+01 -0.13818391074E+02  0.10070616715E+01  0.15978074370E+02  0.00000000000E+00 0.  1.
<mgrwt>
<rscale>  0 0.92241519E+02</rscale>
<asrwt>0</asrwt>
<pdfrwt beam="1">  1        1 0.12565065E-01 0.92241519E+02</pdfrwt>
<pdfrwt beam="2">  1       -1 0.40068348E-02 0.92241519E+02</pdfrwt>
<totfact> 0.97901149E+04</totfact>
</mgrwt>
</event>
<event>
 7    1  0.3607059E-009  0.9006698E+02  0.7818608E-02  0.1302690E+00
          1   -1    0    0  501    0  0.00000000000E+00  0.00000000000E+00  0.32159063612E+03  0.32159063616E+03  0.50400000000E-02 0. -1.
         -1   -1    0    0    0  501 -0.00000000000E+00 -0.00000000000E+00 -0.63062003410E+01  0.63062023550E+01  0.50400000000E-02 0.  1.
         23    2    1    2    0    0  0.00000000000E+00  0.00000000000E+00  0.31528443578E+03  0.32789683852E+03  0.90066982093E+02 0.  0.
    9000005    2    3    3    0    0 -0.26822549650E+02 -0.30439364239E+02  0.22568298719E+03  0.22953819043E+03  0.10438682428E+02 0.  0.
         22    1    3    3    0    0  0.26822549650E+02  0.30439364239E+02  0.89601448587E+02  0.98358648089E+02  0.00000000000E+00 0.  1.
         22    1    4    4    0    0 -0.20270674500E+02 -0.17259151031E+02  0.16226666072E+03  0.16443615089E+03  0.00000000000E+00 0. -1.
         22    1    4    4    0    0 -0.65518751505E+01 -0.13180213208E+02  0.63416326475E+02  0.65102039536E+02  0.00000000000E+00 0. -1.
<mgrwt>
<rscale>  0 0.90066982E+02</rscale>
<asrwt>0</asrwt>
<pdfrwt beam="1">  1        1 0.49475472E-01 0.90066982E+02</pdfrwt>
<pdfrwt beam="2">  1       -1 0.97018503E-03 0.90066982E+02</pdfrwt>
<totfact> 0.13410860E+05</totfact>
</mgrwt>
</event>
<event>
 7    1  0.3607059E-009  0.9035988E+02  0.7818608E-02  0.1301983E+00
         -1   -1    0    0    0  501 -0.00000000000E+00  0.00000000000E+00  0.75202985886E+01  0.75203002775E+01  0.50400000000E-02 0.  1.
          1   -1    0    0  501    0  0.00000000000E+00 -0.00000000000E+00 -0.27142896379E+03  0.27142896384E+03  0.50400000000E-02 0. -1.
         23    2    1    2    0    0  0.00000000000E+00  0.00000000000E+00 -0.26390866521E+03  0.27894926412E+03  0.90359882590E+02 0.  0.
    9000005    2    3    3    0    0 -0.35320063926E+02  0.23591874214E+02 -0.16870509243E+03  0.17470050530E+03  0.15961669644E+02 0.  0.
         22    1    3    3    0    0  0.35320063926E+02 -0.23591874214E+02 -0.95203572779E+02  0.10424875882E+03  0.00000000000E+00 0.  1.
         22    1    4    4    0    0  0.46463054715E+00  0.41936906410E+01 -0.98962562204E+01  0.10758197336E+02  0.00000000000E+00 0.  1.
         22    1    4    4    0    0 -0.35784694473E+02  0.19398183573E+02 -0.15880883621E+03  0.16394230797E+03  0.00000000000E+00 0.  1.
<mgrwt>
<rscale>  0 0.90359883E+02</rscale>
<asrwt>0</asrwt>
<pdfrwt beam="2">  1        1 0.41758295E-01 0.90359883E+02</pdfrwt>
<pdfrwt beam="1">  1       -1 0.11569694E-02 0.90359883E+02</pdfrwt>
<totfact> 0.12872329E+05</totfact>
</mgrwt>
</event>
<event>
 7    1  0.3607059E-009  0.9290368E+02  0.7818608E-02  0.1295969E+00
          1   -1    0    0  501    0  0.00000000000E+00  0.00000000000E+00  0.29259731448E+02  0.29259731882E+02  0.50400000000E-02 0. -1.
         -1   -1    0    0    0  501 -0.00000000000E+00 -0.00000000000E+00 -0.73745501624E+02  0.73745501796E+02  0.50400000000E-02 0.  1.
         23    2    1    2    0    0  0.00000000000E+00  0.00000000000E+00 -0.44485770176E+02  0.10300523368E+03  0.92903683549E+02 0.  0.
    9000005    2    3    3    0    0  0.24414327876E+02  0.32266159236E+02  0.68975436632E+00  0.42358779081E+02  0.12515029631E+02 0.  0.
         22    1    3    3    0    0 -0.24414327876E+02 -0.32266159236E+02 -0.45175524542E+02  0.60646454597E+02  0.00000000000E+00 0.  1.
         22    1    4    4    0    0  0.57166472088E+01  0.10085497295E+01 -0.10277904444E+01  0.58952167953E+01  0.00000000000E+00 0. -1.
         22    1    4    4    0    0  0.18697680668E+02  0.31257609506E+02  0.17175448107E+01  0.36463562286E+02  0.00000000000E+00 0. -1.
<mgrwt>
<rscale>  0 0.92903684E+02</rscale>
<asrwt>0</asrwt>
<pdfrwt beam="1">  1        1 0.45014972E-02 0.92903684E+02</pdfrwt>
<pdfrwt beam="2">  1       -1 0.11345462E-01 0.92903684E+02</pdfrwt>
<totfact> 0.81788104E+04</totfact>
</mgrwt>
</event>
<event>
 7    1  0.3607059E-009  0.9467751E+02  0.7818608E-02  0.1291904E+00
         -1   -1    0    0    0  501 -0.00000000000E+00  0.00000000000E+00  0.26431368330E+02  0.26431368810E+02  0.50400000000E-02 0.  1.
          1   -1    0    0  501    0  0.00000000000E+00 -0.00000000000E+00 -0.84784023526E+02  0.84784023676E+02  0.50400000000E-02 0. -1.
         23    2    1    2    0    0  0.00000000000E+00  0.00000000000E+00 -0.58352655197E+02  0.11121539249E+03  0.94677511360E+02 0.  0.
    9000005    2    3    3    0    0  0.23685241258E+02 -0.29402462400E+02 -0.61771663422E+02  0.73305168721E+02  0.11507124348E+02 0.  0.
         22    1    3    3    0    0 -0.23685241258E+02  0.29402462400E+02  0.34190082249E+01  0.37910223765E+02  0.00000000000E+00 0.  1.
         22    1    4    4    0    0  0.21143247914E+02 -0.19725456322E+02 -0.40129791889E+02  0.49462417617E+02  0.00000000000E+00 0.  1.
         22    1    4    4    0    0  0.25419933441E+01 -0.96770060782E+01 -0.21641871532E+02  0.23842751104E+02  0.00000000000E+00 0.  1.
<mgrwt>
<rscale>  0 0.94677511E+02</rscale>
<asrwt>0</asrwt>
<pdfrwt beam="2">  1        1 0.13043696E-01 0.94677511E+02</pdfrwt>
<pdfrwt beam="1">  1       -1 0.40663644E-02 0.94677511E+02</pdfrwt>
<totfact> 0.91673931E+04</totfact>
</mgrwt>
</event>
<event>
 7    1  0.3607059E-009  0.9010366E+02  0.7818608E-02  0.1302601E+00
         -1   -1    0    0    0  501 -0.00000000000E+00  0.00000000000E+00  0.11119368630E+03  0.11119368641E+03  0.50400000000E-02 0.  1.
          1   -1    0    0  501    0  0.00000000000E+00 -0.00000000000E+00 -0.18253440233E+02  0.18253440928E+02  0.50400000000E-02 0. -1.
         23    2    1    2    0    0 -0.17763568394E-14  0.00000000000E+00  0.92940246066E+02  0.12944712734E+03  0.90103659404E+02 0.  0.
    9000005    2    3    3    0    0  0.15766507466E+02  0.15547418973E+02  0.10255406072E+03  0.10530731735E+03  0.90548728243E+01 0.  0.
         22    1    3    3    0    0 -0.15766507466E+02 -0.15547418973E+02 -0.96138146544E+01  0.24139809996E+02  0.00000000000E+00 0. -1.
         22    1    4    4    0    0  0.15563261361E+02  0.14643460820E+02  0.10202807453E+03  0.10424190156E+03  0.00000000000E+00 0.  1.
         22    1    4    4    0    0  0.20324610533E+00  0.90395815347E+00  0.52598619353E+00  0.10654157866E+01  0.00000000000E+00 0.  1.
<mgrwt>
<rscale>  0 0.90103659E+02</rscale>
<asrwt>0</asrwt>
<pdfrwt beam="2">  1        1 0.28082216E-02 0.90103659E+02</pdfrwt>
<pdfrwt beam="1">  1       -1 0.17106721E-01 0.90103659E+02</pdfrwt>
<totfact> 0.82210787E+04</totfact>
</mgrwt>
</event>
<event>
 7    1  0.3607059E-009  0.9078369E+02  0.7818608E-02  0.1300965E+00
          1   -1    0    0  501    0  0.00000000000E+00  0.00000000000E+00  0.20159059323E+03  0.20159059330E+03  0.50400000000E-02 0. -1.
         -1   -1    0    0    0  501 -0.00000000000E+00 -0.00000000000E+00 -0.10220812025E+02  0.10220813267E+02  0.50400000000E-02 0.  1.
         23    2    1    2    0    0  0.00000000000E+00  0.00000000000E+00  0.19136978121E+03  0.21181140656E+03  0.90783692316E+02 0.  0.
    9000005    2    3    3    0    0  0.56709501818E+01 -0.43481229321E+02  0.78070643860E+02  0.90322841244E+02  0.11849609216E+02 0.  0.
         22    1    3    3    0    0 -0.56709501818E+01  0.43481229321E+02  0.11329913735E+03  0.12148856532E+03  0.00000000000E+00 0.  1.
         22    1    4    4    0    0  0.17655182826E+00 -0.13057845896E+02  0.34579337099E+02  0.36963077040E+02  0.00000000000E+00 0.  1.
         22    1    4    4    0    0  0.54943983535E+01 -0.30423383425E+02  0.43491306760E+02  0.53359764205E+02  0.00000000000E+00 0.  1.
<mgrwt>
<rscale>  0 0.90783692E+02</rscale>
<asrwt>0</asrwt>
<pdfrwt beam="1">  1        1 0.31013935E-01 0.90783692E+02</pdfrwt>
<pdfrwt beam="2">  1       -1 0.15724329E-02 0.90783692E+02</pdfrwt>
<totfact> 0.11996962E+05</totfact>
</mgrwt>
</event>
<event>
 7    1  0.3607059E-009  0.9223060E+02  0.7818608E-02  0.1297538E+00
          1   -1    0    0  501    0  0.00000000000E+00  0.00000000000E+00  0.44270890447E+03  0.44270890450E+03  0.50400000000E-02 0. -1.
         -1   -1    0    0    0  501 -0.00000000000E+00 -0.00000000000E+00 -0.48036534275E+01  0.48036560715E+01  0.50400000000E-02 0.  1.
         23    2    1    2    0    0  0.35527136788E-14  0.00000000000E+00  0.43790525105E+03  0.44751256057E+03  0.92230596754E+02 0.  0.
    9000005    2    3    3    0    0  0.21952798572E+02  0.39104581659E+02  0.26122809687E+03  0.26523280174E+03  0.98603678387E+01 0.  0.
         22    1    3    3    0    0 -0.21952798572E+02 -0.39104581659E+02  0.17667715417E+03  0.18227975883E+03  0.00000000000E+00 0.  1.
         22    1    4    4    0    0  0.18649077301E+02  0.23679201808E+02  0.17164538754E+03  0.17427171814E+03  0.00000000000E+00 0. -1.
         22    1    4    4    0    0  0.33037212709E+01  0.15425379852E+02  0.89582709337E+02  0.90961083601E+02  0.00000000000E+00 0. -1.
<mgrwt>
<rscale>  0 0.92230597E+02</rscale>
<asrwt>0</asrwt>
<pdfrwt beam="1">  1        1 0.68109073E-01 0.92230597E+02</pdfrwt>
<pdfrwt beam="2">  1       -1 0.73902370E-03 0.92230597E+02</pdfrwt>
<totfact> 0.13291548E+05</totfact>
</mgrwt>
</event>
<event>
 7    1  0.3607059E-009  0.9412324E+02  0.7818608E-02  0.1293163E+00
         -1   -1    0    0    0  501 -0.00000000000E+00  0.00000000000E+00  0.11974560534E+03  0.11974560545E+03  0.50400000000E-02 0.  1.
          1   -1    0    0  501    0  0.00000000000E+00 -0.00000000000E+00 -0.18495842215E+02  0.18495842901E+02  0.50400000000E-02 0. -1.
         23    2    1    2    0    0 -0.35527136788E-14  0.00000000000E+00  0.10124976313E+03  0.13824144835E+03  0.94123235753E+02 0.  0.
    9000005    2    3    3    0    0 -0.25676969876E+02 -0.15968526045E+02 -0.10403695793E+01  0.31575746949E+02  0.90357523476E+01 0.  0.
         22    1    3    3    0    0  0.25676969876E+02  0.15968526045E+02  0.10229013271E+03  0.10666570140E+03  0.00000000000E+00 0.  1.
         22    1    4    4    0    0 -0.17542712060E+02 -0.59241040205E+01  0.72804114198E+00  0.18530294082E+02  0.00000000000E+00 0. -1.
         22    1    4    4    0    0 -0.81342578152E+01 -0.10044422025E+02 -0.17684107213E+01  0.13045452867E+02  0.00000000000E+00 0. -1.
<mgrwt>
<rscale>  0 0.94123236E+02</rscale>
<asrwt>0</asrwt>
<pdfrwt beam="2">  1        1 0.28455141E-02 0.94123236E+02</pdfrwt>
<pdfrwt beam="1">  1       -1 0.18422402E-01 0.94123236E+02</pdfrwt>
<totfact> 0.72354923E+04</totfact>
</mgrwt>
</event>
<event>
 7    1  0.3607059E-009  0.9438521E+02  0.7818608E-02  0.1292567E+00
         -1   -1    0    0    0  501 -0.00000000000E+00  0.00000000000E+00  0.83224882155E+02  0.83224882307E+02  0.50400000000E-02 0.  1.
          1   -1    0    0  501    0  0.00000000000E+00 -0.00000000000E+00 -0.26760526902E+02  0.26760527377E+02  0.50400000000E-02 0. -1.
         23    2    1    2    0    0 -0.17763568394E-14  0.35527136788E-14  0.56464355252E+02  0.10998540968E+03  0.94385205034E+02 0.  0.
    9000005    2    3    3    0    0 -0.15481664631E+02  0.25744608826E+02  0.69494427950E+02  0.77240186859E+02  0.15300461647E+02 0.  0.
         22    1    3    3    0    0  0.15481664631E+02 -0.25744608826E+02 -0.13030072697E+02  0.32745222825E+02  0.00000000000E+00 0. -1.
         22    1    4    4    0    0 -0.78616412502E+01  0.14075393048E+02  0.54205893039E+02  0.56552638601E+02  0.00000000000E+00 0. -1.
         22    1    4    4    0    0 -0.76200233810E+01  0.11669215778E+02  0.15288534911E+02  0.20687548258E+02  0.00000000000E+00 0. -1.
<mgrwt>
<rscale>  0 0.94385205E+02</rscale>
<asrwt>0</asrwt>
<pdfrwt beam="2">  1        1 0.41170042E-02 0.94385205E+02</pdfrwt>
<pdfrwt beam="1">  1       -1 0.12803828E-01 0.94385205E+02</pdfrwt>
<totfact> 0.76942283E+04</totfact>
</mgrwt>
</event>
<event>
 7    1  0.3607059E-009  0.9325428E+02  0.7818608E-02  0.1295157E+00
         -1   -1    0    0    0  501 -0.00000000000E+00  0.00000000000E+00  0.52088546981E+02  0.52088547225E+02  0.50400000000E-02 0.  1.
          1   -1    0    0  501    0  0.00000000000E+00 -0.00000000000E+00 -0.41738355731E+02  0.41738356036E+02  0.50400000000E-02 0. -1.
         23    2    1    2    0    0  0.35527136788E-14  0.00000000000E+00  0.10350191250E+02  0.93826903260E+02  0.93254283100E+02 0.  0.
    9000005    2    3    3    0    0  0.22577598410E+02  0.17454349182E+02  0.42192447846E+02  0.51067909347E+02  0.36505416817E+01 0.  0.
         22    1    3    3    0    0 -0.22577598410E+02 -0.17454349182E+02 -0.31842256596E+02  0.42758993913E+02  0.00000000000E+00 0. -1.
         22    1    4    4    0    0  0.22601420734E+02  0.17572762357E+02  0.41856212175E+02  0.50710636889E+02  0.00000000000E+00 0.  1.
         22    1    4    4    0    0 -0.23822323785E-01 -0.11841317547E+00  0.33623567043E+00  0.35727245808E+00  0.00000000000E+00 0.  1.
<mgrwt>
<rscale>  0 0.93254283E+02</rscale>
<asrwt>0</asrwt>
<pdfrwt beam="2">  1        1 0.64212855E-02 0.93254283E+02</pdfrwt>
<pdfrwt beam="1">  1       -1 0.80136227E-02 0.93254283E+02</pdfrwt>
<totfact> 0.85620172E+04</totfact>
</mgrwt>
</event>
<event>
 7    1  0.3607059E-009  0.9119871E+02  0.7818608E-02  0.1299975E+00
          1   -1    0    0  501    0  0.00000000000E+00  0.00000000000E+00  0.35104605611E+02  0.35104605973E+02  0.50400000000E-02 0. -1.
         -1   -1    0    0    0  501 -0.00000000000E+00 -0.00000000000E+00 -0.59231580951E+02  0.59231581166E+02  0.50400000000E-02 0.  1.
         23    2    1    2    0    0 -0.44408920985E-15  0.00000000000E+00 -0.24126975340E+02  0.94336187139E+02  0.91198713065E+02 0.  0.
    9000005    2    3    3    0    0 -0.35015973690E+01  0.34415129060E+02  0.18644036950E+02  0.39326898972E+02  0.15305478119E+01 0.  0.
         22    1    3    3    0    0  0.35015973690E+01 -0.34415129060E+02 -0.42771012290E+02  0.55009288167E+02  0.00000000000E+00 0.  1.
         22    1    4    4    0    0 -0.34040044315E+01  0.28916746462E+02  0.15315851835E+02  0.32898948153E+02  0.00000000000E+00 0. -1.
         22    1    4    4    0    0 -0.97592937573E-01  0.54983825970E+01  0.33281851152E+01  0.64279508185E+01  0.00000000000E+00 0. -1.
<mgrwt>
<rscale>  0 0.91198713E+02</rscale>
<asrwt>0</asrwt>
<pdfrwt beam="1">  1        1 0.54007086E-02 0.91198713E+02</pdfrwt>
<pdfrwt beam="2">  1       -1 0.91125510E-02 0.91198713E+02</pdfrwt>
<totfact> 0.88804481E+04</totfact>
</mgrwt>
</event>
<event>
 7    1  0.3607059E-009  0.9196118E+02  0.7818608E-02  0.1298171E+00
          1   -1    0    0  501    0  0.00000000000E+00  0.00000000000E+00  0.61639362924E+03  0.61639362926E+03  0.50400000000E-02 0. -1.
         -1   -1    0    0    0  501 -0.00000000000E+00 -0.00000000000E+00 -0.34299727256E+01  0.34299764285E+01  0.50400000000E-02 0.  1.
         23    2    1    2    0    0  0.00000000000E+00  0.00000000000E+00  0.61296365651E+03  0.61982360569E+03  0.91961176384E+02 0.  0.
    9000005    2    3    3    0    0 -0.32838795082E+02 -0.97503222577E+01  0.50971513556E+03  0.51104073789E+03  0.13403772641E+02 0.  0.
         22    1    3    3    0    0  0.32838795082E+02  0.97503222577E+01  0.10324852095E+03  0.10878286779E+03  0.00000000000E+00 0.  1.
         22    1    4    4    0    0 -0.25690959736E+00 -0.47192919648E+00  0.76877511175E+02  0.76879388942E+02  0.00000000000E+00 0. -1.
         22    1    4    4    0    0 -0.32581885485E+02 -0.92783930612E+01  0.43283762439E+03  0.43416134895E+03  0.00000000000E+00 0. -1.
<mgrwt>
<rscale>  0 0.91961176E+02</rscale>
<asrwt>0</asrwt>
<pdfrwt beam="1">  1        1 0.94829744E-01 0.91961176E+02</pdfrwt>
<pdfrwt beam="2">  1       -1 0.52768865E-03 0.91961176E+02</pdfrwt>
<totfact> 0.13861528E+05</totfact>
</mgrwt>
</event>
<event>
 7    1  0.3607059E-009  0.9092543E+02  0.7818608E-02  0.1300626E+00
         -1   -1    0    0    0  501 -0.00000000000E+00  0.00000000000E+00  0.44616489523E+02  0.44616489808E+02  0.50400000000E-02 0.  1.
          1   -1    0    0  501    0  0.00000000000E+00 -0.00000000000E+00 -0.46324989467E+02  0.46324989741E+02  0.50400000000E-02 0. -1.
         23    2    1    2    0    0  0.00000000000E+00  0.00000000000E+00 -0.17084999435E+01  0.90941479549E+02  0.90925429504E+02 0.  0.
    9000005    2    3    3    0    0 -0.58579340178E+01 -0.44608191226E+02 -0.37118009846E+00  0.45930430463E+02  0.92336640848E+01 0.  0.
         22    1    3    3    0    0  0.58579340178E+01  0.44608191226E+02 -0.13373198451E+01  0.45011049086E+02  0.00000000000E+00 0.  1.
         22    1    4    4    0    0  0.17960902792E+01 -0.21611594566E+02  0.19302759209E+00  0.21686959668E+02  0.00000000000E+00 0. -1.
         22    1    4    4    0    0 -0.76540242970E+01 -0.22996596660E+02 -0.56420769055E+00  0.24243470795E+02  0.00000000000E+00 0. -1.
<mgrwt>
<rscale>  0 0.90925430E+02</rscale>
<asrwt>0</asrwt>
<pdfrwt beam="2">  1        1 0.71269215E-02 0.90925430E+02</pdfrwt>
<pdfrwt beam="1">  1       -1 0.68640754E-02 0.90925430E+02</pdfrwt>
<totfact> 0.93415978E+04</totfact>
</mgrwt>
</event>
<event>
 7    1  0.3607059E-009  0.9177796E+02  0.7818608E-02  0.1298602E+00
         -1   -1    0    0    0  501 -0.00000000000E+00  0.00000000000E+00  0.22835277664E+01  0.22835333283E+01  0.50400000000E-02 0.  1.
          1   -1    0    0  501    0  0.00000000000E+00 -0.00000000000E+00 -0.92216780467E+03  0.92216780469E+03  0.50400000000E-02 0. -1.
         23    2    1    2    0    0  0.00000000000E+00  0.00000000000E+00 -0.91988427691E+03  0.92445133801E+03  0.91777957364E+02 0.  0.
    9000005    2    3    3    0    0  0.25714952329E+02 -0.17226496458E+02 -0.79909920187E+03  0.79976354669E+03  0.10207116841E+02 0.  0.
         22    1    3    3    0    0 -0.25714952329E+02  0.17226496458E+02 -0.12078507504E+03  0.12468779132E+03  0.00000000000E+00 0.  1.
         22    1    4    4    0    0  0.24605606937E+02 -0.12242799404E+02 -0.67021988404E+03  0.67078313559E+03  0.00000000000E+00 0.  1.
         22    1    4    4    0    0  0.11093453912E+01 -0.49836970541E+01 -0.12887931783E+03  0.12898041110E+03  0.00000000000E+00 0.  1.
<mgrwt>
<rscale>  0 0.91777957E+02</rscale>
<asrwt>0</asrwt>
<pdfrwt beam="2">  1        1 0.14187167E+00 0.91777957E+02</pdfrwt>
<pdfrwt beam="1">  1       -1 0.35131313E-03 0.91777957E+02</pdfrwt>
<totfact> 0.13617112E+05</totfact>
</mgrwt>
</event>
<event>
 7    1  0.3607059E-009  0.8929825E+02  0.7818608E-02  0.1304560E+00
         -1   -1    0    0    0  501 -0.00000000000E+00  0.00000000000E+00  0.36780294238E+02  0.36780294583E+02  0.50400000000E-02 0.  1.
          1   -1    0    0  501    0  0.00000000000E+00 -0.00000000000E+00 -0.54201419007E+02  0.54201419241E+02  0.50400000000E-02 0. -1.
         23    2    1    2    0    0  0.00000000000E+00 -0.35527136788E-14 -0.17421124769E+02  0.90981713824E+02  0.89298245572E+02 0.  0.
    9000005    2    3    3    0    0 -0.11617209997E+02  0.30382545475E+02  0.21424581815E+02  0.40315674334E+02  0.10405875906E+02 0.  0.
         22    1    3    3    0    0  0.11617209997E+02 -0.30382545475E+02 -0.38845706584E+02  0.50666039491E+02  0.00000000000E+00 0. -1.
         22    1    4    4    0    0 -0.54358613793E+01  0.87642961732E+01  0.12296468885E+02  0.16048820000E+02  0.00000000000E+00 0.  1.
         22    1    4    4    0    0 -0.61813486181E+01  0.21618249302E+02  0.91281129306E+01  0.24266854334E+02  0.00000000000E+00 0.  1.
<mgrwt>
<rscale>  0 0.89298246E+02</rscale>
<asrwt>0</asrwt>
<pdfrwt beam="2">  1        1 0.83386800E-02 0.89298246E+02</pdfrwt>
<pdfrwt beam="1">  1       -1 0.56585068E-02 0.89298246E+02</pdfrwt>
<totfact> 0.10055797E+05</totfact>
</mgrwt>
</event>
<event>
 7    1  0.3607059E-009  0.8977642E+02  0.7818608E-02  0.1303394E+00
         -1   -1    0    0    0  501 -0.00000000000E+00  0.00000000000E+00  0.12729740524E+02  0.12729741522E+02  0.50400000000E-02 0.  1.
          1   -1    0    0  501    0  0.00000000000E+00 -0.00000000000E+00 -0.15828692718E+03  0.15828692726E+03  0.50400000000E-02 0. -1.
         23    2    1    2    0    0  0.00000000000E+00  0.00000000000E+00 -0.14555718666E+03  0.17101666879E+03  0.89776424603E+02 0.  0.
    9000005    2    3    3    0    0  0.22107942018E+02  0.39000231297E+02 -0.69424108178E+02  0.82664958104E+02  0.20023387540E+01 0.  0.
         22    1    3    3    0    0 -0.22107942018E+02 -0.39000231297E+02 -0.76133078480E+02  0.88351710682E+02  0.00000000000E+00 0. -1.
         22    1    4    4    0    0  0.94153627303E+00  0.19292397409E+01 -0.26287170427E+01  0.33939077509E+01  0.00000000000E+00 0. -1.
         22    1    4    4    0    0  0.21166405745E+02  0.37070991556E+02 -0.66795391136E+02  0.79271050353E+02  0.00000000000E+00 0. -1.
<mgrwt>
<rscale>  0 0.89776425E+02</rscale>
<asrwt>0</asrwt>
<pdfrwt beam="2">  1        1 0.24351834E-01 0.89776425E+02</pdfrwt>
<pdfrwt beam="1">  1       -1 0.19584218E-02 0.89776425E+02</pdfrwt>
<totfact> 0.11806835E+05</totfact>
</mgrwt>
</event>
<event>
 7    1  0.3607059E-009  0.9036452E+02  0.7818608E-02  0.1301971E+00
         -1   -1    0    0    0  501 -0.00000000000E+00  0.00000000000E+00  0.15611082735E+01  0.15611164093E+01  0.50400000000E-02 0.  1.
          1   -1    0    0  501    0  0.00000000000E+00 -0.00000000000E+00 -0.13076808810E+04  0.13076808810E+04  0.50400000000E-02 0. -1.
         23    2    1    2    0    0  0.00000000000E+00  0.00000000000E+00 -0.13061197727E+04  0.13092419974E+04  0.90364523451E+02 0.  0.
    9000005    2    3    3    0    0  0.93295315129E+01 -0.53564242910E+01 -0.12886106171E+04  0.12886920103E+04  0.96976027553E+01 0.  0.
         22    1    3    3    0    0 -0.93295315129E+01  0.53564242910E+01 -0.17509155640E+02  0.20549987121E+02  0.00000000000E+00 0.  1.
         22    1    4    4    0    0  0.61145274395E+01 -0.28533990295E+01 -0.31227298726E+03  0.31234587864E+03  0.00000000000E+00 0. -1.
         22    1    4    4    0    0  0.32150040734E+01 -0.25030252615E+01 -0.97633762984E+03  0.97634613167E+03  0.00000000000E+00 0. -1.
<mgrwt>
<rscale>  0 0.90364523E+02</rscale>
<asrwt>0</asrwt>
<pdfrwt beam="2">  1        1 0.20118080E+00 0.90364523E+02</pdfrwt>
<pdfrwt beam="1">  1       -1 0.24017218E-03 0.90364523E+02</pdfrwt>
<totfact> 0.12456252E+05</totfact>
</mgrwt>
</event>
<event>
 7    1  0.3607059E-009  0.9060660E+02  0.7818608E-02  0.1301389E+00
          1   -1    0    0  501    0  0.00000000000E+00  0.00000000000E+00  0.24356981256E+02  0.24356981777E+02  0.50400000000E-02 0.  1.
         -1   -1    0    0    0  501 -0.00000000000E+00 -0.00000000000E+00 -0.84262864248E+02  0.84262864399E+02  0.50400000000E-02 0. -1.
         23    2    1    2    0    0  0.00000000000E+00  0.00000000000E+00 -0.59905882993E+02  0.10861984618E+03  0.90606601118E+02 0.  0.
    9000005    2    3    3    0    0  0.36225720366E+01  0.32604703765E+02  0.63150183732E+01  0.34718577489E+02  0.94504195691E+01 0.  0.
         22    1    3    3    0    0 -0.36225720366E+01 -0.32604703765E+02 -0.66220901366E+02  0.73901268687E+02  0.00000000000E+00 0. -1.
         22    1    4    4    0    0  0.54194877709E+01  0.12210909340E+02  0.47776431888E+01  0.14188129865E+02  0.00000000000E+00 0.  1.
         22    1    4    4    0    0 -0.17969157343E+01  0.20393794425E+02  0.15373751844E+01  0.20530447625E+02  0.00000000000E+00 0.  1.
<mgrwt>
<rscale>  0 0.90606601E+02</rscale>
<asrwt>0</asrwt>
<pdfrwt beam="1">  1        1 0.37472280E-02 0.90606601E+02</pdfrwt>
<pdfrwt beam="2">  1       -1 0.12963517E-01 0.90606601E+02</pdfrwt>
<totfact> 0.85263143E+04</totfact>
</mgrwt>
</event>
<event>
 7    1  0.3607059E-009  0.1013146E+03  0.7818608E-02  0.1277556E+00
          1   -1    0    0  501    0  0.00000000000E+00  0.00000000000E+00  0.54597325871E+03  0.54597325873E+03  0.50400000000E-02 0. -1.
         -1   -1    0    0    0  501 -0.00000000000E+00 -0.00000000000E+00 -0.47001624959E+01  0.47001651981E+01  0.50400000000E-02 0.  1.
         23    2    1    2    0    0  0.00000000000E+00  0.00000000000E+00  0.54127309621E+03  0.55067342393E+03  0.10131463438E+03 0.  0.
    9000005    2    3    3    0    0  0.31849075958E+02  0.39125619959E+02  0.28845182535E+03  0.29286773591E+03  0.46773294383E+01 0.  0.
         22    1    3    3    0    0 -0.31849075958E+02 -0.39125619959E+02  0.25282127086E+03  0.25780568802E+03  0.00000000000E+00 0.  1.
         22    1    4    4    0    0  0.19962050631E+02  0.22477773033E+02  0.16051487426E+03  0.16330572128E+03  0.00000000000E+00 0.  1.
         22    1    4    4    0    0  0.11887025327E+02  0.16647846926E+02  0.12793695109E+03  0.12956201462E+03  0.00000000000E+00 0.  1.
<mgrwt>
<rscale>  0 0.10131463E+03</rscale>
<asrwt>0</asrwt>
<pdfrwt beam="1">  1        1 0.83995866E-01 0.10131463E+03</pdfrwt>
<pdfrwt beam="2">  1       -1 0.72310231E-03 0.10131463E+03</pdfrwt>
<totfact> 0.10616307E+05</totfact>
</mgrwt>
</event>
<event>
 7    1  0.3607059E-009  0.9178099E+02  0.7818608E-02  0.1298595E+00
          1   -1    0    0  501    0  0.00000000000E+00  0.00000000000E+00  0.41585195077E+02  0.41585195382E+02  0.50400000000E-02 0. -1.
         -1   -1    0    0    0  501 -0.00000000000E+00 -0.00000000000E+00 -0.50641516713E+02  0.50641516964E+02  0.50400000000E-02 0.  1.
         23    2    1    2    0    0  0.00000000000E+00  0.00000000000E+00 -0.90563216365E+01  0.92226712346E+02  0.91780986640E+02 0.  0.
    9000005    2    3    3    0    0  0.18229342093E+02 -0.14710849544E+02 -0.43306918575E+02  0.50731876545E+02  0.12227677372E+02 0.  0.
         22    1    3    3    0    0 -0.18229342093E+02  0.14710849544E+02  0.34250596938E+02  0.41494835800E+02  0.00000000000E+00 0. -1.
         22    1    4    4    0    0  0.57394865878E+01  0.14699445502E+01 -0.11199008725E+02  0.12669658231E+02  0.00000000000E+00 0. -1.
         22    1    4    4    0    0  0.12489855505E+02 -0.16180794094E+02 -0.32107909850E+02  0.38062218314E+02  0.00000000000E+00 0. -1.
<mgrwt>
<rscale>  0 0.91780987E+02</rscale>
<asrwt>0</asrwt>
<pdfrwt beam="1">  1        1 0.63977224E-02 0.91780987E+02</pdfrwt>
<pdfrwt beam="2">  1       -1 0.77910026E-02 0.91780987E+02</pdfrwt>
<totfact> 0.89514650E+04</totfact>
</mgrwt>
</event>
<event>
 7    1  0.3607059E-009  0.7209435E+02  0.7818608E-02  0.1353113E+00
          1   -1    0    0  501    0  0.00000000000E+00  0.00000000000E+00  0.14489412896E+02  0.14489413772E+02  0.50400000000E-02 0. -1.
         -1   -1    0    0    0  501 -0.00000000000E+00 -0.00000000000E+00 -0.89679179306E+02  0.89679179447E+02  0.50400000000E-02 0.  1.
         23    2    1    2    0    0  0.00000000000E+00  0.00000000000E+00 -0.75189766410E+02  0.10416859322E+03  0.72094346800E+02 0.  0.
    9000005    2    3    3    0    0  0.10704966130E+01  0.11745052305E+02 -0.86062280005E+02  0.88127902195E+02  0.14856610951E+02 0.  0.
         22    1    3    3    0    0 -0.10704966130E+01 -0.11745052305E+02  0.10872513595E+02  0.16040691024E+02  0.00000000000E+00 0. -1.
         22    1    4    4    0    0  0.71061054494E+01  0.69642059716E+01 -0.63812397569E+02  0.64583426535E+02  0.00000000000E+00 0.  1.
         22    1    4    4    0    0 -0.60356088364E+01  0.47808463337E+01 -0.22249882436E+02  0.23544475660E+02  0.00000000000E+00 0.  1.
<mgrwt>
<rscale>  0 0.72094347E+02</rscale>
<asrwt>0</asrwt>
<pdfrwt beam="1">  1        1 0.22291406E-02 0.72094347E+02</pdfrwt>
<pdfrwt beam="2">  1       -1 0.13796797E-01 0.72094347E+02</pdfrwt>
<totfact> 0.15123945E+05</totfact>
</mgrwt>
</event>
<event>
 7    1  0.3607059E-009  0.7569191E+02  0.7818608E-02  0.1341742E+00
         -1   -1    0    0    0  501 -0.00000000000E+00  0.00000000000E+00  0.25572197483E+02  0.25572197980E+02  0.50400000000E-02 0.  1.
          1   -1    0    0  501    0  0.00000000000E+00 -0.00000000000E+00 -0.56010678623E+02  0.56010678850E+02  0.50400000000E-02 0. -1.
         23    2    1    2    0    0  0.00000000000E+00  0.00000000000E+00 -0.30438481140E+02  0.81582876830E+02  0.75691906157E+02 0.  0.
    9000005    2    3    3    0    0  0.43868438258E+01  0.28918890575E+02 -0.39665598983E+02  0.50912266556E+02  0.12773116782E+02 0.  0.
         22    1    3    3    0    0 -0.43868438258E+01 -0.28918890575E+02  0.92271178434E+01  0.30670610274E+02  0.00000000000E+00 0.  1.
         22    1    4    4    0    0  0.81887699881E+01  0.23467581197E+02 -0.34363431869E+02  0.42410243703E+02  0.00000000000E+00 0. -1.
         22    1    4    4    0    0 -0.38019261623E+01  0.54513093785E+01 -0.53021671143E+01  0.85020228529E+01  0.00000000000E+00 0. -1.
<mgrwt>
<rscale>  0 0.75691906E+02</rscale>
<asrwt>0</asrwt>
<pdfrwt beam="2">  1        1 0.86170275E-02 0.75691906E+02</pdfrwt>
<pdfrwt beam="1">  1       -1 0.39341843E-02 0.75691906E+02</pdfrwt>
<totfact> 0.15888432E+05</totfact>
</mgrwt>
</event>
<event>
 7    1  0.3607059E-009  0.9094575E+02  0.7818608E-02  0.1300577E+00
         -1   -1    0    0    0  501 -0.00000000000E+00  0.00000000000E+00  0.48947434386E+01  0.48947460333E+01  0.50400000000E-02 0.  1.
          1   -1    0    0  501    0  0.00000000000E+00 -0.00000000000E+00 -0.42244950758E+03  0.42244950761E+03  0.50400000000E-02 0. -1.
         23    2    1    2    0    0  0.88817841970E-15 -0.17763568394E-14 -0.41755476414E+03  0.42734425365E+03  0.90945753419E+02 0.  0.
    9000005    2    3    3    0    0 -0.70950629467E+01  0.15007360006E+02 -0.40720680293E+03  0.40778304014E+03  0.13930782506E+02 0.  0.
         22    1    3    3    0    0  0.70950629467E+01 -0.15007360006E+02 -0.10347961216E+02  0.19561213508E+02  0.00000000000E+00 0.  1.
         22    1    4    4    0    0 -0.17607067222E+00 -0.23945407315E+01 -0.83885068654E+02  0.83919423075E+02  0.00000000000E+00 0.  1.
         22    1    4    4    0    0 -0.69189922745E+01  0.17401900737E+02 -0.32332173427E+03  0.32386361706E+03  0.00000000000E+00 0.  1.
<mgrwt>
<rscale>  0 0.90945753E+02</rscale>
<asrwt>0</asrwt>
<pdfrwt beam="2">  1        1 0.64992203E-01 0.90945753E+02</pdfrwt>
<pdfrwt beam="1">  1       -1 0.75303799E-03 0.90945753E+02</pdfrwt>
<totfact> 0.13699029E+05</totfact>
</mgrwt>
</event>
<event>
 7    1  0.3607059E-009  0.9188770E+02  0.7818608E-02  0.1298344E+00
         -1   -1    0    0    0  501 -0.00000000000E+00  0.00000000000E+00  0.35910950210E+03  0.35910950214E+03  0.50400000000E-02 0.  1.
          1   -1    0    0  501    0  0.00000000000E+00 -0.00000000000E+00 -0.58779763952E+01  0.58779785559E+01  0.50400000000E-02 0. -1.
         23    2    1    2    0    0  0.00000000000E+00  0.00000000000E+00  0.35323152571E+03  0.36498748069E+03  0.91887704889E+02 0.  0.
    9000005    2    3    3    0    0 -0.34033151955E+02  0.27355405248E+02  0.23097222052E+03  0.23516486581E+03  0.69118619080E+01 0.  0.
         22    1    3    3    0    0  0.34033151955E+02 -0.27355405248E+02  0.12225930519E+03  0.12982261488E+03  0.00000000000E+00 0. -1.
         22    1    4    4    0    0 -0.24752688094E+02  0.23225170948E+02  0.18437006606E+03  0.18746846506E+03  0.00000000000E+00 0.  1.
         22    1    4    4    0    0 -0.92804638608E+01  0.41302343010E+01  0.46602154453E+02  0.47696400750E+02  0.00000000000E+00 0.  1.
<mgrwt>
<rscale>  0 0.91887705E+02</rscale>
<asrwt>0</asrwt>
<pdfrwt beam="2">  1        1 0.90430403E-03 0.91887705E+02</pdfrwt>
<pdfrwt beam="1">  1       -1 0.55247628E-01 0.91887705E+02</pdfrwt>
<totfact> 0.54998989E+04</totfact>
</mgrwt>
</event>
<event>
 7    1  0.3607059E-009  0.8925543E+02  0.7818608E-02  0.1304665E+00
          1   -1    0    0  501    0  0.00000000000E+00  0.00000000000E+00  0.54972841265E+03  0.54972841268E+03  0.50400000000E-02 0.  1.
         -1   -1    0    0    0  501 -0.00000000000E+00 -0.00000000000E+00 -0.36229380764E+01  0.36229415820E+01  0.50400000000E-02 0. -1.
         23    2    1    2    0    0  0.00000000000E+00 -0.88817841970E-15  0.54610547458E+03  0.55335135426E+03  0.89255430629E+02 0.  0.
    9000005    2    3    3    0    0  0.32867818360E+02  0.24300044919E+01  0.45616751972E+03  0.45756495580E+03  0.13808849495E+02 0.  0.
         22    1    3    3    0    0 -0.32867818360E+02 -0.24300044919E+01  0.89937954861E+02  0.95786398461E+02  0.00000000000E+00 0. -1.
         22    1    4    4    0    0  0.22096144967E+02 -0.49904418171E+01  0.28790770174E+03  0.28879748761E+03  0.00000000000E+00 0.  1.
         22    1    4    4    0    0  0.10771673393E+02  0.74204463091E+01  0.16825981798E+03  0.16876746819E+03  0.00000000000E+00 0.  1.
<mgrwt>
<rscale>  0 0.89255431E+02</rscale>
<asrwt>0</asrwt>
<pdfrwt beam="1">  1        1 0.84573638E-01 0.89255431E+02</pdfrwt>
<pdfrwt beam="2">  1       -1 0.55737512E-03 0.89255431E+02</pdfrwt>
<totfact> 0.14880435E+05</totfact>
</mgrwt>
</event>
<event>
 7    1  0.3607059E-009  0.9575875E+02  0.7818608E-02  0.1289476E+00
         -1   -1    0    0    0  501 -0.00000000000E+00  0.00000000000E+00  0.20215327987E+01  0.20215390814E+01  0.50400000000E-02 0. -1.
          1   -1    0    0  501    0  0.00000000000E+00 -0.00000000000E+00 -0.11340063084E+04  0.11340063084E+04  0.50400000000E-02 0.  1.
         23    2    1    2    0    0  0.00000000000E+00  0.00000000000E+00 -0.11319847756E+04  0.11360278475E+04  0.95758749395E+02 0.  0.
    9000005    2    3    3    0    0 -0.53974374635E+01 -0.12052506739E+02 -0.11114404077E+04  0.11116051879E+04  0.13853469103E+02 0.  0.
         22    1    3    3    0    0  0.53974374635E+01  0.12052506739E+02 -0.20544367881E+02  0.24422659591E+02  0.00000000000E+00 0. -1.
         22    1    4    4    0    0  0.39679351190E+01 -0.23551359483E+01 -0.47272385810E+03  0.47274637724E+03  0.00000000000E+00 0. -1.
         22    1    4    4    0    0 -0.93653725825E+01 -0.96973707909E+01 -0.63871654963E+03  0.63885881067E+03  0.00000000000E+00 0. -1.
<mgrwt>
<rscale>  0 0.95758749E+02</rscale>
<asrwt>0</asrwt>
<pdfrwt beam="2">  1        1 0.17446200E+00 0.95758749E+02</pdfrwt>
<pdfrwt beam="1">  1       -1 0.31100644E-03 0.95758749E+02</pdfrwt>
<totfact> 0.11457555E+05</totfact>
</mgrwt>
</event>
<event>
 7    1  0.3607059E-009  0.9138491E+02  0.7818608E-02  0.1299532E+00
         -1   -1    0    0    0  501 -0.00000000000E+00  0.00000000000E+00  0.48180185629E+02  0.48180185892E+02  0.50400000000E-02 0.  1.
          1   -1    0    0  501    0  0.00000000000E+00 -0.00000000000E+00 -0.43333179131E+02  0.43333179424E+02  0.50400000000E-02 0. -1.
         23    2    1    2    0    0 -0.71054273576E-14  0.17763568394E-14  0.48470064981E+01  0.91513365316E+02  0.91384914289E+02 0.  0.
    9000005    2    3    3    0    0  0.38934409653E+02 -0.14454540347E+02 -0.15392152601E+02  0.45313305222E+02  0.95684521596E+01 0.  0.
         22    1    3    3    0    0 -0.38934409653E+02  0.14454540347E+02  0.20239159099E+02  0.46200060095E+02  0.00000000000E+00 0. -1.
         22    1    4    4    0    0  0.22261115250E+02 -0.10313723137E+02 -0.44215460130E+01  0.24929504734E+02  0.00000000000E+00 0. -1.
         22    1    4    4    0    0  0.16673294404E+02 -0.41408172093E+01 -0.10970606588E+02  0.20383800488E+02  0.00000000000E+00 0. -1.
<mgrwt>
<rscale>  0 0.91384914E+02</rscale>
<asrwt>0</asrwt>
<pdfrwt beam="2">  1        1 0.66666430E-02 0.91384914E+02</pdfrwt>
<pdfrwt beam="1">  1       -1 0.74123363E-02 0.91384914E+02</pdfrwt>
<totfact> 0.91181193E+04</totfact>
</mgrwt>
</event>
<event>
 7    1  0.3607059E-009  0.1088498E+03  0.7818608E-02  0.1262715E+00
          1   -1    0    0  501    0  0.00000000000E+00  0.00000000000E+00  0.21103388552E+03  0.21103388558E+03  0.50400000000E-02 0. -1.
         -1   -1    0    0    0  501 -0.00000000000E+00 -0.00000000000E+00 -0.14035994763E+02  0.14035995668E+02  0.50400000000E-02 0.  1.
         23    2    1    2    0    0  0.00000000000E+00  0.00000000000E+00  0.19699789076E+03  0.22506988125E+03  0.10884981618E+03 0.  0.
    9000005    2    3    3    0    0 -0.21674765114E+02 -0.46640603303E+02  0.66496889679E+02  0.84799953603E+02  0.11137974448E+02 0.  0.
         22    1    3    3    0    0  0.21674765114E+02  0.46640603303E+02  0.13050100108E+03  0.14026992764E+03  0.00000000000E+00 0. -1.
         22    1    4    4    0    0  0.55102858040E+00 -0.78007665467E+01  0.11300257016E+02  0.13742321487E+02  0.00000000000E+00 0.  1.
         22    1    4    4    0    0 -0.22225793695E+02 -0.38839836756E+02  0.55196632663E+02  0.71057632116E+02  0.00000000000E+00 0.  1.
<mgrwt>
<rscale>  0 0.10884982E+03</rscale>
<asrwt>0</asrwt>
<pdfrwt beam="1">  1        1 0.32466751E-01 0.10884982E+03</pdfrwt>
<pdfrwt beam="2">  1       -1 0.21593840E-02 0.10884982E+03</pdfrwt>
<totfact> 0.74073706E+04</totfact>
</mgrwt>
</event>
<event>
 7    1  0.3607059E-009  0.9105721E+02  0.7818608E-02  0.1300312E+00
          1   -1    0    0  501    0  0.00000000000E+00  0.00000000000E+00  0.94561433921E+01  0.94561447352E+01  0.50400000000E-02 0. -1.
         -1   -1    0    0    0  501 -0.00000000000E+00 -0.00000000000E+00 -0.21920710845E+03  0.21920710851E+03  0.50400000000E-02 0.  1.
         23    2    1    2    0    0  0.44408920985E-15 -0.35527136788E-14 -0.20975096506E+03  0.22866325324E+03  0.91057213010E+02 0.  0.
    9000005    2    3    3    0    0  0.33185362537E+01  0.30177654387E+02 -0.18901296036E+03  0.19189685084E+03  0.13296566072E+02 0.  0.
         22    1    3    3    0    0 -0.33185362537E+01 -0.30177654387E+02 -0.20738004698E+02  0.36766402408E+02  0.00000000000E+00 0. -1.
         22    1    4    4    0    0  0.76718110256E+00  0.12858251445E+02 -0.12034786026E+03  0.12103524555E+03  0.00000000000E+00 0. -1.
         22    1    4    4    0    0  0.25513551511E+01  0.17319402942E+02 -0.68665100105E+02  0.70861605287E+02  0.00000000000E+00 0. -1.
<mgrwt>
<rscale>  0 0.91057213E+02</rscale>
<asrwt>0</asrwt>
<pdfrwt beam="1">  1        1 0.14547916E-02 0.91057213E+02</pdfrwt>
<pdfrwt beam="2">  1       -1 0.33724167E-01 0.91057213E+02</pdfrwt>
<totfact> 0.67797893E+04</totfact>
</mgrwt>
</event>
<event>
 7    1  0.3607059E-009  0.9349205E+02  0.7818608E-02  0.1294609E+00
         -1   -1    0    0    0  501 -0.00000000000E+00  0.00000000000E+00  0.96860623910E+02  0.96860624041E+02  0.50400000000E-02 0.  1.
          1   -1    0    0  501    0  0.00000000000E+00 -0.00000000000E+00 -0.22560158168E+02  0.22560158731E+02  0.50400000000E-02 0. -1.
         23    2    1    2    0    0 -0.17763568394E-14  0.35527136788E-14  0.74300465742E+02  0.11942078277E+03  0.93492053933E+02 0.  0.
    9000005    2    3    3    0    0  0.94751140961E+01 -0.29371909038E+02 -0.45686679472E+01  0.34728238375E+02  0.15254212079E+02 0.  0.
         22    1    3    3    0    0 -0.94751140961E+01  0.29371909038E+02  0.78869133689E+02  0.84692544398E+02  0.00000000000E+00 0.  1.
         22    1    4    4    0    0 -0.32776729152E+01 -0.29637018629E+01 -0.30372807349E+01  0.53620651558E+01  0.00000000000E+00 0. -1.
         22    1    4    4    0    0  0.12752787011E+02 -0.26408207175E+02 -0.15313872122E+01  0.29366173219E+02  0.00000000000E+00 0. -1.
<mgrwt>
<rscale>  0 0.93492054E+02</rscale>
<asrwt>0</asrwt>
<pdfrwt beam="2">  1        1 0.34707935E-02 0.93492054E+02</pdfrwt>
<pdfrwt beam="1">  1       -1 0.14901635E-01 0.93492054E+02</pdfrwt>
<totfact> 0.76729953E+04</totfact>
</mgrwt>
</event>
<event>
 7    1  0.3607059E-009  0.9127209E+02  0.7818608E-02  0.1299800E+00
         -1   -1    0    0    0  501 -0.00000000000E+00  0.00000000000E+00  0.10256195566E+03  0.10256195579E+03  0.50400000000E-02 0.  1.
          1   -1    0    0  501    0  0.00000000000E+00 -0.00000000000E+00 -0.20306246463E+02  0.20306247088E+02  0.50400000000E-02 0. -1.
         23    2    1    2    0    0  0.00000000000E+00  0.35527136788E-14  0.82255709199E+02  0.12286820287E+03  0.91272085446E+02 0.  0.
    9000005    2    3    3    0    0  0.31577303867E+02  0.29136643581E+02  0.57024242410E+02  0.73041532957E+02  0.15402311373E+02 0.  0.
         22    1    3    3    0    0 -0.31577303867E+02 -0.29136643581E+02  0.25231466790E+02  0.49826669917E+02  0.00000000000E+00 0. -1.
         22    1    4    4    0    0  0.23327548330E+02  0.14287453986E+02  0.26372990575E+02  0.37997901052E+02  0.00000000000E+00 0.  1.
         22    1    4    4    0    0  0.82497555370E+01  0.14849189595E+02  0.30651251834E+02  0.35043631905E+02  0.00000000000E+00 0.  1.
<mgrwt>
<rscale>  0 0.91272085E+02</rscale>
<asrwt>0</asrwt>
<pdfrwt beam="2">  1        1 0.31240380E-02 0.91272085E+02</pdfrwt>
<pdfrwt beam="1">  1       -1 0.15778763E-01 0.91272085E+02</pdfrwt>
<totfact> 0.80768546E+04</totfact>
</mgrwt>
</event>
<event>
 7    1  0.3607059E-009  0.9079070E+02  0.7818608E-02  0.1300948E+00
         -1   -1    0    0    0  501 -0.00000000000E+00  0.00000000000E+00  0.10660636656E+03  0.10660636668E+03  0.50400000000E-02 0. -1.
          1   -1    0    0  501    0  0.00000000000E+00 -0.00000000000E+00 -0.19330344174E+02  0.19330344831E+02  0.50400000000E-02 0.  1.
         23    2    1    2    0    0  0.00000000000E+00  0.35527136788E-14  0.87276022388E+02  0.12593671151E+03  0.90790700088E+02 0.  0.
    9000005    2    3    3    0    0 -0.38613907077E+01  0.21986027299E+02 -0.81213575098E+01  0.27962450474E+02  0.14752845628E+02 0.  0.
         22    1    3    3    0    0  0.38613907077E+01 -0.21986027299E+02  0.95397379898E+02  0.97974261038E+02  0.00000000000E+00 0. -1.
         22    1    4    4    0    0 -0.28789205142E+01  0.11883793980E+02  0.33176200696E+01  0.12669622947E+02  0.00000000000E+00 0. -1.
         22    1    4    4    0    0 -0.98247019348E+00  0.10102233318E+02 -0.11438977579E+02  0.15292827527E+02  0.00000000000E+00 0. -1.
<mgrwt>
<rscale>  0 0.90790700E+02</rscale>
<asrwt>0</asrwt>
<pdfrwt beam="2">  1        1 0.29738991E-02 0.90790700E+02</pdfrwt>
<pdfrwt beam="1">  1       -1 0.16400980E-01 0.90790700E+02</pdfrwt>
<totfact> 0.81277717E+04</totfact>
</mgrwt>
</event>
<event>
 7    1  0.3607059E-009  0.9216142E+02  0.7818608E-02  0.1297700E+00
          1   -1    0    0  501    0  0.00000000000E+00  0.00000000000E+00  0.10888265771E+03  0.10888265783E+03  0.50400000000E-02 0. -1.
         -1   -1    0    0    0  501 -0.00000000000E+00 -0.00000000000E+00 -0.19502018646E+02  0.19502019297E+02  0.50400000000E-02 0.  1.
         23    2    1    2    0    0  0.17763568394E-14  0.71054273576E-14  0.89380639068E+02  0.12838467713E+03  0.92161416444E+02 0.  0.
    9000005    2    3    3    0    0  0.14476619701E+02  0.43211107699E+02  0.50585192060E+02  0.68536042598E+02  0.78457079187E+01 0.  0.
         22    1    3    3    0    0 -0.14476619701E+02 -0.43211107699E+02  0.38795447008E+02  0.59848634530E+02  0.00000000000E+00 0. -1.
         22    1    4    4    0    0  0.37115016169E+01  0.21210097758E+02  0.26983250317E+02  0.34521577149E+02  0.00000000000E+00 0.  1.
         22    1    4    4    0    0  0.10765118084E+02  0.22001009940E+02  0.23601941743E+02  0.34014465449E+02  0.00000000000E+00 0.  1.
<mgrwt>
<rscale>  0 0.92161416E+02</rscale>
<asrwt>0</asrwt>
<pdfrwt beam="1">  1        1 0.16751178E-01 0.92161416E+02</pdfrwt>
<pdfrwt beam="2">  1       -1 0.30003107E-02 0.92161416E+02</pdfrwt>
<totfact> 0.10290081E+05</totfact>
</mgrwt>
</event>
<event>
 7    1  0.3607059E-009  0.9251559E+02  0.7818608E-02  0.1296872E+00
         -1   -1    0    0    0  501 -0.00000000000E+00  0.00000000000E+00  0.10589942414E+02  0.10589943614E+02  0.50400000000E-02 0.  1.
          1   -1    0    0  501    0  0.00000000000E+00 -0.00000000000E+00 -0.20205810166E+03  0.20205810172E+03  0.50400000000E-02 0. -1.
         23    2    1    2    0    0  0.00000000000E+00  0.00000000000E+00 -0.19146815924E+03  0.21264804533E+03  0.92515594255E+02 0.  0.
    9000005    2    3    3    0    0  0.31917370382E+02 -0.10482322323E+02 -0.16766441418E+03  0.17147504578E+03  0.12796012205E+02 0.  0.
         22    1    3    3    0    0 -0.31917370382E+02  0.10482322323E+02 -0.23803745059E+02  0.41172999553E+02  0.00000000000E+00 0.  1.
         22    1    4    4    0    0  0.18236930627E+01 -0.29585391668E+01 -0.66879558496E+01  0.75370792642E+01  0.00000000000E+00 0. -1.
         22    1    4    4    0    0  0.30093677319E+02 -0.75237831565E+01 -0.16097645834E+03  0.16393796652E+03  0.00000000000E+00 0. -1.
<mgrwt>
<rscale>  0 0.92515594E+02</rscale>
<asrwt>0</asrwt>
<pdfrwt beam="2">  1        1 0.31085859E-01 0.92515594E+02</pdfrwt>
<pdfrwt beam="1">  1       -1 0.16292222E-02 0.92515594E+02</pdfrwt>
<totfact> 0.11408693E+05</totfact>
</mgrwt>
</event>
<event>
 7    1  0.3607059E-009  0.7557903E+02  0.7818608E-02  0.1342087E+00
          1   -1    0    0  501    0  0.00000000000E+00  0.00000000000E+00  0.20705719152E+02  0.20705719765E+02  0.50400000000E-02 0. -1.
         -1   -1    0    0    0  501 -0.00000000000E+00 -0.00000000000E+00 -0.68968734130E+02  0.68968734314E+02  0.50400000000E-02 0.  1.
         23    2    1    2    0    0  0.00000000000E+00  0.00000000000E+00 -0.48263014978E+02  0.89674454080E+02  0.75579025528E+02 0.  0.
    9000005    2    3    3    0    0  0.22479807585E+02 -0.23888987774E+02 -0.46349034182E+02  0.56815835599E+02  0.19444071839E+01 0.  0.
         22    1    3    3    0    0 -0.22479807585E+02  0.23888987774E+02 -0.19139807966E+01  0.32858618480E+02  0.00000000000E+00 0. -1.
         22    1    4    4    0    0  0.16593551392E+02 -0.16429255818E+02 -0.33473146436E+02  0.40813207750E+02  0.00000000000E+00 0.  1.
         22    1    4    4    0    0  0.58862561934E+01 -0.74597319561E+01 -0.12875887746E+02  0.16002627849E+02  0.00000000000E+00 0.  1.
<mgrwt>
<rscale>  0 0.75579026E+02</rscale>
<asrwt>0</asrwt>
<pdfrwt beam="1">  1        1 0.31854954E-02 0.75579026E+02</pdfrwt>
<pdfrwt beam="2">  1       -1 0.10610574E-01 0.75579026E+02</pdfrwt>
<totfact> 0.13975892E+05</totfact>
</mgrwt>
</event>
<event>
 7    1  0.3607059E-009  0.9463649E+02  0.7818608E-02  0.1291997E+00
         -1   -1    0    0    0  501 -0.00000000000E+00  0.00000000000E+00  0.14745423587E+03  0.14745423596E+03  0.50400000000E-02 0.  1.
          1   -1    0    0  501    0  0.00000000000E+00 -0.00000000000E+00 -0.15184481122E+02  0.15184481958E+02  0.50400000000E-02 0. -1.
         23    2    1    2    0    0  0.00000000000E+00  0.00000000000E+00  0.13226975475E+03  0.16263871791E+03  0.94636486323E+02 0.  0.
    9000005    2    3    3    0    0  0.30470192267E+02  0.24573225648E+02  0.24529292849E+02  0.48007643742E+02  0.13067961376E+02 0.  0.
         22    1    3    3    0    0 -0.30470192267E+02 -0.24573225648E+02  0.10774046190E+03  0.11463107417E+03  0.00000000000E+00 0.  1.
         22    1    4    4    0    0  0.91196606165E+01  0.11148881970E+02  0.27046961111E+01  0.14655414016E+02  0.00000000000E+00 0.  1.
         22    1    4    4    0    0  0.21350531650E+02  0.13424343678E+02  0.21824596737E+02  0.33352229726E+02  0.00000000000E+00 0.  1.
<mgrwt>
<rscale>  0 0.94636486E+02</rscale>
<asrwt>0</asrwt>
<pdfrwt beam="2">  1        1 0.23360742E-02 0.94636486E+02</pdfrwt>
<pdfrwt beam="1">  1       -1 0.22685266E-01 0.94636486E+02</pdfrwt>
<totfact> 0.68159359E+04</totfact>
</mgrwt>
</event>
<event>
 7    1  0.3607059E-009  0.9383152E+02  0.7818608E-02  0.1293830E+00
          1   -1    0    0  501    0  0.00000000000E+00  0.00000000000E+00  0.22818935306E+02  0.22818935862E+02  0.50400000000E-02 0. -1.
         -1   -1    0    0    0  501 -0.00000000000E+00 -0.00000000000E+00 -0.96458854842E+02  0.96458854974E+02  0.50400000000E-02 0.  1.
         23    2    1    2    0    0  0.00000000000E+00  0.00000000000E+00 -0.73639919536E+02  0.11927779084E+03  0.93831517293E+02 0.  0.
    9000005    2    3    3    0    0  0.94365141408E+01 -0.37783823757E+02 -0.39898175521E+01  0.39479283061E+02  0.51019613954E+01 0.  0.
         22    1    3    3    0    0 -0.94365141408E+01  0.37783823757E+02 -0.69650101984E+02  0.79798507776E+02  0.00000000000E+00 0.  1.
         22    1    4    4    0    0  0.45556874807E+01 -0.27104382112E+02 -0.18752948777E+01  0.27548476345E+02  0.00000000000E+00 0.  1.
         22    1    4    4    0    0  0.48808266602E+01 -0.10679441645E+02 -0.21145226745E+01  0.11930806715E+02  0.00000000000E+00 0.  1.
<mgrwt>
<rscale>  0 0.93831517E+02</rscale>
<asrwt>0</asrwt>
<pdfrwt beam="1">  1        1 0.35106055E-02 0.93831517E+02</pdfrwt>
<pdfrwt beam="2">  1       -1 0.14839824E-01 0.93831517E+02</pdfrwt>
<totfact> 0.76074993E+04</totfact>
</mgrwt>
</event>
<event>
 7    1  0.3607059E-009  0.9174063E+02  0.7818608E-02  0.1298690E+00
         -1   -1    0    0    0  501 -0.00000000000E+00  0.00000000000E+00  0.93371521643E+01  0.93371535245E+01  0.50400000000E-02 0.  1.
          1   -1    0    0  501    0  0.00000000000E+00 -0.00000000000E+00 -0.22534553170E+03  0.22534553176E+03  0.50400000000E-02 0. -1.
         23    2    1    2    0    0  0.00000000000E+00  0.35527136788E-14 -0.21600837954E+03  0.23468268529E+03  0.91740627539E+02 0.  0.
    9000005    2    3    3    0    0  0.17739844505E+02  0.24570120120E+02 -0.19527218132E+03  0.19796235301E+03  0.11809975707E+02 0.  0.
         22    1    3    3    0    0 -0.17739844505E+02 -0.24570120120E+02 -0.20736198220E+02  0.36720332275E+02  0.00000000000E+00 0.  1.
         22    1    4    4    0    0  0.52532736622E+01  0.63835303800E+01 -0.91414782644E+02  0.91787846854E+02  0.00000000000E+00 0.  1.
         22    1    4    4    0    0  0.12486570842E+02  0.18186589740E+02 -0.10385739868E+03  0.10617450616E+03  0.00000000000E+00 0.  1.
<mgrwt>
<rscale>  0 0.91740628E+02</rscale>
<asrwt>0</asrwt>
<pdfrwt beam="2">  1        1 0.34668539E-01 0.91740628E+02</pdfrwt>
<pdfrwt beam="1">  1       -1 0.14364852E-02 0.91740628E+02</pdfrwt>
<totfact> 0.11920496E+05</totfact>
</mgrwt>
</event>
<event>
 7    1  0.3607059E-009  0.9122743E+02  0.7818608E-02  0.1299906E+00
         -1   -1    0    0    0  501 -0.00000000000E+00  0.00000000000E+00  0.23583654771E+03  0.23583654776E+03  0.50400000000E-02 0.  1.
          1   -1    0    0  501    0  0.00000000000E+00 -0.00000000000E+00 -0.88222574085E+01  0.88222588481E+01  0.50400000000E-02 0. -1.
         23    2    1    2    0    0  0.00000000000E+00  0.00000000000E+00  0.22701429030E+03  0.24465880661E+03  0.91227428177E+02 0.  0.
    9000005    2    3    3    0    0 -0.13981249885E+02 -0.39390484208E+02  0.15952899138E+03  0.16527775620E+03  0.10961387147E+02 0.  0.
         22    1    3    3    0    0  0.13981249885E+02  0.39390484208E+02  0.67485298919E+02  0.79381050413E+02  0.00000000000E+00 0. -1.
         22    1    4    4    0    0 -0.88499674046E+01 -0.31235502443E+02  0.10501132163E+03  0.10991522281E+03  0.00000000000E+00 0. -1.
         22    1    4    4    0    0 -0.51312824803E+01 -0.81549817655E+01  0.54517669757E+02  0.55362533389E+02  0.00000000000E+00 0. -1.
<mgrwt>
<rscale>  0 0.91227428E+02</rscale>
<asrwt>0</asrwt>
<pdfrwt beam="2">  1        1 0.13572704E-02 0.91227428E+02</pdfrwt>
<pdfrwt beam="1">  1       -1 0.36282547E-01 0.91227428E+02</pdfrwt>
<totfact> 0.65932735E+04</totfact>
</mgrwt>
</event>
<event>
 7    1  0.3607059E-009  0.8879989E+02  0.7818608E-02  0.1305784E+00
          1   -1    0    0  501    0  0.00000000000E+00  0.00000000000E+00  0.85550800363E+01  0.85550815208E+01  0.50400000000E-02 0. -1.
         -1   -1    0    0    0  501 -0.00000000000E+00 -0.00000000000E+00 -0.23043093698E+03  0.23043093704E+03  0.50400000000E-02 0.  1.
         23    2    1    2    0    0  0.00000000000E+00  0.00000000000E+00 -0.22187585695E+03  0.23898601856E+03  0.88799893980E+02 0.  0.
    9000005    2    3    3    0    0 -0.12746321485E+02 -0.32419434743E+02 -0.18447545864E+03  0.18787556705E+03  0.72488199879E+01 0.  0.
         22    1    3    3    0    0  0.12746321485E+02  0.32419434743E+02 -0.37400398303E+02  0.51110451511E+02  0.00000000000E+00 0. -1.
         22    1    4    4    0    0 -0.67786355398E+01 -0.84317237684E+01 -0.60537705004E+02  0.61496809614E+02  0.00000000000E+00 0.  1.
         22    1    4    4    0    0 -0.59676859450E+01 -0.23987710975E+02 -0.12393775364E+03  0.12637875743E+03  0.00000000000E+00 0.  1.
<mgrwt>
<rscale>  0 0.88799894E+02</rscale>
<asrwt>0</asrwt>
<pdfrwt beam="1">  1        1 0.13161665E-02 0.88799894E+02</pdfrwt>
<pdfrwt beam="2">  1       -1 0.35450909E-01 0.88799894E+02</pdfrwt>
<totfact> 0.71260677E+04</totfact>
</mgrwt>
</event>
<event>
 7    1  0.3607059E-009  0.5931175E+02  0.7818608E-02  0.1400743E+00
          1   -1    0    0  501    0  0.00000000000E+00  0.00000000000E+00  0.17939259857E+03  0.17939259864E+03  0.50400000000E-02 0. -1.
         -1   -1    0    0    0  501 -0.00000000000E+00 -0.00000000000E+00 -0.49024918805E+01  0.49024944712E+01  0.50400000000E-02 0.  1.
         23    2    1    2    0    0  0.00000000000E+00  0.00000000000E+00  0.17449010669E+03  0.18429509311E+03  0.59311752736E+02 0.  0.
    9000005    2    3    3    0    0 -0.27877961300E+02 -0.71103397241E+01  0.87422562161E+02  0.92597247077E+02  0.10188627688E+02 0.  0.
         22    1    3    3    0    0  0.27877961300E+02  0.71103397241E+01  0.87067544527E+02  0.91697846034E+02  0.00000000000E+00 0. -1.
         22    1    4    4    0    0 -0.13985512882E+02 -0.63585497106E+01  0.32628184924E+02  0.36064167485E+02  0.00000000000E+00 0.  1.
         22    1    4    4    0    0 -0.13892448419E+02 -0.75179001348E+00  0.54794377238E+02  0.56533079592E+02  0.00000000000E+00 0.  1.
<mgrwt>
<rscale>  0 0.59311753E+02</rscale>
<asrwt>0</asrwt>
<pdfrwt beam="1">  1        1 0.27598851E-01 0.59311753E+02</pdfrwt>
<pdfrwt beam="2">  1       -1 0.75423001E-03 0.59311753E+02</pdfrwt>
<totfact> 0.35800185E+05</totfact>
</mgrwt>
</event>
<event>
 7    1  0.3607059E-009  0.9189480E+02  0.7818608E-02  0.1298327E+00
          1   -1    0    0  501    0  0.00000000000E+00  0.00000000000E+00  0.12253061715E+03  0.12253061725E+03  0.50400000000E-02 0. -1.
         -1   -1    0    0    0  501 -0.00000000000E+00 -0.00000000000E+00 -0.17229681839E+02  0.17229682576E+02  0.50400000000E-02 0.  1.
         23    2    1    2    0    0  0.00000000000E+00  0.00000000000E+00  0.10530093531E+03  0.13976029983E+03  0.91894800894E+02 0.  0.
    9000005    2    3    3    0    0  0.84821011716E+01 -0.27289166713E+02  0.49477595531E-01  0.30698326570E+02  0.11213391368E+02 0.  0.
         22    1    3    3    0    0 -0.84821011716E+01  0.27289166713E+02  0.10525145772E+03  0.10906197326E+03  0.00000000000E+00 0. -1.
         22    1    4    4    0    0  0.10215837050E+02 -0.25239870148E+02 -0.20275178102E+01  0.27304307356E+02  0.00000000000E+00 0.  1.
         22    1    4    4    0    0 -0.17337358783E+01 -0.20492965652E+01  0.20769954057E+01  0.33940192138E+01  0.00000000000E+00 0.  1.
<mgrwt>
<rscale>  0 0.91894801E+02</rscale>
<asrwt>0</asrwt>
<pdfrwt beam="1">  1        1 0.18850865E-01 0.91894801E+02</pdfrwt>
<pdfrwt beam="2">  1       -1 0.26507203E-02 0.91894801E+02</pdfrwt>
<totfact> 0.10585366E+05</totfact>
</mgrwt>
</event>
<event>
 7    1  0.3607059E-009  0.9501559E+02  0.7818608E-02  0.1291141E+00
          1   -1    0    0  501    0  0.00000000000E+00  0.00000000000E+00  0.51914464161E+03  0.51914464163E+03  0.50400000000E-02 0. -1.
         -1   -1    0    0    0  501 -0.00000000000E+00 -0.00000000000E+00 -0.43475159909E+01  0.43475189122E+01  0.50400000000E-02 0.  1.
         23    2    1    2    0    0  0.00000000000E+00  0.00000000000E+00  0.51479712562E+03  0.52349216055E+03  0.95015586133E+02 0.  0.
    9000005    2    3    3    0    0  0.43734907211E+02  0.14887395939E+02  0.28196731795E+03  0.28612304713E+03  0.15048356672E+02 0.  0.
         22    1    3    3    0    0 -0.43734907211E+02 -0.14887395939E+02  0.23282980767E+03  0.23736911342E+03  0.00000000000E+00 0.  1.
         22    1    4    4    0    0  0.22764954759E+02  0.78952838266E+01  0.10221166114E+03  0.10501334365E+03  0.00000000000E+00 0. -1.
         22    1    4    4    0    0  0.20969952452E+02  0.69921121123E+01  0.17975565681E+03  0.18110970348E+03  0.00000000000E+00 0. -1.
<mgrwt>
<rscale>  0 0.95015586E+02</rscale>
<asrwt>0</asrwt>
<pdfrwt beam="1">  1        1 0.79868393E-01 0.95015586E+02</pdfrwt>
<pdfrwt beam="2">  1       -1 0.66884895E-03 0.95015586E+02</pdfrwt>
<totfact> 0.12535073E+05</totfact>
</mgrwt>
</event>
<event>
 7    1  0.3607059E-009  0.9164168E+02  0.7818608E-02  0.1298924E+00
         -1   -1    0    0    0  501 -0.00000000000E+00  0.00000000000E+00  0.93297323175E+02  0.93297323311E+02  0.50400000000E-02 0.  1.
          1   -1    0    0  501    0  0.00000000000E+00 -0.00000000000E+00 -0.22503853439E+02  0.22503854003E+02  0.50400000000E-02 0. -1.
         23    2    1    2    0    0 -0.22204460493E-15  0.00000000000E+00  0.70793469736E+02  0.11580117731E+03  0.91641678892E+02 0.  0.
    9000005    2    3    3    0    0 -0.19612628507E+01  0.26444425615E+02 -0.10174964470E+02  0.30601168302E+02  0.11390671683E+02 0.  0.
         22    1    3    3    0    0  0.19612628507E+01 -0.26444425615E+02  0.80968434205E+02  0.85200009013E+02  0.00000000000E+00 0.  1.
         22    1    4    4    0    0  0.37133067037E+01  0.78010340567E+01 -0.63977404486E+01  0.10750621465E+02  0.00000000000E+00 0. -1.
         22    1    4    4    0    0 -0.56745695544E+01  0.18643391558E+02 -0.37772240211E+01  0.19850546837E+02  0.00000000000E+00 0. -1.
<mgrwt>
<rscale>  0 0.91641679E+02</rscale>
<asrwt>0</asrwt>
<pdfrwt beam="2">  1        1 0.34621313E-02 0.91641679E+02</pdfrwt>
<pdfrwt beam="1">  1       -1 0.14353435E-01 0.91641679E+02</pdfrwt>
<totfact> 0.81338827E+04</totfact>
</mgrwt>
</event>
<event>
 7    1  0.3607059E-009  0.9131175E+02  0.7818608E-02  0.1299706E+00
         -1   -1    0    0    0  501 -0.00000000000E+00  0.00000000000E+00  0.28308215722E+02  0.28308216171E+02  0.50400000000E-02 0.  1.
          1   -1    0    0  501    0  0.00000000000E+00 -0.00000000000E+00 -0.73634412036E+02  0.73634412209E+02  0.50400000000E-02 0. -1.
         23    2    1    2    0    0  0.00000000000E+00 -0.35527136788E-14 -0.45326196314E+02  0.10194262838E+03  0.91311748470E+02 0.  0.
    9000005    2    3    3    0    0 -0.18132136933E+02 -0.31710625009E+02  0.67640185607E+01  0.38320866270E+02  0.94020591559E+01 0.  0.
         22    1    3    3    0    0  0.18132136933E+02  0.31710625009E+02 -0.52090214875E+02  0.63621762110E+02  0.00000000000E+00 0. -1.
         22    1    4    4    0    0 -0.73185340246E+01 -0.16343927349E+02 -0.11223938868E+01  0.17942816655E+02  0.00000000000E+00 0.  1.
         22    1    4    4    0    0 -0.10813602909E+02 -0.15366697659E+02  0.78864124475E+01  0.20378049615E+02  0.00000000000E+00 0.  1.
<mgrwt>
<rscale>  0 0.91311748E+02</rscale>
<asrwt>0</asrwt>
<pdfrwt beam="2">  1        1 0.11328371E-01 0.91311748E+02</pdfrwt>
<pdfrwt beam="1">  1       -1 0.43551102E-02 0.91311748E+02</pdfrwt>
<totfact> 0.99039619E+04</totfact>
</mgrwt>
</event>
<event>
 7    1  0.3607059E-009  0.9427346E+02  0.7818608E-02  0.1292821E+00
          1   -1    0    0  501    0  0.00000000000E+00  0.00000000000E+00  0.14603995967E+03  0.14603995975E+03  0.50400000000E-02 0. -1.
         -1   -1    0    0    0  501 -0.00000000000E+00 -0.00000000000E+00 -0.15214133344E+02  0.15214134179E+02  0.50400000000E-02 0.  1.
         23    2    1    2    0    0  0.00000000000E+00  0.00000000000E+00  0.13082582632E+03  0.16125409393E+03  0.94273463800E+02 0.  0.
    9000005    2    3    3    0    0  0.10852907527E+02  0.24120851676E+02  0.13139420079E+03  0.13479801454E+03  0.14368981698E+02 0.  0.
         22    1    3    3    0    0 -0.10852907527E+02 -0.24120851676E+02 -0.56837446680E+00  0.26456079394E+02  0.00000000000E+00 0.  1.
         22    1    4    4    0    0  0.93836806097E+00  0.18052299636E+02  0.68896492101E+02  0.71228454150E+02  0.00000000000E+00 0. -1.
         22    1    4    4    0    0  0.99145394656E+01  0.60685520401E+01  0.62497708689E+02  0.63569560389E+02  0.00000000000E+00 0. -1.
<mgrwt>
<rscale>  0 0.94273464E+02</rscale>
<asrwt>0</asrwt>
<pdfrwt beam="1">  1        1 0.22467686E-01 0.94273464E+02</pdfrwt>
<pdfrwt beam="2">  1       -1 0.23406359E-02 0.94273464E+02</pdfrwt>
<totfact> 0.10193877E+05</totfact>
</mgrwt>
</event>
<event>
 7    1  0.3607059E-009  0.9861534E+02  0.7818608E-02  0.1283235E+00
         -1   -1    0    0    0  501 -0.00000000000E+00  0.00000000000E+00  0.44876479642E+01  0.44876507944E+01  0.50400000000E-02 0.  1.
          1   -1    0    0  501    0  0.00000000000E+00 -0.00000000000E+00 -0.54176387613E+03  0.54176387615E+03  0.50400000000E-02 0. -1.
         23    2    1    2    0    0  0.00000000000E+00  0.00000000000E+00 -0.53727622817E+03  0.54625152695E+03  0.98615340291E+02 0.  0.
    9000005    2    3    3    0    0 -0.21532150774E+02 -0.13791438737E+02 -0.50201257642E+03  0.50269280297E+03  0.54396676108E+01 0.  0.
         22    1    3    3    0    0  0.21532150774E+02  0.13791438737E+02 -0.35263651750E+02  0.43558723973E+02  0.00000000000E+00 0.  1.
         22    1    4    4    0    0 -0.13676187518E+02 -0.74281141488E+01 -0.25605504429E+03  0.25652758271E+03  0.00000000000E+00 0. -1.
         22    1    4    4    0    0 -0.78559632559E+01 -0.63633245886E+01 -0.24595753212E+03  0.24616522026E+03  0.00000000000E+00 0. -1.
<mgrwt>
<rscale>  0 0.98615340E+02</rscale>
<asrwt>0</asrwt>
<pdfrwt beam="2">  1        1 0.83348237E-01 0.98615340E+02</pdfrwt>
<pdfrwt beam="1">  1       -1 0.69040803E-03 0.98615340E+02</pdfrwt>
<totfact> 0.11402315E+05</totfact>
</mgrwt>
</event>
<event>
 7    1  0.3607059E-009  0.9207387E+02  0.7818608E-02  0.1297906E+00
          1   -1    0    0  501    0  0.00000000000E+00  0.00000000000E+00  0.92919763470E+02  0.92919763607E+02  0.50400000000E-02 0. -1.
         -1   -1    0    0    0  501 -0.00000000000E+00 -0.00000000000E+00 -0.22808917690E+02  0.22808918247E+02  0.50400000000E-02 0.  1.
         23    2    1    2    0    0  0.71054273576E-14  0.00000000000E+00  0.70110845780E+02  0.11572868185E+03  0.92073867670E+02 0.  0.
    9000005    2    3    3    0    0 -0.33984302577E+02 -0.30300313205E+02  0.42152115342E+02  0.62298985902E+02  0.55965180778E+01 0.  0.
         22    1    3    3    0    0  0.33984302577E+02  0.30300313205E+02  0.27958730437E+02  0.53429695953E+02  0.00000000000E+00 0. -1.
         22    1    4    4    0    0 -0.29880276743E+02 -0.24844614264E+02  0.33724668558E+02  0.51453270698E+02  0.00000000000E+00 0.  1.
         22    1    4    4    0    0 -0.41040258337E+01 -0.54556989408E+01  0.84274467841E+01  0.10845715203E+02  0.00000000000E+00 0.  1.
<mgrwt>
<rscale>  0 0.92073868E+02</rscale>
<asrwt>0</asrwt>
<pdfrwt beam="1">  1        1 0.14295348E-01 0.92073868E+02</pdfrwt>
<pdfrwt beam="2">  1       -1 0.35090643E-02 0.92073868E+02</pdfrwt>
<totfact> 0.10046747E+05</totfact>
</mgrwt>
</event>
<event>
 7    1  0.3607059E-009  0.8219546E+02  0.7818608E-02  0.1322934E+00
          1   -1    0    0  501    0  0.00000000000E+00  0.00000000000E+00  0.11516578209E+03  0.11516578220E+03  0.50400000000E-02 0. -1.
         -1   -1    0    0    0  501 -0.00000000000E+00 -0.00000000000E+00 -0.14666016689E+02  0.14666017555E+02  0.50400000000E-02 0.  1.
         23    2    1    2    0    0 -0.17763568394E-14  0.00000000000E+00  0.10049976541E+03  0.12983179976E+03  0.82195458403E+02 0.  0.
    9000005    2    3    3    0    0 -0.12705073132E+02  0.14035239452E+02  0.10718643455E+03  0.10975399176E+03  0.14092555743E+02 0.  0.
         22    1    3    3    0    0  0.12705073132E+02 -0.14035239452E+02 -0.66866691400E+01  0.20077807997E+02  0.00000000000E+00 0.  1.
         22    1    4    4    0    0 -0.10851010808E+02  0.49913764307E+01  0.83188146885E+02  0.84041216414E+02  0.00000000000E+00 0. -1.
         22    1    4    4    0    0 -0.18540623237E+01  0.90438630218E+01  0.23998287661E+02  0.25712775348E+02  0.00000000000E+00 0. -1.
<mgrwt>
<rscale>  0 0.82195458E+02</rscale>
<asrwt>0</asrwt>
<pdfrwt beam="1">  1        1 0.17717813E-01 0.82195458E+02</pdfrwt>
<pdfrwt beam="2">  1       -1 0.22563103E-02 0.82195458E+02</pdfrwt>
<totfact> 0.14148329E+05</totfact>
</mgrwt>
</event>
<event>
 7    1  0.4160687E-009  0.9059883E+02  0.7818608E-02  0.1301408E+00
         -1   -1    0    0    0  501 -0.00000000000E+00  0.00000000000E+00  0.58379719308E+02  0.58379719526E+02  0.50400000000E-02 0.  1.
          1   -1    0    0  501    0  0.00000000000E+00 -0.00000000000E+00 -0.35149829184E+02  0.35149829545E+02  0.50400000000E-02 0. -1.
         23    2    1    2    0    0 -0.17763568394E-14  0.00000000000E+00  0.23229890124E+02  0.93529549071E+02  0.90598834177E+02 0.  0.
    9000005    2    3    3    0    0  0.13376024838E+02 -0.38107545450E+02 -0.58078985083E+01  0.43787250880E+02  0.15889889674E+02 0.  0.
         22    1    3    3    0    0 -0.13376024838E+02  0.38107545450E+02  0.29037788632E+02  0.49742298191E+02  0.00000000000E+00 0.  1.
         22    1    4    4    0    0 -0.30151004836E+00 -0.12952027204E+02  0.39377056814E+01  0.13540732736E+02  0.00000000000E+00 0.  1.
         22    1    4    4    0    0  0.13677534886E+02 -0.25155518246E+02 -0.97456041898E+01  0.30246518143E+02  0.00000000000E+00 0.  1.
<mgrwt>
<rscale>  0 0.90598834E+02</rscale>
<asrwt>0</asrwt>
<pdfrwt beam="2">  1        1 0.54076661E-02 0.90598834E+02</pdfrwt>
<pdfrwt beam="1">  1       -1 0.89814953E-02 0.90598834E+02</pdfrwt>
<totfact> 0.90503683E+04</totfact>
</mgrwt>
</event>
<event>
 7    1  0.3607059E-009  0.9080671E+02  0.7818608E-02  0.1300910E+00
         -1   -1    0    0    0  501 -0.00000000000E+00  0.00000000000E+00  0.18772703828E+02  0.18772704504E+02  0.50400000000E-02 0.  1.
          1   -1    0    0  501    0  0.00000000000E+00 -0.00000000000E+00 -0.10981180386E+03  0.10981180397E+03  0.50400000000E-02 0. -1.
         23    2    1    2    0    0  0.00000000000E+00  0.00000000000E+00 -0.91039100030E+02  0.12858450848E+03  0.90806707275E+02 0.  0.
    9000005    2    3    3    0    0  0.42598971801E+02 -0.15183201172E+02 -0.45343842429E+02  0.64294084901E+02  0.56976583529E+01 0.  0.
         22    1    3    3    0    0 -0.42598971801E+02  0.15183201172E+02 -0.45695257600E+02  0.64290423575E+02  0.00000000000E+00 0. -1.
         22    1    4    4    0    0  0.26048017395E+02 -0.12194540878E+02 -0.28352074828E+02  0.40386212802E+02  0.00000000000E+00 0. -1.
         22    1    4    4    0    0  0.16550954407E+02 -0.29886602946E+01 -0.16991767601E+02  0.23907872100E+02  0.00000000000E+00 0. -1.
<mgrwt>
<rscale>  0 0.90806707E+02</rscale>
<asrwt>0</asrwt>
<pdfrwt beam="2">  1        1 0.16894123E-01 0.90806707E+02</pdfrwt>
<pdfrwt beam="1">  1       -1 0.28881084E-02 0.90806707E+02</pdfrwt>
<totfact> 0.10728822E+05</totfact>
</mgrwt>
</event>
<event>
 7    1  0.3607059E-009  0.9241165E+02  0.7818608E-02  0.1297114E+00
          1   -1    0    0  501    0  0.00000000000E+00  0.00000000000E+00  0.37380241450E+01  0.37380275427E+01  0.50400000000E-02 0. -1.
         -1   -1    0    0    0  501 -0.00000000000E+00 -0.00000000000E+00 -0.57115124952E+03  0.57115124954E+03  0.50400000000E-02 0.  1.
         23    2    1    2    0    0  0.00000000000E+00 -0.88817841970E-15 -0.56741322537E+03  0.57488927708E+03  0.92411647408E+02 0.  0.
    9000005    2    3    3    0    0 -0.34124474221E+02 -0.55518581363E+01 -0.47129858111E+03  0.47274561496E+03  0.13067556788E+02 0.  0.
         22    1    3    3    0    0  0.34124474221E+02  0.55518581363E+01 -0.96114644266E+02  0.10214366212E+03  0.00000000000E+00 0. -1.
         22    1    4    4    0    0 -0.72244757002E+01 -0.69466976049E+01 -0.12983682616E+03  0.13022308200E+03  0.00000000000E+00 0.  1.
         22    1    4    4    0    0 -0.26899998520E+02  0.13948394686E+01 -0.34146175494E+03  0.34252253296E+03  0.00000000000E+00 0.  1.
<mgrwt>
<rscale>  0 0.92411647E+02</rscale>
<asrwt>0</asrwt>
<pdfrwt beam="1">  1        1 0.57508135E-03 0.92411647E+02</pdfrwt>
<pdfrwt beam="2">  1       -1 0.87869354E-01 0.92411647E+02</pdfrwt>
<totfact> 0.41610770E+04</totfact>
</mgrwt>
</event>
<event>
 7    1  0.3607059E-009  0.9402011E+02  0.7818608E-02  0.1293398E+00
          1   -1    0    0  501    0  0.00000000000E+00  0.00000000000E+00  0.20317982572E+02  0.20317983198E+02  0.50400000000E-02 0. -1.
         -1   -1    0    0    0  501 -0.00000000000E+00 -0.00000000000E+00 -0.10876794683E+03  0.10876794695E+03  0.50400000000E-02 0.  1.
         23    2    1    2    0    0  0.17763568394E-14  0.00000000000E+00 -0.88449964262E+02  0.12908593015E+03  0.94020110532E+02 0.  0.
    9000005    2    3    3    0    0  0.93200537208E+01  0.41222081885E+02 -0.21622106236E+02  0.50015796441E+02  0.15746141725E+02 0.  0.
         22    1    3    3    0    0 -0.93200537208E+01 -0.41222081885E+02 -0.66827858025E+02  0.79070133707E+02  0.00000000000E+00 0.  1.
         22    1    4    4    0    0 -0.55346593503E+00  0.27865101140E+02 -0.94719988636E+01  0.29436184341E+02  0.00000000000E+00 0.  1.
         22    1    4    4    0    0  0.98735196558E+01  0.13356980745E+02 -0.12150107373E+02  0.20579612100E+02  0.00000000000E+00 0.  1.
<mgrwt>
<rscale>  0 0.94020111E+02</rscale>
<asrwt>0</asrwt>
<pdfrwt beam="1">  1        1 0.31258436E-02 0.94020111E+02</pdfrwt>
<pdfrwt beam="2">  1       -1 0.16733530E-01 0.94020111E+02</pdfrwt>
<totfact> 0.73973940E+04</totfact>
</mgrwt>
</event>
<event>
 7    1  0.3607059E-009  0.9172246E+02  0.7818608E-02  0.1298733E+00
          1   -1    0    0  501    0  0.00000000000E+00  0.00000000000E+00  0.39075450423E+03  0.39075450426E+03  0.50400000000E-02 0. -1.
         -1   -1    0    0    0  501 -0.00000000000E+00 -0.00000000000E+00 -0.53825407123E+01  0.53825430720E+01  0.50400000000E-02 0.  1.
         23    2    1    2    0    0  0.00000000000E+00 -0.35527136788E-14  0.38537196352E+03  0.39613704733E+03  0.91722461837E+02 0.  0.
    9000005    2    3    3    0    0  0.37063321344E+02  0.25661437788E+02  0.22306244824E+03  0.22768355842E+03  0.71237476533E+01 0.  0.
         22    1    3    3    0    0 -0.37063321344E+02 -0.25661437788E+02  0.16230951527E+03  0.16845348891E+03  0.00000000000E+00 0.  1.
         22    1    4    4    0    0  0.52622784740E+01  0.25338507287E+01  0.19409585784E+02  0.20269286977E+02  0.00000000000E+00 0.  1.
         22    1    4    4    0    0  0.31801042870E+02  0.23127587060E+02  0.20365286246E+03  0.20741427144E+03  0.00000000000E+00 0.  1.
<mgrwt>
<rscale>  0 0.91722462E+02</rscale>
<asrwt>0</asrwt>
<pdfrwt beam="1">  1        1 0.60116069E-01 0.91722462E+02</pdfrwt>
<pdfrwt beam="2">  1       -1 0.82808349E-03 0.91722462E+02</pdfrwt>
<totfact> 0.13225637E+05</totfact>
</mgrwt>
</event>
<event>
 7    1  0.3607059E-009  0.9081429E+02  0.7818608E-02  0.1300892E+00
          1   -1    0    0  501    0  0.00000000000E+00  0.00000000000E+00  0.29694047461E+03  0.29694047466E+03  0.50400000000E-02 0. -1.
         -1   -1    0    0    0  501 -0.00000000000E+00 -0.00000000000E+00 -0.69435080788E+01  0.69435099079E+01  0.50400000000E-02 0.  1.
         23    2    1    2    0    0  0.88817841970E-15  0.00000000000E+00  0.28999696654E+03  0.30388398456E+03  0.90814291140E+02 0.  0.
    9000005    2    3    3    0    0  0.59315448168E+01 -0.36698328500E+02  0.23107464527E+03  0.23421483442E+03  0.88964283259E+01 0.  0.
         22    1    3    3    0    0 -0.59315448168E+01  0.36698328500E+02  0.58922321264E+02  0.69669150144E+02  0.00000000000E+00 0.  1.
         22    1    4    4    0    0  0.67038079599E+01 -0.36170161331E+02  0.22904098915E+03  0.23197628396E+03  0.00000000000E+00 0.  1.
         22    1    4    4    0    0 -0.77226314305E+00 -0.52816716877E+00  0.20336561240E+01  0.22385504576E+01  0.00000000000E+00 0.  1.
<mgrwt>
<rscale>  0 0.90814291E+02</rscale>
<asrwt>0</asrwt>
<pdfrwt beam="1">  1        1 0.45683156E-01 0.90814291E+02</pdfrwt>
<pdfrwt beam="2">  1       -1 0.10682320E-02 0.90814291E+02</pdfrwt>
<totfact> 0.12923587E+05</totfact>
</mgrwt>
</event>
<event>
 7    1  0.3607059E-009  0.8760588E+02  0.7818608E-02  0.1308755E+00
          1   -1    0    0  501    0  0.00000000000E+00  0.00000000000E+00  0.98626150608E+01  0.98626163486E+01  0.50400000000E-02 0. -1.
         -1   -1    0    0    0  501 -0.00000000000E+00 -0.00000000000E+00 -0.19454243998E+03  0.19454244005E+03  0.50400000000E-02 0.  1.
         23    2    1    2    0    0  0.88817841970E-15  0.00000000000E+00 -0.18467982492E+03  0.20440505640E+03  0.87605875073E+02 0.  0.
    9000005    2    3    3    0    0 -0.75731527217E+01 -0.25739144399E+02 -0.17234643019E+03  0.17487593819E+03  0.12587516055E+02 0.  0.
         22    1    3    3    0    0  0.75731527217E+01  0.25739144399E+02 -0.12333394726E+02  0.29529118206E+02  0.00000000000E+00 0. -1.
         22    1    4    4    0    0 -0.63025953814E+01 -0.21611670903E+02 -0.10475155600E+03  0.10714324762E+03  0.00000000000E+00 0.  1.
         22    1    4    4    0    0 -0.12705573403E+01 -0.41274734957E+01 -0.67594874199E+02  0.67732690567E+02  0.00000000000E+00 0.  1.
<mgrwt>
<rscale>  0 0.87605875E+02</rscale>
<asrwt>0</asrwt>
<pdfrwt beam="1">  1        1 0.15173257E-02 0.87605875E+02</pdfrwt>
<pdfrwt beam="2">  1       -1 0.29929603E-01 0.87605875E+02</pdfrwt>
<totfact> 0.77629118E+04</totfact>
</mgrwt>
</event>
<event>
 7    1  0.3607059E-009  0.9260298E+02  0.7818608E-02  0.1296668E+00
         -1   -1    0    0    0  501 -0.00000000000E+00  0.00000000000E+00  0.26592495758E+01  0.26592543519E+01  0.50400000000E-02 0.  1.
          1   -1    0    0  501    0  0.00000000000E+00 -0.00000000000E+00 -0.80617709529E+03  0.80617709531E+03  0.50400000000E-02 0. -1.
         23    2    1    2    0    0  0.17763568394E-14  0.00000000000E+00 -0.80351784571E+03  0.80883634966E+03  0.92602981303E+02 0.  0.
    9000005    2    3    3    0    0 -0.14164804652E+02  0.92124538130E+01 -0.77787498451E+03  0.77812694838E+03  0.10322076972E+02 0.  0.
         22    1    3    3    0    0  0.14164804652E+02 -0.92124538130E+01 -0.25642861204E+02  0.30709401277E+02  0.00000000000E+00 0.  1.
         22    1    4    4    0    0 -0.11707224357E+02  0.69657541817E+01 -0.39031447373E+03  0.39055213383E+03  0.00000000000E+00 0. -1.
         22    1    4    4    0    0 -0.24575802943E+01  0.22466996312E+01 -0.38756051078E+03  0.38757481455E+03  0.00000000000E+00 0. -1.
<mgrwt>
<rscale>  0 0.92602981E+02</rscale>
<asrwt>0</asrwt>
<pdfrwt beam="2">  1        1 0.12402705E+00 0.92602981E+02</pdfrwt>
<pdfrwt beam="1">  1       -1 0.40911633E-03 0.92602981E+02</pdfrwt>
<totfact> 0.13552006E+05</totfact>
</mgrwt>
</event>
<event>
 7    1  0.3607059E-009  0.9103349E+02  0.7818608E-02  0.1300368E+00
         -1   -1    0    0    0  501 -0.00000000000E+00  0.00000000000E+00  0.10424766622E+03  0.10424766634E+03  0.50400000000E-02 0.  1.
          1   -1    0    0  501    0  0.00000000000E+00 -0.00000000000E+00 -0.19873574960E+02  0.19873575599E+02  0.50400000000E-02 0. -1.
         23    2    1    2    0    0  0.00000000000E+00  0.00000000000E+00  0.84374091257E+02  0.12412124194E+03  0.91033485183E+02 0.  0.
    9000005    2    3    3    0    0 -0.42423050155E+02  0.86922085831E+01  0.56547780265E+02  0.72647236284E+02  0.14307334217E+02 0.  0.
         22    1    3    3    0    0  0.42423050155E+02 -0.86922085831E+01  0.27826310992E+02  0.51474005653E+02  0.00000000000E+00 0.  1.
         22    1    4    4    0    0 -0.24134261237E+02 -0.23408308969E+01  0.29973061486E+02  0.38552904814E+02  0.00000000000E+00 0. -1.
         22    1    4    4    0    0 -0.18288788918E+02  0.11033039480E+02  0.26574718779E+02  0.34094331470E+02  0.00000000000E+00 0. -1.
<mgrwt>
<rscale>  0 0.91033485E+02</rscale>
<asrwt>0</asrwt>
<pdfrwt beam="2">  1        1 0.30574732E-02 0.91033485E+02</pdfrwt>
<pdfrwt beam="1">  1       -1 0.16038102E-01 0.91033485E+02</pdfrwt>
<totfact> 0.81065688E+04</totfact>
</mgrwt>
</event>
<event>
 7    1  0.3607059E-009  0.9230401E+02  0.7818608E-02  0.1297366E+00
         -1   -1    0    0    0  501 -0.00000000000E+00  0.00000000000E+00  0.47004129191E+01  0.47004156211E+01  0.50400000000E-02 0.  1.
          1   -1    0    0  501    0  0.00000000000E+00 -0.00000000000E+00 -0.45315314266E+03  0.45315314269E+03  0.50400000000E-02 0. -1.
         23    2    1    2    0    0  0.00000000000E+00  0.71054273576E-14 -0.44845272974E+03  0.45785355831E+03  0.92304008821E+02 0.  0.
    9000005    2    3    3    0    0  0.11064044821E+02 -0.41827188614E+02 -0.29879182900E+03  0.30206423901E+03  0.97118803649E+01 0.  0.
         22    1    3    3    0    0 -0.11064044821E+02  0.41827188614E+02 -0.14966090075E+03  0.15578931930E+03  0.00000000000E+00 0.  1.
         22    1    4    4    0    0 -0.13398346396E+01 -0.47220625579E+01 -0.46275866863E+02  0.46535458369E+02  0.00000000000E+00 0. -1.
         22    1    4    4    0    0  0.12403879461E+02 -0.37105126056E+02 -0.25251596213E+03  0.25552878065E+03  0.00000000000E+00 0. -1.
<mgrwt>
<rscale>  0 0.92304009E+02</rscale>
<asrwt>0</asrwt>
<pdfrwt beam="2">  1        1 0.69715834E-01 0.92304009E+02</pdfrwt>
<pdfrwt beam="1">  1       -1 0.72314102E-03 0.92304009E+02</pdfrwt>
<totfact> 0.13308096E+05</totfact>
</mgrwt>
</event>
<event>
 7    1  0.3607059E-009  0.9339023E+02  0.7818608E-02  0.1294843E+00
         -1   -1    0    0    0  501 -0.00000000000E+00  0.00000000000E+00  0.25998255393E+02  0.25998255881E+02  0.50400000000E-02 0.  1.
          1   -1    0    0  501    0  0.00000000000E+00 -0.00000000000E+00 -0.83868459193E+02  0.83868459345E+02  0.50400000000E-02 0. -1.
         23    2    1    2    0    0  0.00000000000E+00 -0.35527136788E-14 -0.57870203801E+02  0.10986671523E+03  0.93390227683E+02 0.  0.
    9000005    2    3    3    0    0  0.28049233340E+02 -0.17075693293E+02  0.71911314575E+01  0.36987938219E+02  0.15429076760E+02 0.  0.
         22    1    3    3    0    0 -0.28049233340E+02  0.17075693293E+02 -0.65061335258E+02  0.72878777007E+02  0.00000000000E+00 0. -1.
         22    1    4    4    0    0  0.53758003780E+01 -0.17309036409E+01  0.77679869619E+01  0.96040032569E+01  0.00000000000E+00 0.  1.
         22    1    4    4    0    0  0.22673432962E+02 -0.15344789652E+02 -0.57685550440E+00  0.27383934962E+02  0.00000000000E+00 0.  1.
<mgrwt>
<rscale>  0 0.93390228E+02</rscale>
<asrwt>0</asrwt>
<pdfrwt beam="2">  1        1 0.12902840E-01 0.93390228E+02</pdfrwt>
<pdfrwt beam="1">  1       -1 0.39997317E-02 0.93390228E+02</pdfrwt>
<totfact> 0.95028036E+04</totfact>
</mgrwt>
</event>
<event>
 7    1  0.3607059E-009  0.9000879E+02  0.7818608E-02  0.1302830E+00
          1   -1    0    0  501    0  0.00000000000E+00  0.00000000000E+00  0.66007913583E+03  0.66007913584E+03  0.50400000000E-02 0. -1.
         -1   -1    0    0    0  501 -0.00000000000E+00 -0.00000000000E+00 -0.30684109147E+01  0.30684150539E+01  0.50400000000E-02 0.  1.
         23    2    1    2    0    0 -0.71054273576E-14  0.35527136788E-14  0.65701072491E+03  0.66314755090E+03  0.90008786322E+02 0.  0.
    9000005    2    3    3    0    0 -0.35801677738E+02  0.23666459924E+02  0.40077382389E+03  0.40334144839E+03  0.14926641369E+02 0.  0.
         22    1    3    3    0    0  0.35801677738E+02 -0.23666459924E+02  0.25623690102E+03  0.25980610251E+03  0.00000000000E+00 0.  1.
         22    1    4    4    0    0 -0.51651066202E+01  0.82700183440E+01  0.13732602737E+03  0.13767174482E+03  0.00000000000E+00 0. -1.
         22    1    4    4    0    0 -0.30636571118E+02  0.15396441580E+02  0.26344779652E+03  0.26566970357E+03  0.00000000000E+00 0. -1.
<mgrwt>
<rscale>  0 0.90008786E+02</rscale>
<asrwt>0</asrwt>
<pdfrwt beam="1">  1        1 0.10155063E+00 0.90008786E+02</pdfrwt>
<pdfrwt beam="2">  1       -1 0.47206359E-03 0.90008786E+02</pdfrwt>
<totfact> 0.14705945E+05</totfact>
</mgrwt>
</event>
<event>
 7    1  0.3607059E-009  0.1009960E+03  0.7818608E-02  0.1278215E+00
          1   -1    0    0  501    0  0.00000000000E+00  0.00000000000E+00  0.25671758466E+03  0.25671758471E+03  0.50400000000E-02 0.  1.
         -1   -1    0    0    0  501 -0.00000000000E+00 -0.00000000000E+00 -0.99332748929E+01  0.99332761715E+01  0.50400000000E-02 0. -1.
         23    2    1    2    0    0  0.00000000000E+00  0.00000000000E+00  0.24678430977E+03  0.26665086088E+03  0.10099597052E+03 0.  0.
    9000005    2    3    3    0    0  0.45102142209E+02  0.20177751636E+02  0.10543754264E+03  0.11691691860E+03  0.10542559682E+02 0.  0.
         22    1    3    3    0    0 -0.45102142209E+02 -0.20177751636E+02  0.14134676713E+03  0.14973394228E+03  0.00000000000E+00 0. -1.
         22    1    4    4    0    0  0.18642091050E+02  0.14048049964E+02  0.50327893833E+02  0.55477672663E+02  0.00000000000E+00 0. -1.
         22    1    4    4    0    0  0.26460051159E+02  0.61297016722E+01  0.55109648807E+02  0.61439245939E+02  0.00000000000E+00 0. -1.
<mgrwt>
<rscale>  0 0.10099597E+03</rscale>
<asrwt>0</asrwt>
<pdfrwt beam="1">  1        1 0.39495009E-01 0.10099597E+03</pdfrwt>
<pdfrwt beam="2">  1       -1 0.15281964E-02 0.10099597E+03</pdfrwt>
<totfact> 0.94445684E+04</totfact>
</mgrwt>
</event>
<event>
 7    1  0.3607059E-009  0.9029507E+02  0.7818608E-02  0.1302139E+00
          1   -1    0    0  501    0  0.00000000000E+00  0.00000000000E+00  0.15791783635E+03  0.15791783643E+03  0.50400000000E-02 0. -1.
         -1   -1    0    0    0  501 -0.00000000000E+00 -0.00000000000E+00 -0.12907342850E+02  0.12907343834E+02  0.50400000000E-02 0.  1.
         23    2    1    2    0    0  0.00000000000E+00  0.00000000000E+00  0.14501049350E+03  0.17082518026E+03  0.90295066238E+02 0.  0.
    9000005    2    3    3    0    0  0.40808330862E+02 -0.87171945875E+01  0.42575586780E+02  0.60216774327E+02  0.84894034796E+01 0.  0.
         22    1    3    3    0    0 -0.40808330862E+02  0.87171945875E+01  0.10243490672E+03  0.11060840593E+03  0.00000000000E+00 0. -1.
         22    1    4    4    0    0  0.40301019827E+02 -0.85627368444E+01  0.42988904578E+02  0.59544425249E+02  0.00000000000E+00 0. -1.
         22    1    4    4    0    0  0.50731103462E+00 -0.15445774315E+00 -0.41331779812E+00  0.67234907787E+00  0.00000000000E+00 0. -1.
<mgrwt>
<rscale>  0 0.90295066E+02</rscale>
<asrwt>0</asrwt>
<pdfrwt beam="1">  1        1 0.24295051E-01 0.90295066E+02</pdfrwt>
<pdfrwt beam="2">  1       -1 0.19857452E-02 0.90295066E+02</pdfrwt>
<totfact> 0.11620397E+05</totfact>
</mgrwt>
</event>
<event>
 7    1  0.3607059E-009  0.9166217E+02  0.7818608E-02  0.1298876E+00
          1   -1    0    0  501    0  0.00000000000E+00  0.00000000000E+00  0.44257576846E+02  0.44257577133E+02  0.50400000000E-02 0. -1.
         -1   -1    0    0    0  501 -0.00000000000E+00 -0.00000000000E+00 -0.47460538975E+02  0.47460539243E+02  0.50400000000E-02 0.  1.
         23    2    1    2    0    0  0.11102230246E-15  0.00000000000E+00 -0.32029621286E+01  0.91718116376E+02  0.91662172706E+02 0.  0.
    9000005    2    3    3    0    0 -0.86388857763E+00 -0.30854542670E+02  0.31528479634E+02  0.45252837363E+02  0.10051127030E+02 0.  0.
         22    1    3    3    0    0  0.86388857763E+00  0.30854542670E+02 -0.34731441762E+02  0.46465279013E+02  0.00000000000E+00 0.  1.
         22    1    4    4    0    0 -0.50249552710E+00 -0.38020020937E+00 -0.66894326347E+00  0.91898805416E+00  0.00000000000E+00 0. -1.
         22    1    4    4    0    0 -0.36139305054E+00 -0.30474342460E+02  0.32197422897E+02  0.44333849309E+02  0.00000000000E+00 0. -1.
<mgrwt>
<rscale>  0 0.91662173E+02</rscale>
<asrwt>0</asrwt>
<pdfrwt beam="1">  1        1 0.68088580E-02 0.91662173E+02</pdfrwt>
<pdfrwt beam="2">  1       -1 0.73016214E-02 0.91662173E+02</pdfrwt>
<totfact> 0.90695447E+04</totfact>
</mgrwt>
</event>
<event>
 7    1  0.3607059E-009  0.9058989E+02  0.7818608E-02  0.1301429E+00
          1   -1    0    0  501    0  0.00000000000E+00  0.00000000000E+00  0.90742597404E+01  0.90742611400E+01  0.50400000000E-02 0. -1.
         -1   -1    0    0    0  501 -0.00000000000E+00 -0.00000000000E+00 -0.22609359861E+03  0.22609359867E+03  0.50400000000E-02 0.  1.
         23    2    1    2    0    0  0.00000000000E+00  0.00000000000E+00 -0.21701933887E+03  0.23516785981E+03  0.90589893710E+02 0.  0.
    9000005    2    3    3    0    0  0.34308073795E+02 -0.19518616265E+02 -0.52038998164E+02  0.65531386346E+02  0.53183604752E+01 0.  0.
         22    1    3    3    0    0 -0.34308073795E+02  0.19518616265E+02 -0.16498034071E+03  0.16963647346E+03  0.00000000000E+00 0.  1.
         22    1    4    4    0    0  0.12706791776E+02 -0.46388503899E+01 -0.19591479563E+02  0.23807720631E+02  0.00000000000E+00 0.  1.
         22    1    4    4    0    0  0.21601282019E+02 -0.14879765875E+02 -0.32447518600E+02  0.41723665715E+02  0.00000000000E+00 0.  1.
<mgrwt>
<rscale>  0 0.90589894E+02</rscale>
<asrwt>0</asrwt>
<pdfrwt beam="1">  1        1 0.13960402E-02 0.90589894E+02</pdfrwt>
<pdfrwt beam="2">  1       -1 0.34783626E-01 0.90589894E+02</pdfrwt>
<totfact> 0.68058136E+04</totfact>
</mgrwt>
</event>
<event>
 7    1  0.3607059E-009  0.9067396E+02  0.7818608E-02  0.1301228E+00
         -1   -1    0    0    0  501 -0.00000000000E+00  0.00000000000E+00  0.85304552105E+01  0.85304566993E+01  0.50400000000E-02 0.  1.
          1   -1    0    0  501    0  0.00000000000E+00 -0.00000000000E+00 -0.24095333902E+03  0.24095333907E+03  0.50400000000E-02 0. -1.
         23    2    1    2    0    0 -0.35527136788E-14  0.00000000000E+00 -0.23242288381E+03  0.24948379577E+03  0.90673962274E+02 0.  0.
    9000005    2    3    3    0    0  0.31824703931E+02 -0.26583453596E+02 -0.78292173039E+02  0.89872493578E+02  0.15096653848E+02 0.  0.
         22    1    3    3    0    0 -0.31824703931E+02  0.26583453596E+02 -0.15413071077E+03  0.15961130220E+03  0.00000000000E+00 0. -1.
         22    1    4    4    0    0  0.13812194090E+02 -0.21104979744E+02 -0.47472011575E+02  0.53756755468E+02  0.00000000000E+00 0. -1.
         22    1    4    4    0    0  0.18012509841E+02 -0.54784738527E+01 -0.30820161464E+02  0.36115738109E+02  0.00000000000E+00 0. -1.
<mgrwt>
<rscale>  0 0.90673962E+02</rscale>
<asrwt>0</asrwt>
<pdfrwt beam="2">  1        1 0.37069739E-01 0.90673962E+02</pdfrwt>
<pdfrwt beam="1">  1       -1 0.13123780E-02 0.90673962E+02</pdfrwt>
<totfact> 0.12461232E+05</totfact>
</mgrwt>
</event>
<event>
 7    1  0.3607059E-009  0.9175474E+02  0.7818608E-02  0.1298657E+00
          1   -1    0    0  501    0  0.00000000000E+00  0.00000000000E+00  0.38864027110E+03  0.38864027113E+03  0.50400000000E-02 0. -1.
         -1   -1    0    0    0  501 -0.00000000000E+00 -0.00000000000E+00 -0.54156321333E+01  0.54156344785E+01  0.50400000000E-02 0.  1.
         23    2    1    2    0    0 -0.17763568394E-14  0.00000000000E+00  0.38322463896E+03  0.39405590561E+03  0.91754742852E+02 0.  0.
    9000005    2    3    3    0    0 -0.10016474503E+02 -0.41311491639E+02  0.26403621760E+03  0.26751401970E+03  0.64542564943E+01 0.  0.
         22    1    3    3    0    0  0.10016474503E+02  0.41311491639E+02  0.11918842136E+03  0.12654188591E+03  0.00000000000E+00 0.  1.
         22    1    4    4    0    0 -0.13369395204E+01 -0.59529446853E+01  0.54240100575E+02  0.54582171705E+02  0.00000000000E+00 0. -1.
         22    1    4    4    0    0 -0.86795349828E+01 -0.35358546953E+02  0.20979611703E+03  0.21293184799E+03  0.00000000000E+00 0. -1.
<mgrwt>
<rscale>  0 0.91754743E+02</rscale>
<asrwt>0</asrwt>
<pdfrwt beam="1">  1        1 0.59790808E-01 0.91754743E+02</pdfrwt>
<pdfrwt beam="2">  1       -1 0.83317441E-03 0.91754743E+02</pdfrwt>
<totfact> 0.13201252E+05</totfact>
</mgrwt>
</event>
<event>
 7    1  0.3607059E-009  0.9293922E+02  0.7818608E-02  0.1295886E+00
          1   -1    0    0  501    0  0.00000000000E+00  0.00000000000E+00  0.25295979952E+03  0.25295979957E+03  0.50400000000E-02 0. -1.
         -1   -1    0    0    0  501 -0.00000000000E+00 -0.00000000000E+00 -0.85366300966E+01  0.85366315844E+01  0.50400000000E-02 0.  1.
         23    2    1    2    0    0 -0.22204460493E-15  0.00000000000E+00  0.24442316942E+03  0.26149643115E+03  0.92939215380E+02 0.  0.
    9000005    2    3    3    0    0 -0.12872239560E+01 -0.37098476902E+02  0.19857372655E+03  0.20250384394E+03  0.14082897492E+02 0.  0.
         22    1    3    3    0    0  0.12872239560E+01  0.37098476902E+02  0.45849442868E+02  0.58992587206E+02  0.00000000000E+00 0.  1.
         22    1    4    4    0    0 -0.67759715992E+01 -0.22203435279E+02  0.99928117342E+02  0.10258915618E+03  0.00000000000E+00 0. -1.
         22    1    4    4    0    0  0.54887476431E+01 -0.14895041623E+02  0.98645609209E+02  0.99914687769E+02  0.00000000000E+00 0. -1.
<mgrwt>
<rscale>  0 0.92939215E+02</rscale>
<asrwt>0</asrwt>
<pdfrwt beam="1">  1        1 0.38916893E-01 0.92939215E+02</pdfrwt>
<pdfrwt beam="2">  1       -1 0.13133278E-02 0.92939215E+02</pdfrwt>
<totfact> 0.11776435E+05</totfact>
</mgrwt>
</event>
<event>
 7    1  0.3607059E-009  0.8509891E+02  0.7818608E-02  0.1315174E+00
          1   -1    0    0  501    0  0.00000000000E+00  0.00000000000E+00  0.25267123358E+02  0.25267123861E+02  0.50400000000E-02 0. -1.
         -1   -1    0    0    0  501 -0.00000000000E+00 -0.00000000000E+00 -0.71652646161E+02  0.71652646338E+02  0.50400000000E-02 0.  1.
         23    2    1    2    0    0  0.00000000000E+00  0.00000000000E+00 -0.46385522803E+02  0.96919770199E+02  0.85098913799E+02 0.  0.
    9000005    2    3    3    0    0 -0.27088481129E+02 -0.26815099598E+02 -0.44479672375E+02  0.58756074857E+02  0.45825431495E+01 0.  0.
         22    1    3    3    0    0  0.27088481129E+02  0.26815099598E+02 -0.19058504279E+01  0.38163695342E+02  0.00000000000E+00 0.  1.
         22    1    4    4    0    0 -0.18108042105E+02 -0.15549407965E+02 -0.29910060942E+02  0.38266134146E+02  0.00000000000E+00 0.  1.
         22    1    4    4    0    0 -0.89804390244E+01 -0.11265691633E+02 -0.14569611432E+02  0.20489940711E+02  0.00000000000E+00 0.  1.
<mgrwt>
<rscale>  0 0.85098914E+02</rscale>
<asrwt>0</asrwt>
<pdfrwt beam="1">  1        1 0.38872498E-02 0.85098914E+02</pdfrwt>
<pdfrwt beam="2">  1       -1 0.11023484E-01 0.85098914E+02</pdfrwt>
<totfact> 0.10277603E+05</totfact>
</mgrwt>
</event>
<event>
 7    1  0.3607059E-009  0.9993233E+02  0.7818608E-02  0.1280438E+00
          1   -1    0    0  501    0  0.00000000000E+00  0.00000000000E+00  0.15599694666E+03  0.15599694674E+03  0.50400000000E-02 0. -1.
         -1   -1    0    0    0  501 -0.00000000000E+00 -0.00000000000E+00 -0.16004272403E+02  0.16004273197E+02  0.50400000000E-02 0.  1.
         23    2    1    2    0    0  0.00000000000E+00  0.71054273576E-14  0.13999267425E+03  0.17200121994E+03  0.99932331177E+02 0.  0.
    9000005    2    3    3    0    0 -0.14691743612E+01 -0.44802215272E+02  0.10788930596E+03  0.11686481434E+03  0.28081172496E+01 0.  0.
         22    1    3    3    0    0  0.14691743612E+01  0.44802215272E+02  0.32103368290E+02  0.55136405597E+02  0.00000000000E+00 0. -1.
         22    1    4    4    0    0 -0.18454060157E+00 -0.34617504804E+02  0.84990430321E+02  0.91770250845E+02  0.00000000000E+00 0.  1.
         22    1    4    4    0    0 -0.12846337596E+01 -0.10184710468E+02  0.22898875644E+02  0.25094563494E+02  0.00000000000E+00 0.  1.
<mgrwt>
<rscale>  0 0.99932331E+02</rscale>
<asrwt>0</asrwt>
<pdfrwt beam="1">  1        1 0.23999529E-01 0.99932331E+02</pdfrwt>
<pdfrwt beam="2">  1       -1 0.24621959E-02 0.99932331E+02</pdfrwt>
<totfact> 0.88083741E+04</totfact>
</mgrwt>
</event>
<event>
 7    1  0.3607059E-009  0.8992741E+02  0.7818608E-02  0.1303028E+00
          1   -1    0    0  501    0  0.00000000000E+00  0.00000000000E+00  0.97592972898E+02  0.97592973029E+02  0.50400000000E-02 0. -1.
         -1   -1    0    0    0  501 -0.00000000000E+00 -0.00000000000E+00 -0.20715986903E+02  0.20715987516E+02  0.50400000000E-02 0.  1.
         23    2    1    2    0    0  0.00000000000E+00  0.00000000000E+00  0.76876985995E+02  0.11830896055E+03  0.89927410557E+02 0.  0.
    9000005    2    3    3    0    0 -0.20949929653E+02  0.77100138860E+01 -0.12082830125E+02  0.26590953858E+02  0.79208696909E+01 0.  0.
         22    1    3    3    0    0  0.20949929653E+02 -0.77100138860E+01  0.88959816120E+02  0.91718006687E+02  0.00000000000E+00 0. -1.
         22    1    4    4    0    0 -0.18792335182E+02  0.37285113461E+01 -0.97538384828E+01  0.21498628412E+02  0.00000000000E+00 0. -1.
         22    1    4    4    0    0 -0.21575944707E+01  0.39815025400E+01 -0.23289916422E+01  0.50923254457E+01  0.00000000000E+00 0. -1.
<mgrwt>
<rscale>  0 0.89927411E+02</rscale>
<asrwt>0</asrwt>
<pdfrwt beam="1">  1        1 0.15014304E-01 0.89927411E+02</pdfrwt>
<pdfrwt beam="2">  1       -1 0.31870750E-02 0.89927411E+02</pdfrwt>
<totfact> 0.10801452E+05</totfact>
</mgrwt>
</event>
<event>
 7    1  0.3607059E-009  0.8595813E+02  0.7818608E-02  0.1312946E+00
         -1   -1    0    0    0  501 -0.00000000000E+00  0.00000000000E+00  0.26491143671E+02  0.26491144151E+02  0.50400000000E-02 0.  1.
          1   -1    0    0  501    0  0.00000000000E+00 -0.00000000000E+00 -0.69728961310E+02  0.69728961492E+02  0.50400000000E-02 0. -1.
         23    2    1    2    0    0  0.00000000000E+00  0.00000000000E+00 -0.43237817638E+02  0.96220105643E+02  0.85958128503E+02 0.  0.
    9000005    2    3    3    0    0 -0.39666709193E+02  0.12428811469E+02 -0.26668655859E+02  0.51471247614E+02  0.14496515199E+02 0.  0.
         22    1    3    3    0    0  0.39666709193E+02 -0.12428811469E+02 -0.16569161780E+02  0.44748858028E+02  0.00000000000E+00 0. -1.
         22    1    4    4    0    0 -0.90974567614E+01  0.54965746768E+01 -0.50424928197E+00  0.10640973642E+02  0.00000000000E+00 0.  1.
         22    1    4    4    0    0 -0.30569252432E+02  0.69322367923E+01 -0.26164406577E+02  0.40830273973E+02  0.00000000000E+00 0.  1.
<mgrwt>
<rscale>  0 0.85958129E+02</rscale>
<asrwt>0</asrwt>
<pdfrwt beam="2">  1        1 0.10727533E-01 0.85958129E+02</pdfrwt>
<pdfrwt beam="1">  1       -1 0.40755606E-02 0.85958129E+02</pdfrwt>
<totfact> 0.11592063E+05</totfact>
</mgrwt>
</event>
<event>
 7    1  0.3607059E-009  0.9292710E+02  0.7818608E-02  0.1295914E+00
          1   -1    0    0  501    0  0.00000000000E+00  0.00000000000E+00  0.93999821207E+02  0.93999821342E+02  0.50400000000E-02 0. -1.
         -1   -1    0    0    0  501 -0.00000000000E+00 -0.00000000000E+00 -0.22966653376E+02  0.22966653929E+02  0.50400000000E-02 0.  1.
         23    2    1    2    0    0  0.00000000000E+00  0.00000000000E+00  0.71033167831E+02  0.11696647527E+03  0.92927097261E+02 0.  0.
    9000005    2    3    3    0    0  0.22421044820E+02 -0.35231528613E+02  0.60941208155E+02  0.74003566742E+02  0.43281843739E+01 0.  0.
         22    1    3    3    0    0 -0.22421044820E+02  0.35231528613E+02  0.10091959676E+02  0.42962908530E+02  0.00000000000E+00 0.  1.
         22    1    4    4    0    0  0.19103042469E+02 -0.31989467828E+02  0.55588817958E+02  0.66920616894E+02  0.00000000000E+00 0.  1.
         22    1    4    4    0    0  0.33180023511E+01 -0.32420607843E+01  0.53523901969E+01  0.70829498481E+01  0.00000000000E+00 0.  1.
<mgrwt>
<rscale>  0 0.92927097E+02</rscale>
<asrwt>0</asrwt>
<pdfrwt beam="1">  1        1 0.14461511E-01 0.92927097E+02</pdfrwt>
<pdfrwt beam="2">  1       -1 0.35333313E-02 0.92927097E+02</pdfrwt>
<totfact> 0.98147633E+04</totfact>
</mgrwt>
</event>
<event>
 7    1  0.3607059E-009  0.9391005E+02  0.7818608E-02  0.1293650E+00
         -1   -1    0    0    0  501 -0.00000000000E+00  0.00000000000E+00  0.84690690399E+01  0.84690705395E+01  0.50400000000E-02 0.  1.
          1   -1    0    0  501    0  0.00000000000E+00 -0.00000000000E+00 -0.26033254259E+03  0.26033254264E+03  0.50400000000E-02 0. -1.
         23    2    1    2    0    0  0.00000000000E+00  0.00000000000E+00 -0.25186347355E+03  0.26880161318E+03  0.93910052382E+02 0.  0.
    9000005    2    3    3    0    0  0.21625648871E+02  0.38669212097E+02 -0.16518478053E+03  0.17145597909E+03  0.12172279647E+02 0.  0.
         22    1    3    3    0    0 -0.21625648871E+02 -0.38669212097E+02 -0.86678693013E+02  0.97345634087E+02  0.00000000000E+00 0.  1.
         22    1    4    4    0    0  0.18024419537E+02  0.33862875649E+02 -0.12292635960E+03  0.12877291614E+03  0.00000000000E+00 0. -1.
         22    1    4    4    0    0  0.36012293338E+01  0.48063364485E+01 -0.42258420936E+02  0.42683062949E+02  0.00000000000E+00 0. -1.
<mgrwt>
<rscale>  0 0.93910052E+02</rscale>
<asrwt>0</asrwt>
<pdfrwt beam="2">  1        1 0.40051154E-01 0.93910052E+02</pdfrwt>
<pdfrwt beam="1">  1       -1 0.13029340E-02 0.93910052E+02</pdfrwt>
<totfact> 0.11517887E+05</totfact>
</mgrwt>
</event>
<event>
 7    1  0.3607059E-009  0.9211310E+02  0.7818608E-02  0.1297814E+00
         -1   -1    0    0    0  501 -0.00000000000E+00  0.00000000000E+00  0.17438383466E+02  0.17438384194E+02  0.50400000000E-02 0.  1.
          1   -1    0    0  501    0  0.00000000000E+00 -0.00000000000E+00 -0.12164003682E+03  0.12164003693E+03  0.50400000000E-02 0. -1.
         23    2    1    2    0    0  0.00000000000E+00  0.00000000000E+00 -0.10420165336E+03  0.13907842112E+03  0.92113097110E+02 0.  0.
    9000005    2    3    3    0    0  0.36330477746E+02 -0.62186489741E+01 -0.13428190560E+02  0.41107013269E+02  0.12283933811E+02 0.  0.
         22    1    3    3    0    0 -0.36330477746E+02  0.62186489741E+01 -0.90773462797E+02  0.97971407852E+02  0.00000000000E+00 0. -1.
         22    1    4    4    0    0  0.27501139678E+02  0.84361307991E+00 -0.87605542709E+01  0.28875104810E+02  0.00000000000E+00 0.  1.
         22    1    4    4    0    0  0.88293380675E+01 -0.70622620540E+01 -0.46676362887E+01  0.12231908459E+02  0.00000000000E+00 0.  1.
<mgrwt>
<rscale>  0 0.92113097E+02</rscale>
<asrwt>0</asrwt>
<pdfrwt beam="2">  1        1 0.18713851E-01 0.92113097E+02</pdfrwt>
<pdfrwt beam="1">  1       -1 0.26828284E-02 0.92113097E+02</pdfrwt>
<totfact> 0.10503898E+05</totfact>
</mgrwt>
</event>
<event>
 7    1  0.3607059E-009  0.9450191E+02  0.7818608E-02  0.1292302E+00
         -1   -1    0    0    0  501 -0.00000000000E+00  0.00000000000E+00  0.12538901376E+03  0.12538901386E+03  0.50400000000E-02 0.  1.
          1   -1    0    0  501    0  0.00000000000E+00 -0.00000000000E+00 -0.17805808155E+02  0.17805808869E+02  0.50400000000E-02 0. -1.
         23    2    1    2    0    0  0.00000000000E+00  0.00000000000E+00  0.10758320560E+03  0.14319482273E+03  0.94501910712E+02 0.  0.
    9000005    2    3    3    0    0  0.29211460692E+02 -0.25092538511E+00 -0.20735916320E+01  0.29713610278E+02  0.50225943707E+01 0.  0.
         22    1    3    3    0    0 -0.29211460692E+02  0.25092538511E+00  0.10965679723E+03  0.11348121245E+03  0.00000000000E+00 0.  1.
         22    1    4    4    0    0  0.12128405135E+02 -0.16900864194E-01  0.16145105056E+01  0.12235405221E+02  0.00000000000E+00 0.  1.
         22    1    4    4    0    0  0.17083055557E+02 -0.23402452091E+00 -0.36881021376E+01  0.17478205057E+02  0.00000000000E+00 0.  1.
<mgrwt>
<rscale>  0 0.94501911E+02</rscale>
<asrwt>0</asrwt>
<pdfrwt beam="2">  1        1 0.27393551E-02 0.94501911E+02</pdfrwt>
<pdfrwt beam="1">  1       -1 0.19290618E-01 0.94501911E+02</pdfrwt>
<totfact> 0.70920358E+04</totfact>
</mgrwt>
</event>
<event>
 7    1  0.3607059E-009  0.8464134E+02  0.7818608E-02  0.1316373E+00
          1   -1    0    0  501    0  0.00000000000E+00  0.00000000000E+00  0.24149615988E+02  0.24149616513E+02  0.50400000000E-02 0. -1.
         -1   -1    0    0    0  501 -0.00000000000E+00 -0.00000000000E+00 -0.74164280728E+02  0.74164280899E+02  0.50400000000E-02 0.  1.
         23    2    1    2    0    0  0.00000000000E+00  0.00000000000E+00 -0.50014664740E+02  0.98313897413E+02  0.84641335855E+02 0.  0.
    9000005    2    3    3    0    0 -0.32247378058E+02 -0.53427098300E+01  0.60553538506E+01  0.33411779383E+02  0.33528720990E+01 0.  0.
         22    1    3    3    0    0  0.32247378058E+02  0.53427098300E+01 -0.56070018591E+02  0.64902118030E+02  0.00000000000E+00 0.  1.
         22    1    4    4    0    0 -0.27304447640E+02 -0.35495511273E+01  0.42972879745E+01  0.27867523357E+02  0.00000000000E+00 0. -1.
         22    1    4    4    0    0 -0.49429304183E+01 -0.17931587027E+01  0.17580658761E+01  0.55442560256E+01  0.00000000000E+00 0. -1.
<mgrwt>
<rscale>  0 0.84641336E+02</rscale>
<asrwt>0</asrwt>
<pdfrwt beam="1">  1        1 0.37153256E-02 0.84641336E+02</pdfrwt>
<pdfrwt beam="2">  1       -1 0.11409889E-01 0.84641336E+02</pdfrwt>
<totfact> 0.10363042E+05</totfact>
</mgrwt>
</event>
<event>
 7    1  0.3607059E-009  0.9169031E+02  0.7818608E-02  0.1298809E+00
          1   -1    0    0  501    0  0.00000000000E+00  0.00000000000E+00  0.51036897713E+01  0.51036922599E+01  0.50400000000E-02 0. -1.
         -1   -1    0    0    0  501 -0.00000000000E+00 -0.00000000000E+00 -0.41181531797E+03  0.41181531800E+03  0.50400000000E-02 0.  1.
         23    2    1    2    0    0  0.00000000000E+00  0.00000000000E+00 -0.40671162820E+03  0.41691901026E+03  0.91690308128E+02 0.  0.
    9000005    2    3    3    0    0 -0.55818443474E+01  0.23360023749E+02 -0.38090376512E+03  0.38166431565E+03  0.17674432490E+01 0.  0.
         22    1    3    3    0    0  0.55818443474E+01 -0.23360023749E+02 -0.25807863072E+02  0.35254694612E+02  0.00000000000E+00 0. -1.
         22    1    4    4    0    0 -0.75812125712E+00  0.13980794987E+01 -0.23007868311E+02  0.23062770396E+02  0.00000000000E+00 0. -1.
         22    1    4    4    0    0 -0.48237230903E+01  0.21961944250E+02 -0.35789589681E+03  0.35860154525E+03  0.00000000000E+00 0. -1.
<mgrwt>
<rscale>  0 0.91690308E+02</rscale>
<asrwt>0</asrwt>
<pdfrwt beam="1">  1        1 0.78518356E-03 0.91690308E+02</pdfrwt>
<pdfrwt beam="2">  1       -1 0.63356177E-01 0.91690308E+02</pdfrwt>
<totfact> 0.51734402E+04</totfact>
</mgrwt>
</event>
<event>
 7    1  0.3607059E-009  0.8595542E+02  0.7818608E-02  0.1312953E+00
          1   -1    0    0  501    0  0.00000000000E+00  0.00000000000E+00  0.30835270060E+02  0.30835270472E+02  0.50400000000E-02 0. -1.
         -1   -1    0    0    0  501 -0.00000000000E+00 -0.00000000000E+00 -0.59901642468E+02  0.59901642680E+02  0.50400000000E-02 0.  1.
         23    2    1    2    0    0  0.35527136788E-14 -0.88817841970E-15 -0.29066372408E+02  0.90736913151E+02  0.85955415206E+02 0.  0.
    9000005    2    3    3    0    0 -0.29415098174E+02  0.48972118396E+01  0.18001402274E+02  0.35017920896E+02  0.36018905663E+01 0.  0.
         22    1    3    3    0    0  0.29415098174E+02 -0.48972118396E+01 -0.47067774682E+02  0.55718992255E+02  0.00000000000E+00 0.  1.
         22    1    4    4    0    0 -0.38404978632E+01  0.45055501750E+00  0.38330941642E+01  0.54447253864E+01  0.00000000000E+00 0.  1.
         22    1    4    4    0    0 -0.25574600311E+02  0.44466568221E+01  0.14168308110E+02  0.29573195510E+02  0.00000000000E+00 0.  1.
<mgrwt>
<rscale>  0 0.85955415E+02</rscale>
<asrwt>0</asrwt>
<pdfrwt beam="1">  1        1 0.47438878E-02 0.85955415E+02</pdfrwt>
<pdfrwt beam="2">  1       -1 0.92156373E-02 0.85955415E+02</pdfrwt>
<totfact> 0.10299095E+05</totfact>
</mgrwt>
</event>
<event>
 7    1  0.3607059E-009  0.9476765E+02  0.7818608E-02  0.1291700E+00
          1   -1    0    0  501    0  0.00000000000E+00  0.00000000000E+00  0.25321386308E+02  0.25321386810E+02  0.50400000000E-02 0. -1.
         -1   -1    0    0    0  501 -0.00000000000E+00 -0.00000000000E+00 -0.88669186044E+02  0.88669186187E+02  0.50400000000E-02 0.  1.
         23    2    1    2    0    0  0.00000000000E+00  0.00000000000E+00 -0.63347799736E+02  0.11399057300E+03  0.94767647438E+02 0.  0.
    9000005    2    3    3    0    0  0.50931002425E+01 -0.20667237076E+02  0.16603437589E+02  0.31254397668E+02  0.15750837292E+02 0.  0.
         22    1    3    3    0    0 -0.50931002425E+01  0.20667237076E+02 -0.79951237325E+02  0.82736175330E+02  0.00000000000E+00 0.  1.
         22    1    4    4    0    0  0.51562273695E+01 -0.18151505870E+02  0.51950101547E+01  0.19571713685E+02  0.00000000000E+00 0. -1.
         22    1    4    4    0    0 -0.63127127059E-01 -0.25157312054E+01  0.11408427434E+02  0.11682683983E+02  0.00000000000E+00 0. -1.
<mgrwt>
<rscale>  0 0.94767647E+02</rscale>
<asrwt>0</asrwt>
<pdfrwt beam="1">  1        1 0.38955980E-02 0.94767647E+02</pdfrwt>
<pdfrwt beam="2">  1       -1 0.13641413E-01 0.94767647E+02</pdfrwt>
<totfact> 0.75299372E+04</totfact>
</mgrwt>
</event>
<event>
 7    1  0.3607059E-009  0.9221171E+02  0.7818608E-02  0.1297582E+00
         -1   -1    0    0    0  501 -0.00000000000E+00  0.00000000000E+00  0.33501051886E+02  0.33501052265E+02  0.50400000000E-02 0.  1.
          1   -1    0    0  501    0  0.00000000000E+00 -0.00000000000E+00 -0.63453226799E+02  0.63453226999E+02  0.50400000000E-02 0. -1.
         23    2    1    2    0    0 -0.44408920985E-15  0.00000000000E+00 -0.29952174913E+02  0.96954279265E+02  0.92211710133E+02 0.  0.
    9000005    2    3    3    0    0  0.25758027751E+01 -0.21820147401E+02 -0.57515428269E+02  0.61705356897E+02  0.40954838947E+01 0.  0.
         22    1    3    3    0    0 -0.25758027751E+01  0.21820147401E+02  0.27563253355E+02  0.35248922368E+02  0.00000000000E+00 0.  1.
         22    1    4    4    0    0  0.32158030138E+01 -0.13322785695E+02 -0.32243549406E+02  0.35035474679E+02  0.00000000000E+00 0. -1.
         22    1    4    4    0    0 -0.64000023862E+00 -0.84973617059E+01 -0.25271878863E+02  0.26669882218E+02  0.00000000000E+00 0. -1.
<mgrwt>
<rscale>  0 0.92211710E+02</rscale>
<asrwt>0</asrwt>
<pdfrwt beam="2">  1        1 0.97620350E-02 0.92211710E+02</pdfrwt>
<pdfrwt beam="1">  1       -1 0.51540080E-02 0.92211710E+02</pdfrwt>
<totfact> 0.94198739E+04</totfact>
</mgrwt>
</event>
<event>
 7    1  0.3607059E-009  0.9113953E+02  0.7818608E-02  0.1300115E+00
          1   -1    0    0  501    0  0.00000000000E+00  0.00000000000E+00  0.20445730158E+03  0.20445730165E+03  0.50400000000E-02 0. -1.
         -1   -1    0    0    0  501 -0.00000000000E+00 -0.00000000000E+00 -0.10156659514E+02  0.10156660764E+02  0.50400000000E-02 0.  1.
         23    2    1    2    0    0 -0.71054273576E-14 -0.88817841970E-15  0.19430064207E+03  0.21461396241E+03  0.91139526839E+02 0.  0.
    9000005    2    3    3    0    0 -0.39652215138E+02 -0.55926069644E+01  0.14534161824E+03  0.15136397085E+03  0.13538473361E+02 0.  0.
         22    1    3    3    0    0  0.39652215138E+02  0.55926069644E+01  0.48959023834E+02  0.63249991563E+02  0.00000000000E+00 0.  1.
         22    1    4    4    0    0 -0.28443065280E+02 -0.46319954330E+01  0.79363813855E+02  0.84433869352E+02  0.00000000000E+00 0. -1.
         22    1    4    4    0    0 -0.11209149858E+02 -0.96061153136E+00  0.65977804381E+02  0.66930101494E+02  0.00000000000E+00 0. -1.
<mgrwt>
<rscale>  0 0.91139527E+02</rscale>
<asrwt>0</asrwt>
<pdfrwt beam="1">  1        1 0.31454970E-01 0.91139527E+02</pdfrwt>
<pdfrwt beam="2">  1       -1 0.15625631E-02 0.91139527E+02</pdfrwt>
<totfact> 0.11904444E+05</totfact>
</mgrwt>
</event>
<event>
 7    1  0.3607059E-009  0.8803520E+02  0.7818608E-02  0.1307681E+00
         -1   -1    0    0    0  501 -0.00000000000E+00  0.00000000000E+00  0.61606554298E+01  0.61606574914E+01  0.50400000000E-02 0.  1.
          1   -1    0    0  501    0  0.00000000000E+00 -0.00000000000E+00 -0.31450368766E+03  0.31450368770E+03  0.50400000000E-02 0. -1.
         23    2    1    2    0    0  0.00000000000E+00  0.35527136788E-14 -0.30834303223E+03  0.32066434519E+03  0.88035201780E+02 0.  0.
    9000005    2    3    3    0    0 -0.28032696008E+02  0.31509435782E+02 -0.12522337435E+03  0.13275083932E+03  0.12775573041E+02 0.  0.
         22    1    3    3    0    0  0.28032696008E+02 -0.31509435782E+02 -0.18311965788E+03  0.18791350587E+03  0.00000000000E+00 0.  1.
         22    1    4    4    0    0 -0.12270747650E+01  0.89326379530E+01 -0.24915201256E+02  0.26496508957E+02  0.00000000000E+00 0.  1.
         22    1    4    4    0    0 -0.26805621243E+02  0.22576797829E+02 -0.10030817310E+03  0.10625433036E+03  0.00000000000E+00 0.  1.
<mgrwt>
<rscale>  0 0.88035202E+02</rscale>
<asrwt>0</asrwt>
<pdfrwt beam="2">  1        1 0.48385170E-01 0.88035202E+02</pdfrwt>
<pdfrwt beam="1">  1       -1 0.94779355E-03 0.88035202E+02</pdfrwt>
<totfact> 0.14189274E+05</totfact>
</mgrwt>
</event>
<event>
 7    1  0.3607059E-009  0.9265457E+02  0.7818608E-02  0.1296548E+00
          1   -1    0    0  501    0  0.00000000000E+00  0.00000000000E+00  0.25821042250E+03  0.25821042255E+03  0.50400000000E-02 0. -1.
         -1   -1    0    0    0  501 -0.00000000000E+00 -0.00000000000E+00 -0.83118918603E+01  0.83118933883E+01  0.50400000000E-02 0.  1.
         23    2    1    2    0    0 -0.17763568394E-14  0.00000000000E+00  0.24989853064E+03  0.26652231594E+03  0.92654569648E+02 0.  0.
    9000005    2    3    3    0    0 -0.14605549648E+02 -0.37124073190E+02  0.18965892920E+03  0.19427047532E+03  0.13378686999E+02 0.  0.
         22    1    3    3    0    0  0.14605549648E+02  0.37124073190E+02  0.60239601442E+02  0.72251840618E+02  0.00000000000E+00 0.  1.
         22    1    4    4    0    0 -0.16273960393E+02 -0.32967503421E+02  0.17848620393E+03  0.18223343014E+03  0.00000000000E+00 0. -1.
         22    1    4    4    0    0  0.16684107448E+01 -0.41565697691E+01  0.11172725268E+02  0.12037045176E+02  0.00000000000E+00 0. -1.
<mgrwt>
<rscale>  0 0.92654570E+02</rscale>
<asrwt>0</asrwt>
<pdfrwt beam="1">  1        1 0.39724681E-01 0.92654570E+02</pdfrwt>
<pdfrwt beam="2">  1       -1 0.12787527E-02 0.92654570E+02</pdfrwt>
<totfact> 0.11921390E+05</totfact>
</mgrwt>
</event>
<event>
 7    1  0.3607059E-009  0.9115727E+02  0.7818608E-02  0.1300073E+00
         -1   -1    0    0    0  501 -0.00000000000E+00  0.00000000000E+00  0.94510182007E+02  0.94510182141E+02  0.50400000000E-02 0.  1.
          1   -1    0    0  501    0  0.00000000000E+00 -0.00000000000E+00 -0.21980824438E+02  0.21980825016E+02  0.50400000000E-02 0. -1.
         23    2    1    2    0    0  0.00000000000E+00 -0.88817841970E-15  0.72529357569E+02  0.11649100716E+03  0.91157265421E+02 0.  0.
    9000005    2    3    3    0    0 -0.98780954002E+01  0.48564325070E+01  0.92122147780E+02  0.94017931406E+02  0.15222339144E+02 0.  0.
         22    1    3    3    0    0  0.98780954002E+01 -0.48564325070E+01 -0.19592790211E+02  0.22473075750E+02  0.00000000000E+00 0. -1.
         22    1    4    4    0    0 -0.79458549101E+01 -0.40668986180E+01  0.58546911518E+02  0.59223450786E+02  0.00000000000E+00 0. -1.
         22    1    4    4    0    0 -0.19322404901E+01  0.89233311249E+01  0.33575236261E+02  0.34794480621E+02  0.00000000000E+00 0. -1.
<mgrwt>
<rscale>  0 0.91157265E+02</rscale>
<asrwt>0</asrwt>
<pdfrwt beam="2">  1        1 0.33816653E-02 0.91157265E+02</pdfrwt>
<pdfrwt beam="1">  1       -1 0.14540028E-01 0.91157265E+02</pdfrwt>
<totfact> 0.82263717E+04</totfact>
</mgrwt>
</event>
<event>
 7    1  0.3607059E-009  0.9145788E+02  0.7818608E-02  0.1299359E+00
          1   -1    0    0  501    0  0.00000000000E+00  0.00000000000E+00  0.61927740250E+02  0.61927740455E+02  0.50400000000E-02 0. -1.
         -1   -1    0    0    0  501 -0.00000000000E+00 -0.00000000000E+00 -0.33767357301E+02  0.33767357677E+02  0.50400000000E-02 0.  1.
         23    2    1    2    0    0  0.17763568394E-14  0.00000000000E+00  0.28160382949E+02  0.95695098132E+02  0.91457884508E+02 0.  0.
    9000005    2    3    3    0    0  0.99585948116E+01 -0.26903061573E+02 -0.21233606707E+02  0.38574921778E+02  0.14635921692E+02 0.  0.
         22    1    3    3    0    0 -0.99585948116E+01  0.26903061573E+02  0.49393989656E+02  0.57120176354E+02  0.00000000000E+00 0. -1.
         22    1    4    4    0    0 -0.23880573806E+01 -0.58345894079E+01 -0.13934386619E+00  0.63059232730E+01  0.00000000000E+00 0. -1.
         22    1    4    4    0    0  0.12346652192E+02 -0.21068472165E+02 -0.21094262841E+02  0.32268998505E+02  0.00000000000E+00 0. -1.
<mgrwt>
<rscale>  0 0.91457885E+02</rscale>
<asrwt>0</asrwt>
<pdfrwt beam="1">  1        1 0.95273446E-02 0.91457885E+02</pdfrwt>
<pdfrwt beam="2">  1       -1 0.51949781E-02 0.91457885E+02</pdfrwt>
<totfact> 0.96011197E+04</totfact>
</mgrwt>
</event>
<event>
 7    1  0.3607059E-009  0.1002824E+03  0.7818608E-02  0.1279703E+00
          1   -1    0    0  501    0  0.00000000000E+00  0.00000000000E+00  0.73141695539E+02  0.73141695713E+02  0.50400000000E-02 0. -1.
         -1   -1    0    0    0  501 -0.00000000000E+00 -0.00000000000E+00 -0.34373533006E+02  0.34373533375E+02  0.50400000000E-02 0.  1.
         23    2    1    2    0    0 -0.17763568394E-14 -0.17763568394E-14  0.38768162534E+02  0.10751522909E+03  0.10028237163E+03 0.  0.
    9000005    2    3    3    0    0 -0.10243543089E+02 -0.14647335020E+02  0.69344047689E+02  0.72098293151E+02  0.83721160530E+01 0.  0.
         22    1    3    3    0    0  0.10243543089E+02  0.14647335020E+02 -0.30575885155E+02  0.35416935937E+02  0.00000000000E+00 0.  1.
         22    1    4    4    0    0 -0.10507998766E+02 -0.99700064934E+01  0.58842568626E+02  0.60599232257E+02  0.00000000000E+00 0. -1.
         22    1    4    4    0    0  0.26445567739E+00 -0.46773285264E+01  0.10501479062E+02  0.11499060894E+02  0.00000000000E+00 0. -1.
<mgrwt>
<rscale>  0 0.10028237E+03</rscale>
<asrwt>0</asrwt>
<pdfrwt beam="1">  1        1 0.11252569E-01 0.10028237E+03</pdfrwt>
<pdfrwt beam="2">  1       -1 0.52882359E-02 0.10028237E+03</pdfrwt>
<totfact> 0.76284241E+04</totfact>
</mgrwt>
</event>
<event>
 7    1  0.4277218E-009  0.8829225E+02  0.7818608E-02  0.1307041E+00
          1   -1    0    0  501    0  0.00000000000E+00  0.00000000000E+00  0.10372984714E+03  0.10372984726E+03  0.50400000000E-02 0. -1.
         -1   -1    0    0    0  501 -0.00000000000E+00 -0.00000000000E+00 -0.18788038830E+02  0.18788039506E+02  0.50400000000E-02 0.  1.
         23    2    1    2    0    0  0.71054273576E-14  0.00000000000E+00  0.84941808306E+02  0.12251788676E+03  0.88292252088E+02 0.  0.
    9000005    2    3    3    0    0 -0.35823684168E+02  0.22878208641E+02  0.35516771649E+02  0.57329060830E+02  0.14779423848E+02 0.  0.
         22    1    3    3    0    0  0.35823684168E+02 -0.22878208641E+02  0.49425036657E+02  0.65188825933E+02  0.00000000000E+00 0. -1.
         22    1    4    4    0    0 -0.84363558788E+00 -0.69743427245E+00 -0.10397915628E+01  0.15097357595E+01  0.00000000000E+00 0. -1.
         22    1    4    4    0    0 -0.34980048581E+02  0.23575642914E+02  0.36556563211E+02  0.55819325070E+02  0.00000000000E+00 0. -1.
<mgrwt>
<rscale>  0 0.88292252E+02</rscale>
<asrwt>0</asrwt>
<pdfrwt beam="1">  1        1 0.15958438E-01 0.88292252E+02</pdfrwt>
<pdfrwt beam="2">  1       -1 0.28904676E-02 0.88292252E+02</pdfrwt>
<totfact> 0.11467893E+05</totfact>
</mgrwt>
</event>
<event>
 7    1  0.3607059E-009  0.9024066E+02  0.7818608E-02  0.1302270E+00
         -1   -1    0    0    0  501 -0.00000000000E+00  0.00000000000E+00  0.30459252305E+03  0.30459252310E+03  0.50400000000E-02 0.  1.
          1   -1    0    0  501    0  0.00000000000E+00 -0.00000000000E+00 -0.66838276647E+01  0.66838295649E+01  0.50400000000E-02 0. -1.
         23    2    1    2    0    0  0.00000000000E+00  0.00000000000E+00  0.29790869539E+03  0.31127635266E+03  0.90240661218E+02 0.  0.
    9000005    2    3    3    0    0  0.25258586253E+02  0.30245063886E+02  0.88225584896E+02  0.97922733298E+02  0.15885458676E+02 0.  0.
         22    1    3    3    0    0 -0.25258586253E+02 -0.30245063886E+02  0.20968311049E+03  0.21335361936E+03  0.00000000000E+00 0.  1.
         22    1    4    4    0    0  0.21355267817E+02  0.28852315393E+02  0.64301026391E+02  0.73641873700E+02  0.00000000000E+00 0. -1.
         22    1    4    4    0    0  0.39033184362E+01  0.13927484928E+01  0.23924558504E+02  0.24280859598E+02  0.00000000000E+00 0. -1.
<mgrwt>
<rscale>  0 0.90240661E+02</rscale>
<asrwt>0</asrwt>
<pdfrwt beam="2">  1        1 0.10282816E-02 0.90240661E+02</pdfrwt>
<pdfrwt beam="1">  1       -1 0.46860374E-01 0.90240661E+02</pdfrwt>
<totfact> 0.61869238E+04</totfact>
</mgrwt>
</event>
<event>
 7    1  0.3607059E-009  0.8991529E+02  0.7818608E-02  0.1303057E+00
         -1   -1    0    0    0  501 -0.00000000000E+00  0.00000000000E+00  0.10207425405E+03  0.10207425417E+03  0.50400000000E-02 0.  1.
          1   -1    0    0  501    0  0.00000000000E+00 -0.00000000000E+00 -0.19801170442E+02  0.19801171083E+02  0.50400000000E-02 0. -1.
         23    2    1    2    0    0 -0.17763568394E-14  0.00000000000E+00  0.82273083606E+02  0.12187542526E+03  0.89915287883E+02 0.  0.
    9000005    2    3    3    0    0 -0.78189289321E+01 -0.36385491309E+02  0.10293024602E+02  0.40843527082E+02  0.13311939061E+02 0.  0.
         22    1    3    3    0    0  0.78189289321E+01  0.36385491309E+02  0.71980059004E+02  0.81031898174E+02  0.00000000000E+00 0.  1.
         22    1    4    4    0    0 -0.46616702261E+01 -0.18131730535E+02 -0.16636412371E+01  0.18795172882E+02  0.00000000000E+00 0. -1.
         22    1    4    4    0    0 -0.31572587059E+01 -0.18253760774E+02  0.11956665839E+02  0.22048354200E+02  0.00000000000E+00 0. -1.
<mgrwt>
<rscale>  0 0.89915288E+02</rscale>
<asrwt>0</asrwt>
<pdfrwt beam="2">  1        1 0.30463339E-02 0.89915288E+02</pdfrwt>
<pdfrwt beam="1">  1       -1 0.15703732E-01 0.89915288E+02</pdfrwt>
<totfact> 0.84018491E+04</totfact>
</mgrwt>
</event>
<event>
 7    1  0.3607059E-009  0.7685934E+02  0.7818608E-02  0.1338208E+00
          1   -1    0    0  501    0  0.00000000000E+00  0.00000000000E+00  0.17889580003E+03  0.17889580010E+03  0.50400000000E-02 0. -1.
         -1   -1    0    0    0  501 -0.00000000000E+00 -0.00000000000E+00 -0.82553049248E+01  0.82553064633E+01  0.50400000000E-02 0.  1.
         23    2    1    2    0    0  0.83266726847E-16  0.00000000000E+00  0.17064049510E+03  0.18715110656E+03  0.76859339826E+02 0.  0.
    9000005    2    3    3    0    0  0.18533579163E+00 -0.18101537714E+02  0.16759232663E+03  0.16879378247E+03  0.87437427064E+01 0.  0.
         22    1    3    3    0    0 -0.18533579163E+00  0.18101537714E+02  0.30481684723E+01  0.18357324097E+02  0.00000000000E+00 0.  1.
         22    1    4    4    0    0 -0.27939074578E+01 -0.94958382483E+01  0.11440914732E+03  0.11483653536E+03  0.00000000000E+00 0.  1.
         22    1    4    4    0    0  0.29792432494E+01 -0.86056994654E+01  0.53183179308E+02  0.53957247103E+02  0.00000000000E+00 0.  1.
<mgrwt>
<rscale>  0 0.76859340E+02</rscale>
<asrwt>0</asrwt>
<pdfrwt beam="1">  1        1 0.27522430E-01 0.76859340E+02</pdfrwt>
<pdfrwt beam="2">  1       -1 0.12700471E-02 0.76859340E+02</pdfrwt>
<totfact> 0.18258234E+05</totfact>
</mgrwt>
</event>
<event>
 7    1  0.3607059E-009  0.8188830E+02  0.7818608E-02  0.1323777E+00
         -1   -1    0    0    0  501 -0.00000000000E+00  0.00000000000E+00  0.29085006832E+01  0.29085050500E+01  0.50400000000E-02 0.  1.
          1   -1    0    0  501    0  0.00000000000E+00 -0.00000000000E+00 -0.57638712364E+03  0.57638712366E+03  0.50400000000E-02 0. -1.
         23    2    1    2    0    0  0.00000000000E+00  0.00000000000E+00 -0.57347862296E+03  0.57929562871E+03  0.81888304760E+02 0.  0.
    9000005    2    3    3    0    0 -0.40723333160E+01  0.36033415775E+02 -0.41609477594E+03  0.41778814823E+03  0.98530849275E+01 0.  0.
         22    1    3    3    0    0  0.40723333160E+01 -0.36033415775E+02 -0.15738384702E+03  0.16150748049E+03  0.00000000000E+00 0.  1.
         22    1    4    4    0    0 -0.46423163727E+01  0.31029007738E+02 -0.31250275465E+03  0.31407375262E+03  0.00000000000E+00 0.  1.
         22    1    4    4    0    0  0.56998305668E+00  0.50044080375E+01 -0.10359202129E+03  0.10371439561E+03  0.00000000000E+00 0.  1.
<mgrwt>
<rscale>  0 0.81888305E+02</rscale>
<asrwt>0</asrwt>
<pdfrwt beam="2">  1        1 0.88674852E-01 0.81888305E+02</pdfrwt>
<pdfrwt beam="1">  1       -1 0.44746244E-03 0.81888305E+02</pdfrwt>
<totfact> 0.18737661E+05</totfact>
</mgrwt>
</event>
<event>
 7    1  0.3607059E-009  0.8343463E+02  0.7818608E-02  0.1319578E+00
         -1   -1    0    0    0  501 -0.00000000000E+00  0.00000000000E+00  0.37912266796E+01  0.37912300296E+01  0.50400000000E-02 0.  1.
          1   -1    0    0  501    0  0.00000000000E+00 -0.00000000000E+00 -0.45904234672E+03  0.45904234674E+03  0.50400000000E-02 0. -1.
         23    2    1    2    0    0  0.88817841970E-15  0.00000000000E+00 -0.45525112004E+03  0.46283357677E+03  0.83434630067E+02 0.  0.
    9000005    2    3    3    0    0 -0.67550080701E+01  0.21429648468E+02 -0.42238188219E+03  0.42301841931E+03  0.57679027823E+01 0.  0.
         22    1    3    3    0    0  0.67550080701E+01 -0.21429648468E+02 -0.32869237846E+02  0.39815157466E+02  0.00000000000E+00 0.  1.
         22    1    4    4    0    0 -0.58247458868E+01  0.14338171129E+02 -0.32857885165E+03  0.32894311448E+03  0.00000000000E+00 0.  1.
         22    1    4    4    0    0 -0.93026218334E+00  0.70914773390E+01 -0.93803030543E+02  0.94075304824E+02  0.00000000000E+00 0.  1.
<mgrwt>
<rscale>  0 0.83434630E+02</rscale>
<asrwt>0</asrwt>
<pdfrwt beam="2">  1        1 0.70621856E-01 0.83434630E+02</pdfrwt>
<pdfrwt beam="1">  1       -1 0.58326627E-03 0.83434630E+02</pdfrwt>
<totfact> 0.17409501E+05</totfact>
</mgrwt>
</event>
<event>
 7    1  0.3607059E-009  0.9199249E+02  0.7818608E-02  0.1298097E+00
          1   -1    0    0  501    0  0.00000000000E+00  0.00000000000E+00  0.74148178226E+03  0.74148178227E+03  0.50400000000E-02 0. -1.
         -1   -1    0    0    0  501 -0.00000000000E+00 -0.00000000000E+00 -0.28532769979E+01  0.28532814492E+01  0.50400000000E-02 0.  1.
         23    2    1    2    0    0  0.00000000000E+00  0.44408920985E-15  0.73862850526E+03  0.74433506372E+03  0.91992490491E+02 0.  0.
    9000005    2    3    3    0    0 -0.17945334103E+02  0.36602503364E+01  0.70965454429E+03  0.71005791590E+03  0.15402572929E+02 0.  0.
         22    1    3    3    0    0  0.17945334103E+02 -0.36602503364E+01  0.28973960965E+02  0.34277147819E+02  0.00000000000E+00 0.  1.
         22    1    4    4    0    0 -0.70867351320E+01  0.87902387303E+01  0.42534845133E+03  0.42549829043E+03  0.00000000000E+00 0.  1.
         22    1    4    4    0    0 -0.10858598971E+02 -0.51299883939E+01  0.28430609296E+03  0.28455962547E+03  0.00000000000E+00 0.  1.
<mgrwt>
<rscale>  0 0.91992490E+02</rscale>
<asrwt>0</asrwt>
<pdfrwt beam="1">  1        1 0.11407413E+00 0.91992490E+02</pdfrwt>
<pdfrwt beam="2">  1       -1 0.43896599E-03 0.91992490E+02</pdfrwt>
<totfact> 0.13867060E+05</totfact>
</mgrwt>
</event>
<event>
 7    1  0.3607059E-009  0.1022809E+03  0.7818608E-02  0.1275571E+00
         -1   -1    0    0    0  501 -0.00000000000E+00  0.00000000000E+00  0.41696159338E+02  0.41696159643E+02  0.50400000000E-02 0.  1.
          1   -1    0    0  501    0  0.00000000000E+00 -0.00000000000E+00 -0.62723912664E+02  0.62723912867E+02  0.50400000000E-02 0. -1.
         23    2    1    2    0    0  0.00000000000E+00  0.00000000000E+00 -0.21027753326E+02  0.10442007251E+03  0.10228091285E+03 0.  0.
    9000005    2    3    3    0    0 -0.35232060023E+02  0.32271339665E+02  0.56259653021E+01  0.49710309816E+02  0.12519025488E+02 0.  0.
         22    1    3    3    0    0  0.35232060023E+02 -0.32271339665E+02 -0.26653718628E+02  0.54709762693E+02  0.00000000000E+00 0. -1.
         22    1    4    4    0    0 -0.29626418536E+02  0.25012579664E+02  0.92295051027E+01  0.39856462225E+02  0.00000000000E+00 0.  1.
         22    1    4    4    0    0 -0.56056414875E+01  0.72587600013E+01 -0.36035398005E+01  0.98538475905E+01  0.00000000000E+00 0.  1.
<mgrwt>
<rscale>  0 0.10228091E+03</rscale>
<asrwt>0</asrwt>
<pdfrwt beam="2">  1        1 0.96498327E-02 0.10228091E+03</pdfrwt>
<pdfrwt beam="1">  1       -1 0.64147938E-02 0.10228091E+03</pdfrwt>
<totfact> 0.70368791E+04</totfact>
</mgrwt>
</event>
<event>
 7    1  0.3607059E-009  0.9598297E+02  0.7818608E-02  0.1288977E+00
          1   -1    0    0  501    0  0.00000000000E+00  0.00000000000E+00  0.34268963237E+01  0.34269000299E+01  0.50400000000E-02 0. -1.
         -1   -1    0    0    0  501 -0.00000000000E+00 -0.00000000000E+00 -0.67208958622E+03  0.67208958624E+03  0.50400000000E-02 0.  1.
         23    2    1    2    0    0  0.00000000000E+00  0.00000000000E+00 -0.66866268990E+03  0.67551648627E+03  0.95982969122E+02 0.  0.
    9000005    2    3    3    0    0  0.10804557938E+02 -0.37960019852E+02 -0.52435730107E+03  0.52591118281E+03  0.86192480581E+01 0.  0.
         22    1    3    3    0    0 -0.10804557938E+02  0.37960019852E+02 -0.14430538883E+03  0.14960530346E+03  0.00000000000E+00 0.  1.
         22    1    4    4    0    0  0.46721437042E+01 -0.18392283428E+02 -0.30809465200E+03  0.30867850526E+03  0.00000000000E+00 0. -1.
         22    1    4    4    0    0  0.61324142341E+01 -0.19567736424E+02 -0.21626264907E+03  0.21723267755E+03  0.00000000000E+00 0. -1.
<mgrwt>
<rscale>  0 0.95982969E+02</rscale>
<asrwt>0</asrwt>
<pdfrwt beam="1">  1        1 0.52721564E-03 0.95982969E+02</pdfrwt>
<pdfrwt beam="2">  1       -1 0.10339829E+00 0.95982969E+02</pdfrwt>
<totfact> 0.33297046E+04</totfact>
</mgrwt>
</event>
<event>
 7    1  0.3607059E-009  0.8849046E+02  0.7818608E-02  0.1306549E+00
          1   -1    0    0  501    0  0.00000000000E+00  0.00000000000E+00  0.11731835953E+04  0.11731835954E+04  0.50400000000E-02 0. -1.
         -1   -1    0    0    0  501 -0.00000000000E+00 -0.00000000000E+00 -0.16686526301E+01  0.16686602415E+01  0.50400000000E-02 0.  1.
         23    2    1    2    0    0  0.00000000000E+00  0.00000000000E+00  0.11715149427E+04  0.11748522556E+04  0.88490459814E+02 0.  0.
    9000005    2    3    3    0    0  0.13543247679E+02 -0.16296682269E+01  0.11443348734E+04  0.11444412124E+04  0.75703996260E+01 0.  0.
         22    1    3    3    0    0 -0.13543247679E+02  0.16296682269E+01  0.27180069356E+02  0.30411043165E+02  0.00000000000E+00 0.  1.
         22    1    4    4    0    0  0.14001065306E+02 -0.23985153837E+01  0.96961267278E+03  0.96971672045E+03  0.00000000000E+00 0.  1.
         22    1    4    4    0    0 -0.45781762733E+00  0.76884715686E+00  0.17472220058E+03  0.17472449198E+03  0.00000000000E+00 0.  1.
<mgrwt>
<rscale>  0 0.88490460E+02</rscale>
<asrwt>0</asrwt>
<pdfrwt beam="1">  1        1 0.18048907E+00 0.88490460E+02</pdfrwt>
<pdfrwt beam="2">  1       -1 0.25671739E-03 0.88490460E+02</pdfrwt>
<totfact> 0.13919240E+05</totfact>
</mgrwt>
</event>
<event>
 7    1  0.3607059E-009  0.9120793E+02  0.7818608E-02  0.1299953E+00
         -1   -1    0    0    0  501 -0.00000000000E+00  0.00000000000E+00  0.20113133373E+03  0.20113133379E+03  0.50400000000E-02 0.  1.
          1   -1    0    0  501    0  0.00000000000E+00 -0.00000000000E+00 -0.10340117271E+02  0.10340118500E+02  0.50400000000E-02 0. -1.
         23    2    1    2    0    0  0.00000000000E+00  0.00000000000E+00  0.19079121646E+03  0.21147145229E+03  0.91207931985E+02 0.  0.
    9000005    2    3    3    0    0 -0.11504528773E+02  0.22380254795E+02  0.18324364207E+03  0.18519987323E+03  0.93557844040E+01 0.  0.
         22    1    3    3    0    0  0.11504528773E+02 -0.22380254795E+02  0.75475743928E+01  0.26271579057E+02  0.00000000000E+00 0. -1.
         22    1    4    4    0    0 -0.52176480605E+01  0.68223102734E+01  0.94061622217E+02  0.94452932950E+02  0.00000000000E+00 0.  1.
         22    1    4    4    0    0 -0.62868807125E+01  0.15557944521E+02  0.89182019849E+02  0.90746940285E+02  0.00000000000E+00 0.  1.
<mgrwt>
<rscale>  0 0.91207932E+02</rscale>
<asrwt>0</asrwt>
<pdfrwt beam="2">  1        1 0.15907874E-02 0.91207932E+02</pdfrwt>
<pdfrwt beam="1">  1       -1 0.30943282E-01 0.91207932E+02</pdfrwt>
<totfact> 0.69250816E+04</totfact>
</mgrwt>
</event>
<event>
 7    1  0.3607059E-009  0.9344584E+02  0.7818608E-02  0.1294715E+00
          1   -1    0    0  501    0  0.00000000000E+00  0.00000000000E+00  0.41382159446E+02  0.41382159753E+02  0.50400000000E-02 0. -1.
         -1   -1    0    0    0  501 -0.00000000000E+00 -0.00000000000E+00 -0.52752956474E+02  0.52752956715E+02  0.50400000000E-02 0.  1.
         23    2    1    2    0    0  0.00000000000E+00  0.00000000000E+00 -0.11370797028E+02  0.94135116467E+02  0.93445840610E+02 0.  0.
    9000005    2    3    3    0    0 -0.18377089723E+02 -0.20591863630E+02 -0.43425124361E+02  0.51835918186E+02  0.62832088882E+01 0.  0.
         22    1    3    3    0    0  0.18377089723E+02  0.20591863630E+02  0.32054327333E+02  0.42299198281E+02  0.00000000000E+00 0. -1.
         22    1    4    4    0    0 -0.43081320995E+01 -0.26099913405E+01 -0.11802384328E+02  0.12832315956E+02  0.00000000000E+00 0. -1.
         22    1    4    4    0    0 -0.14068957624E+02 -0.17981872289E+02 -0.31622740034E+02  0.39003602230E+02  0.00000000000E+00 0. -1.
<mgrwt>
<rscale>  0 0.93445841E+02</rscale>
<asrwt>0</asrwt>
<pdfrwt beam="1">  1        1 0.63664861E-02 0.93445841E+02</pdfrwt>
<pdfrwt beam="2">  1       -1 0.81158395E-02 0.93445841E+02</pdfrwt>
<totfact> 0.85011082E+04</totfact>
</mgrwt>
</event>
<event>
 7    1  0.3607059E-009  0.9460889E+02  0.7818608E-02  0.1292059E+00
          1   -1    0    0  501    0  0.00000000000E+00  0.00000000000E+00  0.91246922980E+02  0.91246923119E+02  0.50400000000E-02 0. -1.
         -1   -1    0    0    0  501 -0.00000000000E+00 -0.00000000000E+00 -0.24523681094E+02  0.24523681612E+02  0.50400000000E-02 0.  1.
         23    2    1    2    0    0  0.00000000000E+00  0.00000000000E+00  0.66723241886E+02  0.11577060473E+03  0.94608889181E+02 0.  0.
    9000005    2    3    3    0    0 -0.26091191406E+02 -0.28552976181E+02  0.65406293294E+02  0.77069738186E+02  0.12873951371E+02 0.  0.
         22    1    3    3    0    0  0.26091191406E+02  0.28552976181E+02  0.13169485920E+01  0.38700866545E+02  0.00000000000E+00 0.  1.
         22    1    4    4    0    0 -0.25770549717E+01 -0.11323180356E+02  0.18874415225E+02  0.22160757564E+02  0.00000000000E+00 0.  1.
         22    1    4    4    0    0 -0.23514136434E+02 -0.17229795824E+02  0.46531878069E+02  0.54908980622E+02  0.00000000000E+00 0.  1.
<mgrwt>
<rscale>  0 0.94608889E+02</rscale>
<asrwt>0</asrwt>
<pdfrwt beam="1">  1        1 0.14037988E-01 0.94608889E+02</pdfrwt>
<pdfrwt beam="2">  1       -1 0.37728741E-02 0.94608889E+02</pdfrwt>
<totfact> 0.92974412E+04</totfact>
</mgrwt>
</event>
<event>
 7    1  0.4367507E-009  0.9375871E+02  0.7818608E-02  0.1293996E+00
         -1   -1    0    0    0  501 -0.00000000000E+00  0.00000000000E+00  0.10174758261E+01  0.10174883087E+01  0.50400000000E-02 0.  1.
          1   -1    0    0  501    0  0.00000000000E+00 -0.00000000000E+00 -0.21599143256E+04  0.21599143256E+04  0.50400000000E-02 0. -1.
         23    2    1    2    0    0  0.00000000000E+00 -0.17763568394E-14 -0.21588968498E+04  0.21609318139E+04  0.93758713858E+02 0.  0.
    9000005    2    3    3    0    0 -0.15544258768E+02 -0.11226459623E+02 -0.20626127324E+04  0.20627570278E+04  0.15086894082E+02 0.  0.
         22    1    3    3    0    0  0.15544258768E+02  0.11226459623E+02 -0.96284117365E+02  0.98174786137E+02  0.00000000000E+00 0.  1.
         22    1    4    4    0    0 -0.80624285466E+01  0.51560907318E+00 -0.37577352721E+03  0.37586036285E+03  0.00000000000E+00 0. -1.
         22    1    4    4    0    0 -0.74818302217E+01 -0.11742068696E+02 -0.16868392052E+04  0.16868966650E+04  0.00000000000E+00 0. -1.
<mgrwt>
<rscale>  0 0.93758714E+02</rscale>
<asrwt>0</asrwt>
<pdfrwt beam="2">  1        1 0.33229084E+00 0.93758714E+02</pdfrwt>
<pdfrwt beam="1">  1       -1 0.15653743E-03 0.93758714E+02</pdfrwt>
<totfact> 0.65324464E+04</totfact>
</mgrwt>
</event>
<event>
 7    1  0.3607059E-009  0.9207065E+02  0.7818608E-02  0.1297913E+00
          1   -1    0    0  501    0  0.00000000000E+00  0.00000000000E+00  0.59953105520E+02  0.59953105732E+02  0.50400000000E-02 0. -1.
         -1   -1    0    0    0  501 -0.00000000000E+00 -0.00000000000E+00 -0.35348482177E+02  0.35348482536E+02  0.50400000000E-02 0.  1.
         23    2    1    2    0    0  0.71054273576E-14  0.00000000000E+00  0.24604623343E+02  0.95301588268E+02  0.92070653504E+02 0.  0.
    9000005    2    3    3    0    0  0.43251280705E+02 -0.14754343695E+02  0.14987544568E+02  0.48601993573E+02  0.70116579086E+01 0.  0.
         22    1    3    3    0    0 -0.43251280705E+02  0.14754343695E+02  0.96170787747E+01  0.46699594695E+02  0.00000000000E+00 0.  1.
         22    1    4    4    0    0  0.25594418049E+02 -0.10840534210E+02  0.61275783310E+01  0.28462934378E+02  0.00000000000E+00 0. -1.
         22    1    4    4    0    0  0.17656862656E+02 -0.39138094850E+01  0.88599662368E+01  0.20139059195E+02  0.00000000000E+00 0. -1.
<mgrwt>
<rscale>  0 0.92070654E+02</rscale>
<asrwt>0</asrwt>
<pdfrwt beam="1">  1        1 0.92235547E-02 0.92070654E+02</pdfrwt>
<pdfrwt beam="2">  1       -1 0.54382281E-02 0.92070654E+02</pdfrwt>
<totfact> 0.93782957E+04</totfact>
</mgrwt>
</event>
<event>
 7    1  0.3607059E-009  0.9055194E+02  0.7818608E-02  0.1301521E+00
         -1   -1    0    0    0  501 -0.00000000000E+00  0.00000000000E+00  0.89962539620E+02  0.89962539761E+02  0.50400000000E-02 0.  1.
          1   -1    0    0  501    0  0.00000000000E+00 -0.00000000000E+00 -0.22786297815E+02  0.22786298372E+02  0.50400000000E-02 0. -1.
         23    2    1    2    0    0  0.00000000000E+00  0.00000000000E+00  0.67176241805E+02  0.11274883813E+03  0.90551935581E+02 0.  0.
    9000005    2    3    3    0    0  0.18584650120E+02  0.23710533717E+01 -0.17230687323E+02  0.26287628340E+02  0.65674731756E+01 0.  0.
         22    1    3    3    0    0 -0.18584650120E+02 -0.23710533717E+01  0.84406929128E+02  0.86461209794E+02  0.00000000000E+00 0.  1.
         22    1    4    4    0    0  0.15791753777E+01  0.10029869936E+01  0.21924540097E+00  0.18835727564E+01  0.00000000000E+00 0.  1.
         22    1    4    4    0    0  0.17005474743E+02  0.13680663781E+01 -0.17449932724E+02  0.24404055583E+02  0.00000000000E+00 0.  1.
<mgrwt>
<rscale>  0 0.90551936E+02</rscale>
<asrwt>0</asrwt>
<pdfrwt beam="2">  1        1 0.35055843E-02 0.90551936E+02</pdfrwt>
<pdfrwt beam="1">  1       -1 0.13840391E-01 0.90551936E+02</pdfrwt>
<totfact> 0.84425336E+04</totfact>
</mgrwt>
</event>
<event>
 7    1  0.3607059E-009  0.9123956E+02  0.7818608E-02  0.1299877E+00
         -1   -1    0    0    0  501 -0.00000000000E+00  0.00000000000E+00  0.37447206017E+02  0.37447206357E+02  0.50400000000E-02 0.  1.
          1   -1    0    0  501    0  0.00000000000E+00 -0.00000000000E+00 -0.55575952267E+02  0.55575952495E+02  0.50400000000E-02 0. -1.
         23    2    1    2    0    0  0.00000000000E+00  0.00000000000E+00 -0.18128746250E+02  0.93023158852E+02  0.91239556346E+02 0.  0.
    9000005    2    3    3    0    0  0.30489962861E+02 -0.82216090452E+01  0.24264239368E+02  0.40161093813E+02  0.51891669416E+01 0.  0.
         22    1    3    3    0    0 -0.30489962861E+02  0.82216090452E+01 -0.42392985618E+02  0.52862065039E+02  0.00000000000E+00 0. -1.
         22    1    4    4    0    0  0.43329759460E+01 -0.29786852749E+01  0.30629681526E+01  0.60851475265E+01  0.00000000000E+00 0.  1.
         22    1    4    4    0    0  0.26156986915E+02 -0.52429237703E+01  0.21201271216E+02  0.34075946286E+02  0.00000000000E+00 0.  1.
<mgrwt>
<rscale>  0 0.91239556E+02</rscale>
<asrwt>0</asrwt>
<pdfrwt beam="2">  1        1 0.85501465E-02 0.91239556E+02</pdfrwt>
<pdfrwt beam="1">  1       -1 0.57611087E-02 0.91239556E+02</pdfrwt>
<totfact> 0.95081995E+04</totfact>
</mgrwt>
</event>
<event>
 7    1  0.3607059E-009  0.9164952E+02  0.7818608E-02  0.1298906E+00
          1   -1    0    0  501    0  0.00000000000E+00  0.00000000000E+00  0.23668188425E+02  0.23668188962E+02  0.50400000000E-02 0. -1.
         -1   -1    0    0    0  501 -0.00000000000E+00 -0.00000000000E+00 -0.88722819700E+02  0.88722819843E+02  0.50400000000E-02 0.  1.
         23    2    1    2    0    0  0.35527136788E-14  0.00000000000E+00 -0.65054631275E+02  0.11239100881E+03  0.91649516147E+02 0.  0.
    9000005    2    3    3    0    0 -0.21110989747E+02  0.19998754770E+02 -0.75857733928E+02  0.81369546761E+02  0.45807491796E+01 0.  0.
         22    1    3    3    0    0  0.21110989747E+02 -0.19998754770E+02  0.10803102653E+02  0.31021462044E+02  0.00000000000E+00 0. -1.
         22    1    4    4    0    0 -0.13102144914E+02  0.10858522014E+02 -0.38729456387E+02  0.42303008093E+02  0.00000000000E+00 0.  1.
         22    1    4    4    0    0 -0.80088448333E+01  0.91402327560E+01 -0.37128277541E+02  0.39066538669E+02  0.00000000000E+00 0.  1.
<mgrwt>
<rscale>  0 0.91649516E+02</rscale>
<asrwt>0</asrwt>
<pdfrwt beam="1">  1        1 0.36412599E-02 0.91649516E+02</pdfrwt>
<pdfrwt beam="2">  1       -1 0.13649664E-01 0.91649516E+02</pdfrwt>
<totfact> 0.82054210E+04</totfact>
</mgrwt>
</event>
<event>
 7    1  0.3607059E-009  0.8809442E+02  0.7818608E-02  0.1307533E+00
          1   -1    0    0  501    0  0.00000000000E+00  0.00000000000E+00  0.76061946757E+01  0.76061963455E+01  0.50400000000E-02 0. -1.
         -1   -1    0    0    0  501 -0.00000000000E+00 -0.00000000000E+00 -0.25507581404E+03  0.25507581409E+03  0.50400000000E-02 0.  1.
         23    2    1    2    0    0  0.00000000000E+00  0.00000000000E+00 -0.24746961937E+03  0.26268201044E+03  0.88094415817E+02 0.  0.
    9000005    2    3    3    0    0  0.27228705663E+02  0.14716660360E+02 -0.21528909898E+03  0.21803261630E+03  0.15193522589E+02 0.  0.
         22    1    3    3    0    0 -0.27228705663E+02 -0.14716660360E+02 -0.32180520391E+02  0.44649394138E+02  0.00000000000E+00 0. -1.
         22    1    4    4    0    0  0.10351820881E+02 -0.20345095697E+01 -0.75926684451E+02  0.76656120672E+02  0.00000000000E+00 0. -1.
         22    1    4    4    0    0  0.16876884782E+02  0.16751169930E+02 -0.13936241453E+03  0.14137649563E+03  0.00000000000E+00 0. -1.
<mgrwt>
<rscale>  0 0.88094416E+02</rscale>
<asrwt>0</asrwt>
<pdfrwt beam="1">  1        1 0.11701841E-02 0.88094416E+02</pdfrwt>
<pdfrwt beam="2">  1       -1 0.39242427E-01 0.88094416E+02</pdfrwt>
<totfact> 0.70355679E+04</totfact>
</mgrwt>
</event>
<event>
 7    1  0.3607059E-009  0.9061852E+02  0.7818608E-02  0.1301361E+00
         -1   -1    0    0    0  501 -0.00000000000E+00  0.00000000000E+00  0.33554546031E+02  0.33554546409E+02  0.50400000000E-02 0.  1.
          1   -1    0    0  501    0  0.00000000000E+00 -0.00000000000E+00 -0.61181850902E+02  0.61181851110E+02  0.50400000000E-02 0. -1.
         23    2    1    2    0    0  0.44408920985E-15  0.00000000000E+00 -0.27627304871E+02  0.94736397519E+02  0.90618524820E+02 0.  0.
    9000005    2    3    3    0    0 -0.23538374633E+01 -0.18245299895E+02 -0.56039827910E+02  0.60888162936E+02  0.15115374772E+02 0.  0.
         22    1    3    3    0    0  0.23538374633E+01  0.18245299895E+02  0.28412523038E+02  0.33848234584E+02  0.00000000000E+00 0.  1.
         22    1    4    4    0    0  0.33432737744E+01 -0.28503226169E+01 -0.28426927747E+02  0.28764423159E+02  0.00000000000E+00 0. -1.
         22    1    4    4    0    0 -0.56971112377E+01 -0.15394977278E+02 -0.27612900163E+02  0.32123739776E+02  0.00000000000E+00 0. -1.
<mgrwt>
<rscale>  0 0.90618525E+02</rscale>
<asrwt>0</asrwt>
<pdfrwt beam="2">  1        1 0.94125925E-02 0.90618525E+02</pdfrwt>
<pdfrwt beam="1">  1       -1 0.51622379E-02 0.90618525E+02</pdfrwt>
<totfact> 0.98314476E+04</totfact>
</mgrwt>
</event>
<event>
 7    1  0.3607059E-009  0.9164539E+02  0.7818608E-02  0.1298915E+00
         -1   -1    0    0    0  501 -0.00000000000E+00  0.00000000000E+00  0.94057397832E+02  0.94057397967E+02  0.50400000000E-02 0.  1.
          1   -1    0    0  501    0  0.00000000000E+00 -0.00000000000E+00 -0.22323807117E+02  0.22323807686E+02  0.50400000000E-02 0. -1.
         23    2    1    2    0    0 -0.17763568394E-14  0.17763568394E-14  0.71733590715E+02  0.11638120565E+03  0.91645387185E+02 0.  0.
    9000005    2    3    3    0    0  0.10869682345E+02  0.13657979730E+02  0.89201817676E+02  0.91686482376E+02  0.12031474107E+02 0.  0.
         22    1    3    3    0    0 -0.10869682345E+02 -0.13657979730E+02 -0.17468226961E+02  0.24694723277E+02  0.00000000000E+00 0. -1.
         22    1    4    4    0    0  0.37732919831E+01  0.13073055063E+02  0.48774301847E+02  0.50636696394E+02  0.00000000000E+00 0. -1.
         22    1    4    4    0    0  0.70963903617E+01  0.58492466717E+00  0.40427515829E+02  0.41049785982E+02  0.00000000000E+00 0. -1.
<mgrwt>
<rscale>  0 0.91645387E+02</rscale>
<asrwt>0</asrwt>
<pdfrwt beam="2">  1        1 0.34344319E-02 0.91645387E+02</pdfrwt>
<pdfrwt beam="1">  1       -1 0.14470369E-01 0.91645387E+02</pdfrwt>
<totfact> 0.81211124E+04</totfact>
</mgrwt>
</event>
<event>
 7    1  0.3607059E-009  0.8698237E+02  0.7818608E-02  0.1310328E+00
         -1   -1    0    0    0  501 -0.00000000000E+00  0.00000000000E+00  0.11828842063E+03  0.11828842074E+03  0.50400000000E-02 0.  1.
          1   -1    0    0  501    0  0.00000000000E+00 -0.00000000000E+00 -0.15990434226E+02  0.15990435020E+02  0.50400000000E-02 0. -1.
         23    2    1    2    0    0 -0.88817841970E-15  0.35527136788E-14  0.10229798640E+03  0.13427885576E+03  0.86982372243E+02 0.  0.
    9000005    2    3    3    0    0  0.61986632935E+01 -0.17178842081E+02  0.11178558406E+03  0.11369851195E+03  0.98893263686E+01 0.  0.
         22    1    3    3    0    0 -0.61986632935E+01  0.17178842081E+02 -0.94875976516E+01  0.20580343803E+02  0.00000000000E+00 0. -1.
         22    1    4    4    0    0  0.10354277023E+01 -0.40716794792E+00  0.89476774936E+00  0.14277624416E+01  0.00000000000E+00 0.  1.
         22    1    4    4    0    0  0.51632355912E+01 -0.16771674133E+02  0.11089081631E+03  0.11227074951E+03  0.00000000000E+00 0.  1.
<mgrwt>
<rscale>  0 0.86982372E+02</rscale>
<asrwt>0</asrwt>
<pdfrwt beam="2">  1        1 0.24600668E-02 0.86982372E+02</pdfrwt>
<pdfrwt beam="1">  1       -1 0.18198219E-01 0.86982372E+02</pdfrwt>
<totfact> 0.88935553E+04</totfact>
</mgrwt>
</event>
<event>
 7    1  0.3607059E-009  0.9100699E+02  0.7818608E-02  0.1300431E+00
         -1   -1    0    0    0  501 -0.00000000000E+00  0.00000000000E+00  0.19114170446E+03  0.19114170453E+03  0.50400000000E-02 0.  1.
          1   -1    0    0  501    0  0.00000000000E+00 -0.00000000000E+00 -0.10832632654E+02  0.10832633827E+02  0.50400000000E-02 0. -1.
         23    2    1    2    0    0 -0.35527136788E-14  0.00000000000E+00  0.18030907181E+03  0.20197433835E+03  0.91006988620E+02 0.  0.
    9000005    2    3    3    0    0 -0.26832287809E+02 -0.32479504478E+02  0.12748694856E+03  0.13440906188E+03  0.61631147297E+01 0.  0.
         22    1    3    3    0    0  0.26832287809E+02  0.32479504478E+02  0.52822123247E+02  0.67565276470E+02  0.00000000000E+00 0. -1.
         22    1    4    4    0    0 -0.16309112934E+02 -0.17310542131E+02  0.79969939359E+02  0.83431608127E+02  0.00000000000E+00 0.  1.
         22    1    4    4    0    0 -0.10523174874E+02 -0.15168962347E+02  0.47517009201E+02  0.50977453757E+02  0.00000000000E+00 0.  1.
<mgrwt>
<rscale>  0 0.91006989E+02</rscale>
<asrwt>0</asrwt>
<pdfrwt beam="2">  1        1 0.16665590E-02 0.91006989E+02</pdfrwt>
<pdfrwt beam="1">  1       -1 0.29406416E-01 0.91006989E+02</pdfrwt>
<totfact> 0.70657821E+04</totfact>
</mgrwt>
</event>
<event>
 7    1  0.3607059E-009  0.9200624E+02  0.7818608E-02  0.1298065E+00
         -1   -1    0    0    0  501 -0.00000000000E+00  0.00000000000E+00  0.17729272144E+03  0.17729272152E+03  0.50400000000E-02 0.  1.
          1   -1    0    0  501    0  0.00000000000E+00 -0.00000000000E+00 -0.11936683427E+02  0.11936684491E+02  0.50400000000E-02 0. -1.
         23    2    1    2    0    0 -0.35527136788E-14  0.00000000000E+00  0.16535603802E+03  0.18922940601E+03  0.92006243207E+02 0.  0.
    9000005    2    3    3    0    0 -0.26818500292E+02 -0.30066332263E+02  0.44328142693E+02  0.61671702437E+02  0.14669640525E+02 0.  0.
         22    1    3    3    0    0  0.26818500292E+02  0.30066332263E+02  0.12102789532E+03  0.12755770357E+03  0.00000000000E+00 0.  1.
         22    1    4    4    0    0 -0.26621241985E+02 -0.30578019454E+02  0.45151468928E+02  0.60682459944E+02  0.00000000000E+00 0.  1.
         22    1    4    4    0    0 -0.19725830706E+00  0.51168719045E+00 -0.82332623458E+00  0.98924249258E+00  0.00000000000E+00 0.  1.
<mgrwt>
<rscale>  0 0.92006243E+02</rscale>
<asrwt>0</asrwt>
<pdfrwt beam="2">  1        1 0.18364132E-02 0.92006243E+02</pdfrwt>
<pdfrwt beam="1">  1       -1 0.27275799E-01 0.92006243E+02</pdfrwt>
<totfact> 0.70083256E+04</totfact>
</mgrwt>
</event>
<event>
 7    1  0.3646616E-009  0.9253895E+02  0.7818608E-02  0.1296817E+00
         -1   -1    0    0    0  501 -0.00000000000E+00  0.00000000000E+00  0.29369492309E+01  0.29369535554E+01  0.50400000000E-02 0. -1.
          1   -1    0    0  501    0  0.00000000000E+00 -0.00000000000E+00 -0.72894096864E+03  0.72894096866E+03  0.50400000000E-02 0.  1.
         23    2    1    2    0    0  0.00000000000E+00  0.71054273576E-14 -0.72600401941E+03  0.73187792221E+03  0.92538947608E+02 0.  0.
    9000005    2    3    3    0    0  0.24606673998E+02 -0.27957176014E+02 -0.57267550569E+03  0.57409096072E+03  0.15365684959E+02 0.  0.
         22    1    3    3    0    0 -0.24606673998E+02  0.27957176014E+02 -0.15332851372E+03  0.15778696149E+03  0.00000000000E+00 0. -1.
         22    1    4    4    0    0  0.15117170685E+01  0.18648682130E+01 -0.23735728503E+02  0.23856819350E+02  0.00000000000E+00 0.  1.
         22    1    4    4    0    0  0.23094956929E+02 -0.29822044227E+02 -0.54893977719E+03  0.55023414137E+03  0.00000000000E+00 0.  1.
<mgrwt>
<rscale>  0 0.92538948E+02</rscale>
<asrwt>0</asrwt>
<pdfrwt beam="2">  1        1 0.11214462E+00 0.92538948E+02</pdfrwt>
<pdfrwt beam="1">  1       -1 0.45183926E-03 0.92538948E+02</pdfrwt>
<totfact> 0.13659456E+05</totfact>
</mgrwt>
</event>
<event>
 7    1  0.3607059E-009  0.9041925E+02  0.7818608E-02  0.1301840E+00
         -1   -1    0    0    0  501 -0.00000000000E+00  0.00000000000E+00  0.11578685267E+02  0.11578686364E+02  0.50400000000E-02 0.  1.
          1   -1    0    0  501    0  0.00000000000E+00 -0.00000000000E+00 -0.17652349739E+03  0.17652349746E+03  0.50400000000E-02 0. -1.
         23    2    1    2    0    0  0.00000000000E+00  0.35527136788E-14 -0.16494481212E+03  0.18810218383E+03  0.90419248580E+02 0.  0.
    9000005    2    3    3    0    0 -0.28813105727E+02 -0.23997299877E+02 -0.31764900760E+02  0.49744118454E+02  0.77073301081E+01 0.  0.
         22    1    3    3    0    0  0.28813105727E+02  0.23997299877E+02 -0.13317991136E+03  0.13835806537E+03  0.00000000000E+00 0. -1.
         22    1    4    4    0    0 -0.22546068490E+02 -0.22252835117E+02 -0.27638609746E+02  0.42040535484E+02  0.00000000000E+00 0.  1.
         22    1    4    4    0    0 -0.62670372375E+01 -0.17444647596E+01 -0.41262910139E+01  0.77035829693E+01  0.00000000000E+00 0.  1.
<mgrwt>
<rscale>  0 0.90419249E+02</rscale>
<asrwt>0</asrwt>
<pdfrwt beam="2">  1        1 0.27157459E-01 0.90419249E+02</pdfrwt>
<pdfrwt beam="1">  1       -1 0.17813364E-02 0.90419249E+02</pdfrwt>
<totfact> 0.11821439E+05</totfact>
</mgrwt>
</event>
<event>
 7    1  0.3607059E-009  0.9232539E+02  0.7818608E-02  0.1297316E+00
         -1   -1    0    0    0  501 -0.00000000000E+00  0.00000000000E+00  0.68458141032E+01  0.68458159585E+01  0.50400000000E-02 0.  1.
          1   -1    0    0  501    0  0.00000000000E+00 -0.00000000000E+00 -0.31128426233E+03  0.31128426237E+03  0.50400000000E-02 0. -1.
         23    2    1    2    0    0 -0.22204460493E-15  0.00000000000E+00 -0.30443844823E+03  0.31813007833E+03  0.92325391843E+02 0.  0.
    9000005    2    3    3    0    0  0.18581926892E+01  0.40425665992E+02 -0.22714587022E+03  0.23088427633E+03  0.86380176654E+01 0.  0.
         22    1    3    3    0    0 -0.18581926892E+01 -0.40425665992E+02 -0.77292578009E+02  0.87245801998E+02  0.00000000000E+00 0.  1.
         22    1    4    4    0    0 -0.77006151657E+00  0.30747161347E+01 -0.33644639353E+02  0.33793618203E+02  0.00000000000E+00 0. -1.
         22    1    4    4    0    0  0.26282542058E+01  0.37350949857E+02 -0.19350123086E+03  0.19709065813E+03  0.00000000000E+00 0. -1.
<mgrwt>
<rscale>  0 0.92325392E+02</rscale>
<asrwt>0</asrwt>
<pdfrwt beam="2">  1        1 0.47889876E-01 0.92325392E+02</pdfrwt>
<pdfrwt beam="1">  1       -1 0.10532026E-02 0.92325392E+02</pdfrwt>
<totfact> 0.12478597E+05</totfact>
</mgrwt>
</event>
<event>
 7    1  0.3607059E-009  0.9117105E+02  0.7818608E-02  0.1300040E+00
          1   -1    0    0  501    0  0.00000000000E+00  0.00000000000E+00  0.27685027024E+02  0.27685027483E+02  0.50400000000E-02 0. -1.
         -1   -1    0    0    0  501 -0.00000000000E+00 -0.00000000000E+00 -0.75060073460E+02  0.75060073629E+02  0.50400000000E-02 0.  1.
         23    2    1    2    0    0  0.00000000000E+00  0.00000000000E+00 -0.47375046436E+02  0.10274510111E+03  0.91171052301E+02 0.  0.
    9000005    2    3    3    0    0  0.24363017194E+02 -0.38196294543E+02 -0.24174277329E+02  0.51845305329E+02  0.71432819237E+01 0.  0.
         22    1    3    3    0    0 -0.24363017194E+02  0.38196294543E+02 -0.23200769107E+02  0.50899795783E+02  0.00000000000E+00 0. -1.
         22    1    4    4    0    0  0.11942355142E+02 -0.22958532079E+02 -0.16775635908E+02  0.30840492890E+02  0.00000000000E+00 0.  1.
         22    1    4    4    0    0  0.12420662052E+02 -0.15237762464E+02 -0.73986414206E+01  0.21004812439E+02  0.00000000000E+00 0.  1.
<mgrwt>
<rscale>  0 0.91171052E+02</rscale>
<asrwt>0</asrwt>
<pdfrwt beam="1">  1        1 0.42592350E-02 0.91171052E+02</pdfrwt>
<pdfrwt beam="2">  1       -1 0.11547704E-01 0.91171052E+02</pdfrwt>
<totfact> 0.85571415E+04</totfact>
</mgrwt>
</event>
<event>
 7    1  0.3607059E-009  0.9108622E+02  0.7818608E-02  0.1300242E+00
          1   -1    0    0  501    0  0.00000000000E+00  0.00000000000E+00  0.26641018805E+03  0.26641018810E+03  0.50400000000E-02 0. -1.
         -1   -1    0    0    0  501 -0.00000000000E+00 -0.00000000000E+00 -0.77856437014E+01  0.77856453327E+01  0.50400000000E-02 0.  1.
         23    2    1    2    0    0  0.00000000000E+00  0.00000000000E+00  0.25862454435E+03  0.27419583343E+03  0.91086223608E+02 0.  0.
    9000005    2    3    3    0    0  0.48293533601E+01 -0.36368643902E+02  0.20959752895E+03  0.21296145459E+03  0.86865462558E+01 0.  0.
         22    1    3    3    0    0 -0.48293533601E+01  0.36368643902E+02  0.49027015398E+02  0.61234378840E+02  0.00000000000E+00 0.  1.
         22    1    4    4    0    0  0.30094251335E+01 -0.30261854171E+02  0.15199003398E+03  0.15500260284E+03  0.00000000000E+00 0.  1.
         22    1    4    4    0    0  0.18199282266E+01 -0.61067897304E+01  0.57607494977E+02  0.57958851758E+02  0.00000000000E+00 0.  1.
<mgrwt>
<rscale>  0 0.91086224E+02</rscale>
<asrwt>0</asrwt>
<pdfrwt beam="1">  1        1 0.40986184E-01 0.91086224E+02</pdfrwt>
<pdfrwt beam="2">  1       -1 0.11977914E-02 0.91086224E+02</pdfrwt>
<totfact> 0.12554778E+05</totfact>
</mgrwt>
</event>
<event>
 7    1  0.3607059E-009  0.9768764E+02  0.7818608E-02  0.1285235E+00
          1   -1    0    0  501    0  0.00000000000E+00  0.00000000000E+00  0.30223887939E+02  0.30223888359E+02  0.50400000000E-02 0. -1.
         -1   -1    0    0    0  501 -0.00000000000E+00 -0.00000000000E+00 -0.78934867534E+02  0.78934867695E+02  0.50400000000E-02 0.  1.
         23    2    1    2    0    0  0.35527136788E-14  0.71054273576E-14 -0.48710979595E+02  0.10915875605E+03  0.97687637345E+02 0.  0.
    9000005    2    3    3    0    0 -0.22949244385E+02 -0.31256072997E+02 -0.56291842100E+02  0.69648258799E+02  0.13360334941E+02 0.  0.
         22    1    3    3    0    0  0.22949244385E+02  0.31256072997E+02  0.75808625051E+01  0.39510497255E+02  0.00000000000E+00 0. -1.
         22    1    4    4    0    0 -0.47196856807E+00  0.13230323299E+01 -0.14934703015E+01  0.20502737419E+01  0.00000000000E+00 0. -1.
         22    1    4    4    0    0 -0.22477275817E+02 -0.32579105326E+02 -0.54798371798E+02  0.67597985057E+02  0.00000000000E+00 0. -1.
<mgrwt>
<rscale>  0 0.97687637E+02</rscale>
<asrwt>0</asrwt>
<pdfrwt beam="1">  1        1 0.46498290E-02 0.97687637E+02</pdfrwt>
<pdfrwt beam="2">  1       -1 0.12143826E-01 0.97687637E+02</pdfrwt>
<totfact> 0.71096978E+04</totfact>
</mgrwt>
</event>
<event>
 7    1  0.3607059E-009  0.9155306E+02  0.7818608E-02  0.1299134E+00
          1   -1    0    0  501    0  0.00000000000E+00  0.00000000000E+00  0.79672708949E+01  0.79672724890E+01  0.50400000000E-02 0. -1.
         -1   -1    0    0    0  501 -0.00000000000E+00 -0.00000000000E+00 -0.26301231718E+03  0.26301231723E+03  0.50400000000E-02 0.  1.
         23    2    1    2    0    0  0.00000000000E+00  0.00000000000E+00 -0.25504504629E+03  0.27097958972E+03  0.91553057889E+02 0.  0.
    9000005    2    3    3    0    0 -0.38484360187E+02 -0.23610702158E+02 -0.13929144030E+03  0.14673222140E+03  0.94724981104E+01 0.  0.
         22    1    3    3    0    0  0.38484360187E+02  0.23610702158E+02 -0.11575360598E+03  0.12424736831E+03  0.00000000000E+00 0.  1.
         22    1    4    4    0    0 -0.18099288424E+02 -0.16493912537E+02 -0.70478028530E+02  0.74610896642E+02  0.00000000000E+00 0. -1.
         22    1    4    4    0    0 -0.20385071763E+02 -0.71167896210E+01 -0.68813411774E+02  0.72121324761E+02  0.00000000000E+00 0. -1.
<mgrwt>
<rscale>  0 0.91553058E+02</rscale>
<asrwt>0</asrwt>
<pdfrwt beam="1">  1        1 0.12257343E-02 0.91553058E+02</pdfrwt>
<pdfrwt beam="2">  1       -1 0.40463427E-01 0.91553058E+02</pdfrwt>
<totfact> 0.62955478E+04</totfact>
</mgrwt>
</event>
<event>
 7    1  0.3607059E-009  0.8754448E+02  0.7818608E-02  0.1308909E+00
          1   -1    0    0  501    0  0.00000000000E+00  0.00000000000E+00  0.18431002485E+01  0.18431071395E+01  0.50400000000E-02 0. -1.
         -1   -1    0    0    0  501 -0.00000000000E+00 -0.00000000000E+00 -0.10395556207E+04  0.10395556207E+04  0.50400000000E-02 0.  1.
         23    2    1    2    0    0  0.00000000000E+00  0.00000000000E+00 -0.10377125204E+04  0.10413987278E+04  0.87544475950E+02 0.  0.
    9000005    2    3    3    0    0 -0.26530074628E+02  0.16059556353E+02 -0.88033612952E+03  0.88099585184E+03  0.14150470373E+02 0.  0.
         22    1    3    3    0    0  0.26530074628E+02 -0.16059556353E+02 -0.15737639092E+03  0.16040287600E+03  0.00000000000E+00 0. -1.
         22    1    4    4    0    0 -0.10031984975E+02  0.15694347676E+01 -0.15792887077E+03  0.15825495907E+03  0.00000000000E+00 0. -1.
         22    1    4    4    0    0 -0.16498089652E+02  0.14490121586E+02 -0.72240725875E+03  0.72274089277E+03  0.00000000000E+00 0. -1.
<mgrwt>
<rscale>  0 0.87544476E+02</rscale>
<asrwt>0</asrwt>
<pdfrwt beam="1">  1        1 0.28355525E-03 0.87544476E+02</pdfrwt>
<pdfrwt beam="2">  1       -1 0.15993117E+00 0.87544476E+02</pdfrwt>
<totfact> 0.27200034E+04</totfact>
</mgrwt>
</event>
<event>
 7    1  0.3607059E-009  0.9135092E+02  0.7818608E-02  0.1299613E+00
          1   -1    0    0  501    0  0.00000000000E+00  0.00000000000E+00  0.52735590401E+02  0.52735590642E+02  0.50400000000E-02 0. -1.
         -1   -1    0    0    0  501 -0.00000000000E+00 -0.00000000000E+00 -0.39560522696E+02  0.39560523017E+02  0.50400000000E-02 0.  1.
         23    2    1    2    0    0  0.00000000000E+00  0.00000000000E+00  0.13175067705E+02  0.92296113660E+02  0.91350917826E+02 0.  0.
    9000005    2    3    3    0    0 -0.94888993698E+01 -0.17114028347E+02 -0.34430514104E+02  0.40825533743E+02  0.99163867622E+01 0.  0.
         22    1    3    3    0    0  0.94888993698E+01  0.17114028347E+02  0.47605581809E+02  0.51470579916E+02  0.00000000000E+00 0. -1.
         22    1    4    4    0    0 -0.92972022105E+01 -0.71107189690E+01 -0.21460784923E+02  0.24445154586E+02  0.00000000000E+00 0.  1.
         22    1    4    4    0    0 -0.19169715927E+00 -0.10003309378E+02 -0.12969729181E+02  0.16380379157E+02  0.00000000000E+00 0.  1.
<mgrwt>
<rscale>  0 0.91350918E+02</rscale>
<asrwt>0</asrwt>
<pdfrwt beam="1">  1        1 0.81131678E-02 0.91350918E+02</pdfrwt>
<pdfrwt beam="2">  1       -1 0.60862343E-02 0.91350918E+02</pdfrwt>
<totfact> 0.94014624E+04</totfact>
</mgrwt>
</event>
<event>
 7    1  0.3607059E-009  0.9394129E+02  0.7818608E-02  0.1293579E+00
         -1   -1    0    0    0  501 -0.00000000000E+00  0.00000000000E+00  0.14336491154E+02  0.14336492040E+02  0.50400000000E-02 0.  1.
          1   -1    0    0  501    0  0.00000000000E+00 -0.00000000000E+00 -0.15388991839E+03  0.15388991847E+03  0.50400000000E-02 0. -1.
         23    2    1    2    0    0  0.88817841970E-15 -0.35527136788E-14 -0.13955342724E+03  0.16822641051E+03  0.93941290926E+02 0.  0.
    9000005    2    3    3    0    0  0.54246133963E+01 -0.29933721346E+02 -0.13306202489E+03  0.13712026308E+03  0.13077078166E+02 0.  0.
         22    1    3    3    0    0 -0.54246133963E+01  0.29933721346E+02 -0.64914023452E+01  0.31106147439E+02  0.00000000000E+00 0.  1.
         22    1    4    4    0    0 -0.93631567148E+00 -0.10932631246E+02 -0.26350649935E+02  0.28543928689E+02  0.00000000000E+00 0.  1.
         22    1    4    4    0    0  0.63609290678E+01 -0.19001090100E+02 -0.10671137496E+03  0.10857633439E+03  0.00000000000E+00 0.  1.
<mgrwt>
<rscale>  0 0.93941291E+02</rscale>
<asrwt>0</asrwt>
<pdfrwt beam="2">  1        1 0.23675371E-01 0.93941291E+02</pdfrwt>
<pdfrwt beam="1">  1       -1 0.22056142E-02 0.93941291E+02</pdfrwt>
<totfact> 0.10392438E+05</totfact>
</mgrwt>
</event>
<event>
 7    1  0.3607059E-009  0.9011120E+02  0.7818608E-02  0.1302583E+00
         -1   -1    0    0    0  501 -0.00000000000E+00  0.00000000000E+00  0.11483960214E+02  0.11483961320E+02  0.50400000000E-02 0.  1.
          1   -1    0    0  501    0  0.00000000000E+00 -0.00000000000E+00 -0.17676887799E+03  0.17676887806E+03  0.50400000000E-02 0. -1.
         23    2    1    2    0    0 -0.17763568394E-14  0.00000000000E+00 -0.16528491777E+03  0.18825283938E+03  0.90111195146E+02 0.  0.
    9000005    2    3    3    0    0  0.10435188762E+02 -0.40048568894E+00 -0.17395074903E+03  0.17468264466E+03  0.12087584834E+02 0.  0.
         22    1    3    3    0    0 -0.10435188762E+02  0.40048568894E+00  0.86658312522E+01  0.13570194714E+02  0.00000000000E+00 0.  1.
         22    1    4    4    0    0  0.45279702754E+01  0.12898400294E+01 -0.14549245108E+03  0.14556860761E+03  0.00000000000E+00 0.  1.
         22    1    4    4    0    0  0.59072184864E+01 -0.16903257184E+01 -0.28458297950E+02  0.29114037052E+02  0.00000000000E+00 0.  1.
<mgrwt>
<rscale>  0 0.90111195E+02</rscale>
<asrwt>0</asrwt>
<pdfrwt beam="2">  1        1 0.27195210E-01 0.90111195E+02</pdfrwt>
<pdfrwt beam="1">  1       -1 0.17667633E-02 0.90111195E+02</pdfrwt>
<totfact> 0.11933313E+05</totfact>
</mgrwt>
</event>
<event>
 7    1  0.3607059E-009  0.9389957E+02  0.7818608E-02  0.1293674E+00
          1   -1    0    0  501    0  0.00000000000E+00  0.00000000000E+00  0.17623014939E+03  0.17623014946E+03  0.50400000000E-02 0. -1.
         -1   -1    0    0    0  501 -0.00000000000E+00 -0.00000000000E+00 -0.12507974116E+02  0.12507975132E+02  0.50400000000E-02 0.  1.
         23    2    1    2    0    0  0.66613381478E-15  0.35527136788E-14  0.16372217527E+03  0.18873812459E+03  0.93899568683E+02 0.  0.
    9000005    2    3    3    0    0  0.80048938182E+00  0.30494688513E+02  0.15207464720E+02  0.37122867903E+02  0.14706241103E+02 0.  0.
         22    1    3    3    0    0 -0.80048938182E+00 -0.30494688513E+02  0.14851471055E+03  0.15161525669E+03  0.00000000000E+00 0. -1.
         22    1    4    4    0    0  0.61697320225E+01  0.23129958375E+02  0.14485444679E+02  0.27980147877E+02  0.00000000000E+00 0.  1.
         22    1    4    4    0    0 -0.53692426407E+01  0.73647301378E+01  0.72202004118E+00  0.91427200261E+01  0.00000000000E+00 0.  1.
<mgrwt>
<rscale>  0 0.93899569E+02</rscale>
<asrwt>0</asrwt>
<pdfrwt beam="1">  1        1 0.27112329E-01 0.93899569E+02</pdfrwt>
<pdfrwt beam="2">  1       -1 0.19243039E-02 0.93899569E+02</pdfrwt>
<totfact> 0.10674931E+05</totfact>
</mgrwt>
</event>
<event>
 7    1  0.3607059E-009  0.9205558E+02  0.7818608E-02  0.1297949E+00
          1   -1    0    0  501    0  0.00000000000E+00  0.00000000000E+00  0.15286744241E+03  0.15286744250E+03  0.50400000000E-02 0. -1.
         -1   -1    0    0    0  501 -0.00000000000E+00 -0.00000000000E+00 -0.13858786805E+02  0.13858787721E+02  0.50400000000E-02 0.  1.
         23    2    1    2    0    0  0.00000000000E+00  0.00000000000E+00  0.13900865561E+03  0.16672623022E+03  0.92055578367E+02 0.  0.
    9000005    2    3    3    0    0 -0.11186249793E+02  0.28548185023E+02  0.99019703621E+01  0.34028576780E+02  0.10943672514E+02 0.  0.
         22    1    3    3    0    0  0.11186249793E+02 -0.28548185023E+02  0.12910668525E+03  0.13269765344E+03  0.00000000000E+00 0. -1.
         22    1    4    4    0    0 -0.43262897462E+01  0.98182473535E+01 -0.18350538345E+01  0.10884952303E+02  0.00000000000E+00 0. -1.
         22    1    4    4    0    0 -0.68599600463E+01  0.18729937670E+02  0.11737024197E+02  0.23143624477E+02  0.00000000000E+00 0. -1.
<mgrwt>
<rscale>  0 0.92055578E+02</rscale>
<asrwt>0</asrwt>
<pdfrwt beam="1">  1        1 0.23518070E-01 0.92055578E+02</pdfrwt>
<pdfrwt beam="2">  1       -1 0.21321209E-02 0.92055578E+02</pdfrwt>
<totfact> 0.10964738E+05</totfact>
</mgrwt>
</event>
<event>
 7    1  0.3607059E-009  0.9209911E+02  0.7818608E-02  0.1297847E+00
         -1   -1    0    0    0  501 -0.00000000000E+00  0.00000000000E+00  0.19714205388E+02  0.19714206032E+02  0.50400000000E-02 0.  1.
          1   -1    0    0  501    0  0.00000000000E+00 -0.00000000000E+00 -0.10756515177E+03  0.10756515189E+03  0.50400000000E-02 0. -1.
         23    2    1    2    0    0  0.00000000000E+00  0.00000000000E+00 -0.87850946386E+02  0.12727935792E+03  0.92099110595E+02 0.  0.
    9000005    2    3    3    0    0 -0.14629436005E+02  0.11744724539E+02  0.11757906502E+02  0.25919195502E+02  0.13475807131E+02 0.  0.
         22    1    3    3    0    0  0.14629436005E+02 -0.11744724539E+02 -0.99608852887E+02  0.10136016242E+03  0.00000000000E+00 0. -1.
         22    1    4    4    0    0 -0.10073154199E+02  0.33296075993E+01 -0.19073990517E+00  0.10610895532E+02  0.00000000000E+00 0.  1.
         22    1    4    4    0    0 -0.45562818063E+01  0.84151169402E+01  0.11948646407E+02  0.15308299970E+02  0.00000000000E+00 0.  1.
<mgrwt>
<rscale>  0 0.92099111E+02</rscale>
<asrwt>0</asrwt>
<pdfrwt beam="2">  1        1 0.16548485E-01 0.92099111E+02</pdfrwt>
<pdfrwt beam="1">  1       -1 0.30329548E-02 0.92099111E+02</pdfrwt>
<totfact> 0.10287717E+05</totfact>
</mgrwt>
</event>
<event>
 7    1  0.3607059E-009  0.8868861E+02  0.7818608E-02  0.1306059E+00
          1   -1    0    0  501    0  0.00000000000E+00  0.00000000000E+00  0.23117787990E+03  0.23117787995E+03  0.50400000000E-02 0. -1.
         -1   -1    0    0    0  501 -0.00000000000E+00 -0.00000000000E+00 -0.85060788229E+01  0.85060803160E+01  0.50400000000E-02 0.  1.
         23    2    1    2    0    0  0.00000000000E+00  0.00000000000E+00  0.22267180108E+03  0.23968396027E+03  0.88688611536E+02 0.  0.
    9000005    2    3    3    0    0 -0.28850577987E+02 -0.12547234577E+02  0.19523642503E+03  0.19794083144E+03  0.85745056007E+01 0.  0.
         22    1    3    3    0    0  0.28850577987E+02  0.12547234577E+02  0.27435376042E+02  0.41743128827E+02  0.00000000000E+00 0.  1.
         22    1    4    4    0    0 -0.12393779823E+02 -0.59288076601E+01  0.11171561524E+03  0.11255725311E+03  0.00000000000E+00 0.  1.
         22    1    4    4    0    0 -0.16456798165E+02 -0.66184269172E+01  0.83520809795E+02  0.85383578337E+02  0.00000000000E+00 0.  1.
<mgrwt>
<rscale>  0 0.88688612E+02</rscale>
<asrwt>0</asrwt>
<pdfrwt beam="1">  1        1 0.35565829E-01 0.88688612E+02</pdfrwt>
<pdfrwt beam="2">  1       -1 0.13086276E-02 0.88688612E+02</pdfrwt>
<totfact> 0.13113226E+05</totfact>
</mgrwt>
</event>
<event>
 7    1  0.3607059E-009  0.9042440E+02  0.7818608E-02  0.1301827E+00
          1   -1    0    0  501    0  0.00000000000E+00  0.00000000000E+00  0.21193933855E+02  0.21193934454E+02  0.50400000000E-02 0. -1.
         -1   -1    0    0    0  501 -0.00000000000E+00 -0.00000000000E+00 -0.96449437285E+02  0.96449437417E+02  0.50400000000E-02 0.  1.
         23    2    1    2    0    0  0.17763568394E-14 -0.71054273576E-14 -0.75255503430E+02  0.11764337187E+03  0.90424400184E+02 0.  0.
    9000005    2    3    3    0    0  0.83406818964E+01 -0.42718874316E+02 -0.52803193798E+02  0.68668118884E+02  0.57152496476E+01 0.  0.
         22    1    3    3    0    0 -0.83406818964E+01  0.42718874316E+02 -0.22452309632E+02  0.48975252987E+02  0.00000000000E+00 0.  1.
         22    1    4    4    0    0  0.58697130363E+01 -0.24864606216E+02 -0.26773960020E+02  0.37007392621E+02  0.00000000000E+00 0.  1.
         22    1    4    4    0    0  0.24709688601E+01 -0.17854268099E+02 -0.26029233778E+02  0.31660726264E+02  0.00000000000E+00 0.  1.
<mgrwt>
<rscale>  0 0.90424400E+02</rscale>
<asrwt>0</asrwt>
<pdfrwt beam="1">  1        1 0.32606053E-02 0.90424400E+02</pdfrwt>
<pdfrwt beam="2">  1       -1 0.14838375E-01 0.90424400E+02</pdfrwt>
<totfact> 0.83678703E+04</totfact>
</mgrwt>
</event>
<event>
 7    1  0.3607059E-009  0.9305255E+02  0.7818608E-02  0.1295623E+00
          1   -1    0    0  501    0  0.00000000000E+00  0.00000000000E+00  0.15933727080E+02  0.15933727877E+02  0.50400000000E-02 0. -1.
         -1   -1    0    0    0  501 -0.00000000000E+00 -0.00000000000E+00 -0.13585611752E+03  0.13585611762E+03  0.50400000000E-02 0.  1.
         23    2    1    2    0    0  0.17763568394E-14  0.00000000000E+00 -0.11992239044E+03  0.15178984549E+03  0.93052552169E+02 0.  0.
    9000005    2    3    3    0    0  0.15611629533E+02 -0.18808170090E+02  0.44040602060E+01  0.25083347752E+02  0.35083257199E+01 0.  0.
         22    1    3    3    0    0 -0.15611629533E+02  0.18808170090E+02 -0.12432645065E+03  0.12670649774E+03  0.00000000000E+00 0.  1.
         22    1    4    4    0    0  0.60761240958E+01 -0.50550969906E+01  0.63986239326E+00  0.79298621359E+01  0.00000000000E+00 0. -1.
         22    1    4    4    0    0  0.95355054367E+01 -0.13753073099E+02  0.37641978128E+01  0.17153485616E+02  0.00000000000E+00 0. -1.
<mgrwt>
<rscale>  0 0.93052552E+02</rscale>
<asrwt>0</asrwt>
<pdfrwt beam="1">  1        1 0.24513428E-02 0.93052552E+02</pdfrwt>
<pdfrwt beam="2">  1       -1 0.20900940E-01 0.93052552E+02</pdfrwt>
<totfact> 0.72552356E+04</totfact>
</mgrwt>
</event>
<event>
 7    1  0.3607059E-009  0.9197496E+02  0.7818608E-02  0.1298138E+00
          1   -1    0    0  501    0  0.00000000000E+00  0.00000000000E+00  0.19102223577E+03  0.19102223584E+03  0.50400000000E-02 0. -1.
         -1   -1    0    0    0  501 -0.00000000000E+00 -0.00000000000E+00 -0.11071214574E+02  0.11071215721E+02  0.50400000000E-02 0.  1.
         23    2    1    2    0    0  0.00000000000E+00  0.00000000000E+00  0.17995102120E+03  0.20209345156E+03  0.91974959273E+02 0.  0.
    9000005    2    3    3    0    0  0.42810279593E+02 -0.15396845380E+02  0.10119339745E+03  0.11113991295E+03  0.64956660638E+01 0.  0.
         22    1    3    3    0    0 -0.42810279593E+02  0.15396845380E+02  0.78757623752E+02  0.90953538609E+02  0.00000000000E+00 0.  1.
         22    1    4    4    0    0  0.40706436582E+02 -0.14323525817E+02  0.91536031209E+02  0.10119793664E+03  0.00000000000E+00 0. -1.
         22    1    4    4    0    0  0.21038430111E+01 -0.10733195623E+01  0.96573662379E+01  0.99419763101E+01  0.00000000000E+00 0. -1.
<mgrwt>
<rscale>  0 0.91974959E+02</rscale>
<asrwt>0</asrwt>
<pdfrwt beam="1">  1        1 0.29388036E-01 0.91974959E+02</pdfrwt>
<pdfrwt beam="2">  1       -1 0.17032639E-02 0.91974959E+02</pdfrwt>
<totfact> 0.11464169E+05</totfact>
</mgrwt>
</event>
<event>
 7    1  0.3607059E-009  0.8972004E+02  0.7818608E-02  0.1303531E+00
         -1   -1    0    0    0  501 -0.00000000000E+00  0.00000000000E+00  0.18626017264E+02  0.18626017946E+02  0.50400000000E-02 0.  1.
          1   -1    0    0  501    0  0.00000000000E+00 -0.00000000000E+00 -0.10804355502E+03  0.10804355514E+03  0.50400000000E-02 0. -1.
         23    2    1    2    0    0  0.00000000000E+00  0.00000000000E+00 -0.89417537756E+02  0.12666957308E+03  0.89720035037E+02 0.  0.
    9000005    2    3    3    0    0 -0.30086454216E+02 -0.10027199646E+02 -0.28463970677E+01  0.34472491460E+02  0.13210269912E+02 0.  0.
         22    1    3    3    0    0  0.30086454216E+02  0.10027199646E+02 -0.86571140689E+02  0.92197081625E+02  0.00000000000E+00 0. -1.
         22    1    4    4    0    0 -0.24035472294E+02 -0.73137567877E+01 -0.76744566404E+01  0.26269606991E+02  0.00000000000E+00 0. -1.
         22    1    4    4    0    0 -0.60509819223E+01 -0.27134428587E+01  0.48280595727E+01  0.82028844689E+01  0.00000000000E+00 0. -1.
<mgrwt>
<rscale>  0 0.89720035E+02</rscale>
<asrwt>0</asrwt>
<pdfrwt beam="2">  1        1 0.16622085E-01 0.89720035E+02</pdfrwt>
<pdfrwt beam="1">  1       -1 0.28655412E-02 0.89720035E+02</pdfrwt>
<totfact> 0.11054704E+05</totfact>
</mgrwt>
</event>
<event>
 7    1  0.3607059E-009  0.9108684E+02  0.7818608E-02  0.1300241E+00
          1   -1    0    0  501    0  0.00000000000E+00  0.00000000000E+00  0.61486446663E+02  0.61486446870E+02  0.50400000000E-02 0. -1.
         -1   -1    0    0    0  501 -0.00000000000E+00 -0.00000000000E+00 -0.33734314618E+02  0.33734314995E+02  0.50400000000E-02 0.  1.
         23    2    1    2    0    0  0.35527136788E-14  0.35527136788E-14  0.27752132045E+02  0.95220761865E+02  0.91086841295E+02 0.  0.
    9000005    2    3    3    0    0 -0.26166255346E+02 -0.28492491034E+02  0.37371481827E+02  0.55358162170E+02  0.13092115978E+02 0.  0.
         22    1    3    3    0    0  0.26166255346E+02  0.28492491034E+02 -0.96193497820E+01  0.39862599694E+02  0.00000000000E+00 0.  1.
         22    1    4    4    0    0 -0.88809539891E+01 -0.17104509117E+02  0.12374673419E+02  0.22903452101E+02  0.00000000000E+00 0.  1.
         22    1    4    4    0    0 -0.17285301357E+02 -0.11387981917E+02  0.24996808407E+02  0.32454710069E+02  0.00000000000E+00 0.  1.
<mgrwt>
<rscale>  0 0.91086841E+02</rscale>
<asrwt>0</asrwt>
<pdfrwt beam="1">  1        1 0.94594533E-02 0.91086841E+02</pdfrwt>
<pdfrwt beam="2">  1       -1 0.51898946E-02 0.91086841E+02</pdfrwt>
<totfact> 0.96994629E+04</totfact>
</mgrwt>
</event>
<event>
 7    1  0.3607059E-009  0.1229173E+03  0.7818608E-02  0.1238361E+00
          1   -1    0    0  501    0  0.00000000000E+00  0.00000000000E+00  0.19049890076E+03  0.19049890083E+03  0.50400000000E-02 0. -1.
         -1   -1    0    0    0  501 -0.00000000000E+00 -0.00000000000E+00 -0.19827765147E+02  0.19827765787E+02  0.50400000000E-02 0.  1.
         23    2    1    2    0    0  0.00000000000E+00 -0.35527136788E-14  0.17067113561E+03  0.21032666661E+03  0.12291733058E+03 0.  0.
    9000005    2    3    3    0    0 -0.52668482695E+02  0.27882907909E+02  0.63807626703E+02  0.87969667797E+02  0.10762137522E+02 0.  0.
         22    1    3    3    0    0  0.52668482695E+02 -0.27882907909E+02  0.10686350891E+03  0.12235699882E+03  0.00000000000E+00 0.  1.
         22    1    4    4    0    0 -0.30886005910E+02  0.22139797558E+02  0.38726878639E+02  0.54257599708E+02  0.00000000000E+00 0. -1.
         22    1    4    4    0    0 -0.21782476785E+02  0.57431103513E+01  0.25080748063E+02  0.33712068089E+02  0.00000000000E+00 0. -1.
<mgrwt>
<rscale>  0 0.12291733E+03</rscale>
<asrwt>0</asrwt>
<pdfrwt beam="1">  1        1 0.29307523E-01 0.12291733E+03</pdfrwt>
<pdfrwt beam="2">  1       -1 0.30504255E-02 0.12291733E+03</pdfrwt>
<totfact> 0.51861262E+04</totfact>
</mgrwt>
</event>
<event>
 7    1  0.3607059E-009  0.9213525E+02  0.7818608E-02  0.1297762E+00
         -1   -1    0    0    0  501 -0.00000000000E+00  0.00000000000E+00  0.19837098857E+03  0.19837098863E+03  0.50400000000E-02 0.  1.
          1   -1    0    0  501    0  0.00000000000E+00 -0.00000000000E+00 -0.10698268370E+02  0.10698269557E+02  0.50400000000E-02 0. -1.
         23    2    1    2    0    0  0.00000000000E+00 -0.35527136788E-14  0.18767272020E+03  0.20906925819E+03  0.92135252824E+02 0.  0.
    9000005    2    3    3    0    0  0.95805239730E+01 -0.26687764682E+02  0.17588379729E+03  0.17836092175E+03  0.85723413892E+01 0.  0.
         22    1    3    3    0    0 -0.95805239730E+01  0.26687764682E+02  0.11788922913E+02  0.30708336438E+02  0.00000000000E+00 0. -1.
         22    1    4    4    0    0  0.24539215586E+00 -0.13056024048E+02  0.72923045307E+02  0.74082997496E+02  0.00000000000E+00 0. -1.
         22    1    4    4    0    0  0.93351318172E+01 -0.13631740635E+02  0.10296075198E+03  0.10427792426E+03  0.00000000000E+00 0. -1.
<mgrwt>
<rscale>  0 0.92135253E+02</rscale>
<asrwt>0</asrwt>
<pdfrwt beam="2">  1        1 0.16458874E-02 0.92135253E+02</pdfrwt>
<pdfrwt beam="1">  1       -1 0.30518616E-01 0.92135253E+02</pdfrwt>
<totfact> 0.67714527E+04</totfact>
</mgrwt>
</event>
<event>
 7    1  0.3607059E-009  0.8609694E+02  0.7818608E-02  0.1312589E+00
          1   -1    0    0  501    0  0.00000000000E+00  0.00000000000E+00  0.14436783294E+03  0.14436783303E+03  0.50400000000E-02 0. -1.
         -1   -1    0    0    0  501 -0.00000000000E+00 -0.00000000000E+00 -0.12836450603E+02  0.12836451593E+02  0.50400000000E-02 0.  1.
         23    2    1    2    0    0  0.00000000000E+00  0.17763568394E-14  0.13153138234E+03  0.15720428462E+03  0.86096937016E+02 0.  0.
    9000005    2    3    3    0    0 -0.38795884628E+02  0.15127763057E+02  0.85613325641E+02  0.95216884208E+02  0.16259248895E+01 0.  0.
         22    1    3    3    0    0  0.38795884628E+02 -0.15127763057E+02  0.45918056694E+02  0.61987400411E+02  0.00000000000E+00 0.  1.
         22    1    4    4    0    0 -0.12091510702E+02  0.39400357700E+01  0.26582826597E+02  0.29468206305E+02  0.00000000000E+00 0. -1.
         22    1    4    4    0    0 -0.26704373926E+02  0.11187727287E+02  0.59030499044E+02  0.65748677903E+02  0.00000000000E+00 0. -1.
<mgrwt>
<rscale>  0 0.86096937E+02</rscale>
<asrwt>0</asrwt>
<pdfrwt beam="1">  1        1 0.22210436E-01 0.86096937E+02</pdfrwt>
<pdfrwt beam="2">  1       -1 0.19748386E-02 0.86096937E+02</pdfrwt>
<totfact> 0.12990878E+05</totfact>
</mgrwt>
</event>
<event>
 7    1  0.3607059E-009  0.8564513E+02  0.7818608E-02  0.1313754E+00
          1   -1    0    0  501    0  0.00000000000E+00  0.00000000000E+00  0.12599097829E+02  0.12599098837E+02  0.50400000000E-02 0. -1.
         -1   -1    0    0    0  501 -0.00000000000E+00 -0.00000000000E+00 -0.14554787629E+03  0.14554787638E+03  0.50400000000E-02 0.  1.
         23    2    1    2    0    0 -0.35527136788E-14  0.00000000000E+00 -0.13294877846E+03  0.15814697522E+03  0.85645128731E+02 0.  0.
    9000005    2    3    3    0    0  0.15268245395E+02 -0.35975060780E+02 -0.95211810571E+02  0.10382015807E+03  0.13638622877E+02 0.  0.
         22    1    3    3    0    0 -0.15268245395E+02  0.35975060780E+02 -0.37736967892E+02  0.54326817146E+02  0.00000000000E+00 0. -1.
         22    1    4    4    0    0  0.18442661987E+00 -0.60299839467E+01 -0.28789956018E+02  0.29415239028E+02  0.00000000000E+00 0.  1.
         22    1    4    4    0    0  0.15083818775E+02 -0.29945076833E+02 -0.66421854554E+02  0.74404919043E+02  0.00000000000E+00 0.  1.
<mgrwt>
<rscale>  0 0.85645129E+02</rscale>
<asrwt>0</asrwt>
<pdfrwt beam="1">  1        1 0.19383229E-02 0.85645129E+02</pdfrwt>
<pdfrwt beam="2">  1       -1 0.22391980E-01 0.85645129E+02</pdfrwt>
<totfact> 0.88556828E+04</totfact>
</mgrwt>
</event>
<event>
 7    1  0.3607059E-009  0.9231947E+02  0.7818608E-02  0.1297330E+00
         -1   -1    0    0    0  501 -0.00000000000E+00  0.00000000000E+00  0.25223133495E+02  0.25223133999E+02  0.50400000000E-02 0.  1.
          1   -1    0    0  501    0  0.00000000000E+00 -0.00000000000E+00 -0.84474877206E+02  0.84474877356E+02  0.50400000000E-02 0. -1.
         23    2    1    2    0    0  0.00000000000E+00 -0.88817841970E-15 -0.59251743710E+02  0.10969801135E+03  0.92319470116E+02 0.  0.
    9000005    2    3    3    0    0  0.37955605865E+02 -0.55258748208E+01 -0.60090350496E+02  0.71333098081E+02  0.25292983111E+01 0.  0.
         22    1    3    3    0    0 -0.37955605865E+02  0.55258748208E+01  0.83860678610E+00  0.38364913274E+02  0.00000000000E+00 0.  1.
         22    1    4    4    0    0  0.36231201257E+02 -0.54107192063E+01 -0.56322489803E+02  0.67187786721E+02  0.00000000000E+00 0. -1.
         22    1    4    4    0    0  0.17244046086E+01 -0.11515561455E+00 -0.37678606935E+01  0.41453113604E+01  0.00000000000E+00 0. -1.
<mgrwt>
<rscale>  0 0.92319470E+02</rscale>
<asrwt>0</asrwt>
<pdfrwt beam="2">  1        1 0.12996135E-01 0.92319470E+02</pdfrwt>
<pdfrwt beam="1">  1       -1 0.38804822E-02 0.92319470E+02</pdfrwt>
<totfact> 0.98203326E+04</totfact>
</mgrwt>
</event>
<event>
 7    1  0.3607059E-009  0.8981807E+02  0.7818608E-02  0.1303293E+00
         -1   -1    0    0    0  501 -0.00000000000E+00  0.00000000000E+00  0.50627877978E+01  0.50627903064E+01  0.50400000000E-02 0.  1.
          1   -1    0    0  501    0  0.00000000000E+00 -0.00000000000E+00 -0.39836175209E+03  0.39836175213E+03  0.50400000000E-02 0. -1.
         23    2    1    2    0    0  0.00000000000E+00  0.00000000000E+00 -0.39329896430E+03  0.40342454243E+03  0.89818072348E+02 0.  0.
    9000005    2    3    3    0    0 -0.18389971184E+02  0.38751633635E+02 -0.13948355784E+03  0.14601020580E+03  0.48411920384E+01 0.  0.
         22    1    3    3    0    0  0.18389971184E+02 -0.38751633635E+02 -0.25381540646E+03  0.25741433663E+03  0.00000000000E+00 0. -1.
         22    1    4    4    0    0 -0.36731803141E+01  0.56991661507E+01 -0.17262351368E+02  0.18546199696E+02  0.00000000000E+00 0. -1.
         22    1    4    4    0    0 -0.14716790870E+02  0.33052467485E+02 -0.12222120647E+03  0.12746400610E+03  0.00000000000E+00 0. -1.
<mgrwt>
<rscale>  0 0.89818072E+02</rscale>
<asrwt>0</asrwt>
<pdfrwt beam="2">  1        1 0.61286399E-01 0.89818072E+02</pdfrwt>
<pdfrwt beam="1">  1       -1 0.77889094E-03 0.89818072E+02</pdfrwt>
<totfact> 0.14027747E+05</totfact>
</mgrwt>
</event>
<event>
 7    1  0.3607059E-009  0.9450779E+02  0.7818608E-02  0.1292289E+00
         -1   -1    0    0    0  501 -0.00000000000E+00  0.00000000000E+00  0.27593274024E+02  0.27593274484E+02  0.50400000000E-02 0.  1.
          1   -1    0    0  501    0  0.00000000000E+00 -0.00000000000E+00 -0.80922994021E+02  0.80922994178E+02  0.50400000000E-02 0. -1.
         23    2    1    2    0    0  0.00000000000E+00  0.00000000000E+00 -0.53329719997E+02  0.10851626866E+03  0.94507785549E+02 0.  0.
    9000005    2    3    3    0    0 -0.83279591979E+00 -0.25506223714E+02 -0.71809100913E+02  0.77008356700E+02  0.11067024464E+02 0.  0.
         22    1    3    3    0    0  0.83279591979E+00  0.25506223714E+02  0.18479380916E+02  0.31507911962E+02  0.00000000000E+00 0.  1.
         22    1    4    4    0    0  0.10433787625E+01 -0.19343567600E+02 -0.64093773187E+02  0.66957255082E+02  0.00000000000E+00 0. -1.
         22    1    4    4    0    0 -0.18761746823E+01 -0.61626561140E+01 -0.77153277259E+01  0.10051101618E+02  0.00000000000E+00 0. -1.
<mgrwt>
<rscale>  0 0.94507786E+02</rscale>
<asrwt>0</asrwt>
<pdfrwt beam="2">  1        1 0.12449691E-01 0.94507786E+02</pdfrwt>
<pdfrwt beam="1">  1       -1 0.42451192E-02 0.94507786E+02</pdfrwt>
<totfact> 0.91433968E+04</totfact>
</mgrwt>
</event>
<event>
 7    1  0.3607059E-009  0.1016573E+03  0.7818608E-02  0.1276849E+00
         -1   -1    0    0    0  501 -0.00000000000E+00  0.00000000000E+00  0.48089646681E+01  0.48089673092E+01  0.50400000000E-02 0.  1.
          1   -1    0    0  501    0  0.00000000000E+00 -0.00000000000E+00 -0.53723592224E+03  0.53723592226E+03  0.50400000000E-02 0. -1.
         23    2    1    2    0    0  0.00000000000E+00  0.00000000000E+00 -0.53242695757E+03  0.54204488957E+03  0.10165725337E+03 0.  0.
    9000005    2    3    3    0    0  0.12727821396E+02 -0.34917885118E+02 -0.45101338694E+03  0.45254949516E+03  0.25911828917E+01 0.  0.
         22    1    3    3    0    0 -0.12727821396E+02  0.34917885118E+02 -0.81413570629E+02  0.89495394413E+02  0.00000000000E+00 0.  1.
         22    1    4    4    0    0  0.46448581025E+01 -0.11351797267E+02 -0.16272733926E+03  0.16318892410E+03  0.00000000000E+00 0.  1.
         22    1    4    4    0    0  0.80829632934E+01 -0.23566087851E+02 -0.28828604769E+03  0.28936057106E+03  0.00000000000E+00 0.  1.
<mgrwt>
<rscale>  0 0.10165725E+03</rscale>
<asrwt>0</asrwt>
<pdfrwt beam="2">  1        1 0.82651633E-01 0.10165725E+03</pdfrwt>
<pdfrwt beam="1">  1       -1 0.73984135E-03 0.10165725E+03</pdfrwt>
<totfact> 0.10504309E+05</totfact>
</mgrwt>
</event>
<event>
 7    1  0.3607059E-009  0.9119842E+02  0.7818608E-02  0.1299975E+00
         -1   -1    0    0    0  501 -0.00000000000E+00  0.00000000000E+00  0.13893073529E+03  0.13893073538E+03  0.50400000000E-02 0.  1.
          1   -1    0    0  501    0  0.00000000000E+00 -0.00000000000E+00 -0.14966363873E+02  0.14966364722E+02  0.50400000000E-02 0. -1.
         23    2    1    2    0    0 -0.88817841970E-15  0.71054273576E-14  0.12396437141E+03  0.15389710010E+03  0.91198421255E+02 0.  0.
    9000005    2    3    3    0    0 -0.69685175732E+01  0.38364306556E+02  0.25801803896E+02  0.48273854949E+02  0.12010484283E+02 0.  0.
         22    1    3    3    0    0  0.69685175732E+01 -0.38364306556E+02  0.98162567517E+02  0.10562324515E+03  0.00000000000E+00 0.  1.
         22    1    4    4    0    0  0.31190417768E+01  0.14603736039E+02  0.10656669462E+02  0.18345629777E+02  0.00000000000E+00 0.  1.
         22    1    4    4    0    0 -0.10087559350E+02  0.23760570517E+02  0.15145134434E+02  0.29928225172E+02  0.00000000000E+00 0.  1.
<mgrwt>
<rscale>  0 0.91198421E+02</rscale>
<asrwt>0</asrwt>
<pdfrwt beam="2">  1        1 0.23025177E-02 0.91198421E+02</pdfrwt>
<pdfrwt beam="1">  1       -1 0.21373959E-01 0.91198421E+02</pdfrwt>
<totfact> 0.76063786E+04</totfact>
</mgrwt>
</event>
<event>
 7    1  0.3607059E-009  0.9449840E+02  0.7818608E-02  0.1292310E+00
         -1   -1    0    0    0  501 -0.00000000000E+00  0.00000000000E+00  0.59985684847E+02  0.59985685059E+02  0.50400000000E-02 0.  1.
          1   -1    0    0  501    0  0.00000000000E+00 -0.00000000000E+00 -0.37216994150E+02  0.37216994491E+02  0.50400000000E-02 0. -1.
         23    2    1    2    0    0  0.00000000000E+00 -0.71054273576E-14  0.22768690697E+02  0.97202679550E+02  0.94498400175E+02 0.  0.
    9000005    2    3    3    0    0 -0.59876678006E+00  0.43564106192E+02 -0.58159521153E+01  0.45094410776E+02  0.10074259984E+02 0.  0.
         22    1    3    3    0    0  0.59876678006E+00 -0.43564106192E+02  0.28584642812E+02  0.52108268775E+02  0.00000000000E+00 0.  1.
         22    1    4    4    0    0 -0.17883937727E+01  0.33934008237E+02 -0.40314357828E+00  0.33983492935E+02  0.00000000000E+00 0. -1.
         22    1    4    4    0    0  0.11896269927E+01  0.96300979550E+01 -0.54128085370E+01  0.11110917841E+02  0.00000000000E+00 0. -1.
<mgrwt>
<rscale>  0 0.94498400E+02</rscale>
<asrwt>0</asrwt>
<pdfrwt beam="2">  1        1 0.57256915E-02 0.94498400E+02</pdfrwt>
<pdfrwt beam="1">  1       -1 0.92285669E-02 0.94498400E+02</pdfrwt>
<totfact> 0.80985201E+04</totfact>
</mgrwt>
</event>
<event>
 7    1  0.3607059E-009  0.9056906E+02  0.7818608E-02  0.1301479E+00
          1   -1    0    0  501    0  0.00000000000E+00  0.00000000000E+00  0.12214596186E+02  0.12214597226E+02  0.50400000000E-02 0. -1.
         -1   -1    0    0    0  501 -0.00000000000E+00 -0.00000000000E+00 -0.16788835124E+03  0.16788835131E+03  0.50400000000E-02 0.  1.
         23    2    1    2    0    0  0.00000000000E+00  0.00000000000E+00 -0.15567375505E+03  0.18010294854E+03  0.90569056860E+02 0.  0.
    9000005    2    3    3    0    0  0.20354876046E+02 -0.32579699112E+02 -0.35991307338E+02  0.54406305529E+02  0.13744602735E+02 0.  0.
         22    1    3    3    0    0 -0.20354876046E+02  0.32579699112E+02 -0.11968244771E+03  0.12569664301E+03  0.00000000000E+00 0.  1.
         22    1    4    4    0    0  0.19451962229E+01 -0.10205151036E+02 -0.37168399141E+01  0.11033757065E+02  0.00000000000E+00 0.  1.
         22    1    4    4    0    0  0.18409679823E+02 -0.22374548076E+02 -0.32274467424E+02  0.43372548464E+02  0.00000000000E+00 0.  1.
<mgrwt>
<rscale>  0 0.90569057E+02</rscale>
<asrwt>0</asrwt>
<pdfrwt beam="1">  1        1 0.18791689E-02 0.90569057E+02</pdfrwt>
<pdfrwt beam="2">  1       -1 0.25828975E-01 0.90569057E+02</pdfrwt>
<totfact> 0.74043885E+04</totfact>
</mgrwt>
</event>
<event>
 7    1  0.3607059E-009  0.8579164E+02  0.7818608E-02  0.1313375E+00
         -1   -1    0    0    0  501 -0.00000000000E+00  0.00000000000E+00  0.20037461739E+03  0.20037461745E+03  0.50400000000E-02 0.  1.
          1   -1    0    0  501    0  0.00000000000E+00 -0.00000000000E+00 -0.91830557628E+01  0.91830571458E+01  0.50400000000E-02 0. -1.
         23    2    1    2    0    0  0.35527136788E-14  0.00000000000E+00  0.19119156162E+03  0.20955767459E+03  0.85791641468E+02 0.  0.
    9000005    2    3    3    0    0  0.20903685891E+02  0.61659498279E+01  0.18540521055E+03  0.18700850876E+03  0.11050213972E+02 0.  0.
         22    1    3    3    0    0 -0.20903685891E+02 -0.61659498279E+01  0.57863510736E+01  0.22549165835E+02  0.00000000000E+00 0. -1.
         22    1    4    4    0    0  0.25666849843E+01  0.18810401693E+01  0.80459886605E+01  0.86524052986E+01  0.00000000000E+00 0.  1.
         22    1    4    4    0    0  0.18337000906E+02  0.42849096585E+01  0.17735922189E+03  0.17835610346E+03  0.00000000000E+00 0.  1.
<mgrwt>
<rscale>  0 0.85791641E+02</rscale>
<asrwt>0</asrwt>
<pdfrwt beam="2">  1        1 0.14127781E-02 0.85791641E+02</pdfrwt>
<pdfrwt beam="1">  1       -1 0.30826861E-01 0.85791641E+02</pdfrwt>
<totfact> 0.81282823E+04</totfact>
</mgrwt>
</event>
<event>
 7    1  0.3607059E-009  0.9189742E+02  0.7818608E-02  0.1298321E+00
          1   -1    0    0  501    0  0.00000000000E+00  0.00000000000E+00  0.12179816386E+02  0.12179817429E+02  0.50400000000E-02 0. -1.
         -1   -1    0    0    0  501 -0.00000000000E+00 -0.00000000000E+00 -0.17334284754E+03  0.17334284761E+03  0.50400000000E-02 0.  1.
         23    2    1    2    0    0  0.00000000000E+00  0.71054273576E-14 -0.16116303115E+03  0.18552266504E+03  0.91897424521E+02 0.  0.
    9000005    2    3    3    0    0  0.84509718593E+00  0.43824766256E+02 -0.10826163493E+03  0.11682126732E+03  0.23027318041E+01 0.  0.
         22    1    3    3    0    0 -0.84509718593E+00 -0.43824766256E+02 -0.52901396225E+02  0.68701397724E+02  0.00000000000E+00 0. -1.
         22    1    4    4    0    0 -0.77338572077E+00  0.18443498412E+02 -0.45176072051E+02  0.48802031157E+02  0.00000000000E+00 0. -1.
         22    1    4    4    0    0  0.16184829067E+01  0.25381267844E+02 -0.63085562876E+02  0.68019236159E+02  0.00000000000E+00 0. -1.
<mgrwt>
<rscale>  0 0.91897425E+02</rscale>
<asrwt>0</asrwt>
<pdfrwt beam="1">  1        1 0.18738181E-02 0.91897425E+02</pdfrwt>
<pdfrwt beam="2">  1       -1 0.26668129E-01 0.91897425E+02</pdfrwt>
<totfact> 0.70713111E+04</totfact>
</mgrwt>
</event>
<event>
 7    1  0.3607059E-009  0.9112654E+02  0.7818608E-02  0.1300146E+00
         -1   -1    0    0    0  501 -0.00000000000E+00  0.00000000000E+00  0.19315720167E+02  0.19315720825E+02  0.50400000000E-02 0.  1.
          1   -1    0    0  501    0  0.00000000000E+00 -0.00000000000E+00 -0.10747782826E+03  0.10747782838E+03  0.50400000000E-02 0. -1.
         23    2    1    2    0    0  0.00000000000E+00  0.00000000000E+00 -0.88162108097E+02  0.12679354921E+03  0.91126542876E+02 0.  0.
    9000005    2    3    3    0    0 -0.23941456962E+01  0.42113054177E+02 -0.21912712497E+02  0.48255509487E+02  0.83178098764E+01 0.  0.
         22    1    3    3    0    0  0.23941456962E+01 -0.42113054177E+02 -0.66249395599E+02  0.78538039720E+02  0.00000000000E+00 0. -1.
         22    1    4    4    0    0 -0.97773183846E+00  0.46845005536E+00 -0.15127610096E+01  0.18611423574E+01  0.00000000000E+00 0.  1.
         22    1    4    4    0    0 -0.14164138578E+01  0.41644604122E+02 -0.20399951488E+02  0.46394367130E+02  0.00000000000E+00 0.  1.
<mgrwt>
<rscale>  0 0.91126543E+02</rscale>
<asrwt>0</asrwt>
<pdfrwt beam="2">  1        1 0.16535050E-01 0.91126543E+02</pdfrwt>
<pdfrwt beam="1">  1       -1 0.29716494E-02 0.91126543E+02</pdfrwt>
<totfact> 0.10588182E+05</totfact>
</mgrwt>
</event>
<event>
 7    1  0.3607059E-009  0.9330661E+02  0.7818608E-02  0.1295036E+00
          1   -1    0    0  501    0  0.00000000000E+00  0.00000000000E+00  0.49375942187E+02  0.49375942444E+02  0.50400000000E-02 0. -1.
         -1   -1    0    0    0  501 -0.00000000000E+00 -0.00000000000E+00 -0.44080791675E+02  0.44080791963E+02  0.50400000000E-02 0.  1.
         23    2    1    2    0    0  0.00000000000E+00 -0.33306690739E-15  0.52951505120E+01  0.93456734407E+02  0.93306605270E+02 0.  0.
    9000005    2    3    3    0    0 -0.35399085864E+02 -0.68563298410E+00 -0.27443217412E+02  0.45234684399E+02  0.62834002073E+01 0.  0.
         22    1    3    3    0    0  0.35399085864E+02  0.68563298410E+00  0.32738367924E+02  0.48222050008E+02  0.00000000000E+00 0. -1.
         22    1    4    4    0    0 -0.23583153748E+02  0.15259294332E+01 -0.15331014777E+02  0.28169728707E+02  0.00000000000E+00 0.  1.
         22    1    4    4    0    0 -0.11815932116E+02 -0.22115624173E+01 -0.12112202635E+02  0.17064955692E+02  0.00000000000E+00 0.  1.
<mgrwt>
<rscale>  0 0.93306605E+02</rscale>
<asrwt>0</asrwt>
<pdfrwt beam="1">  1        1 0.75962989E-02 0.93306605E+02</pdfrwt>
<pdfrwt beam="2">  1       -1 0.67816603E-02 0.93306605E+02</pdfrwt>
<totfact> 0.87718856E+04</totfact>
</mgrwt>
</event>
<event>
 7    1  0.3607059E-009  0.9446233E+02  0.7818608E-02  0.1292392E+00
         -1   -1    0    0    0  501 -0.00000000000E+00  0.00000000000E+00  0.28116576016E+03  0.28116576021E+03  0.50400000000E-02 0.  1.
          1   -1    0    0  501    0  0.00000000000E+00 -0.00000000000E+00 -0.79340477781E+01  0.79340493789E+01  0.50400000000E-02 0. -1.
         23    2    1    2    0    0  0.00000000000E+00  0.00000000000E+00  0.27323171238E+03  0.28909980959E+03  0.94462327149E+02 0.  0.
    9000005    2    3    3    0    0  0.38658311187E+02 -0.24741255563E+02  0.15589036358E+03  0.16310144893E+03  0.13916983616E+02 0.  0.
         22    1    3    3    0    0 -0.38658311187E+02  0.24741255563E+02  0.11734134880E+03  0.12599836066E+03  0.00000000000E+00 0. -1.
         22    1    4    4    0    0  0.36231885654E+02 -0.26369419790E+02  0.14183804044E+03  0.14874853127E+03  0.00000000000E+00 0. -1.
         22    1    4    4    0    0  0.24264255325E+01  0.16281642268E+01  0.14052323141E+02  0.14352917658E+02  0.00000000000E+00 0. -1.
<mgrwt>
<rscale>  0 0.94462327E+02</rscale>
<asrwt>0</asrwt>
<pdfrwt beam="2">  1        1 0.12206229E-02 0.94462327E+02</pdfrwt>
<pdfrwt beam="1">  1       -1 0.43256271E-01 0.94462327E+02</pdfrwt>
<totfact> 0.56612660E+04</totfact>
</mgrwt>
</event>
<event>
 7    1  0.3607059E-009  0.8874137E+02  0.7818608E-02  0.1305929E+00
         -1   -1    0    0    0  501 -0.00000000000E+00  0.00000000000E+00  0.14105848195E+03  0.14105848204E+03  0.50400000000E-02 0.  1.
          1   -1    0    0  501    0  0.00000000000E+00 -0.00000000000E+00 -0.13957032106E+02  0.13957033016E+02  0.50400000000E-02 0. -1.
         23    2    1    2    0    0  0.00000000000E+00  0.00000000000E+00  0.12710144984E+03  0.15501551505E+03  0.88741373414E+02 0.  0.
    9000005    2    3    3    0    0 -0.42722520366E+02 -0.60363667449E+01  0.77464418955E+02  0.89247085657E+02  0.10131861841E+02 0.  0.
         22    1    3    3    0    0  0.42722520366E+02  0.60363667449E+01  0.49637030884E+02  0.65768429394E+02  0.00000000000E+00 0. -1.
         22    1    4    4    0    0 -0.23453350970E+02 -0.15564800875E+01  0.32367122185E+02  0.40001411231E+02  0.00000000000E+00 0. -1.
         22    1    4    4    0    0 -0.19269169397E+02 -0.44798866575E+01  0.45097296770E+02  0.49245674426E+02  0.00000000000E+00 0. -1.
<mgrwt>
<rscale>  0 0.88741373E+02</rscale>
<asrwt>0</asrwt>
<pdfrwt beam="2">  1        1 0.21472357E-02 0.88741373E+02</pdfrwt>
<pdfrwt beam="1">  1       -1 0.21701306E-01 0.88741373E+02</pdfrwt>
<totfact> 0.81359614E+04</totfact>
</mgrwt>
</event>
<event>
 7    1  0.3607059E-009  0.9602137E+02  0.7818608E-02  0.1288892E+00
         -1   -1    0    0    0  501 -0.00000000000E+00  0.00000000000E+00  0.35798802329E+02  0.35798802684E+02  0.50400000000E-02 0.  1.
          1   -1    0    0  501    0  0.00000000000E+00 -0.00000000000E+00 -0.64388356321E+02  0.64388356518E+02  0.50400000000E-02 0. -1.
         23    2    1    2    0    0 -0.17763568394E-14  0.00000000000E+00 -0.28589553991E+02  0.10018715920E+03  0.96021374035E+02 0.  0.
    9000005    2    3    3    0    0 -0.10135527408E+02 -0.16133304149E+02  0.30965395811E+02  0.37658729951E+02  0.98138567930E+01 0.  0.
         22    1    3    3    0    0  0.10135527408E+02  0.16133304149E+02 -0.59554949803E+02  0.62528429251E+02  0.00000000000E+00 0. -1.
         22    1    4    4    0    0 -0.10782175300E+02 -0.16975138424E+02  0.27735353843E+02  0.34258728545E+02  0.00000000000E+00 0. -1.
         22    1    4    4    0    0  0.64664789279E+00  0.84183427466E+00  0.32300419678E+01  0.34000014055E+01  0.00000000000E+00 0. -1.
<mgrwt>
<rscale>  0 0.96021374E+02</rscale>
<asrwt>0</asrwt>
<pdfrwt beam="2">  1        1 0.99059010E-02 0.96021374E+02</pdfrwt>
<pdfrwt beam="1">  1       -1 0.55075081E-02 0.96021374E+02</pdfrwt>
<totfact> 0.84356463E+04</totfact>
</mgrwt>
</event>
<event>
 7    1  0.3607059E-009  0.9212545E+02  0.7818608E-02  0.1297785E+00
         -1   -1    0    0    0  501 -0.00000000000E+00  0.00000000000E+00  0.45777013982E+03  0.45777013985E+03  0.50400000000E-02 0.  1.
          1   -1    0    0  501    0  0.00000000000E+00 -0.00000000000E+00 -0.46350205518E+01  0.46350232920E+01  0.50400000000E-02 0. -1.
         23    2    1    2    0    0  0.00000000000E+00  0.88817841970E-15  0.45313511927E+03  0.46240516314E+03  0.92125450251E+02 0.  0.
    9000005    2    3    3    0    0  0.13277332358E+02 -0.74283690717E+01  0.44426816702E+03  0.44479576043E+03  0.15414150829E+02 0.  0.
         22    1    3    3    0    0 -0.13277332358E+02  0.74283690717E+01  0.88669522438E+01  0.17609402707E+02  0.00000000000E+00 0. -1.
         22    1    4    4    0    0  0.14553589193E+00 -0.74562977714E+01  0.10023042785E+03  0.10050749337E+03  0.00000000000E+00 0.  1.
         22    1    4    4    0    0  0.13131796466E+02  0.27928699687E-01  0.34403773918E+03  0.34428826706E+03  0.00000000000E+00 0.  1.
<mgrwt>
<rscale>  0 0.92125450E+02</rscale>
<asrwt>0</asrwt>
<pdfrwt beam="2">  1        1 0.71308048E-03 0.92125450E+02</pdfrwt>
<pdfrwt beam="1">  1       -1 0.70426157E-01 0.92125450E+02</pdfrwt>
<totfact> 0.48240564E+04</totfact>
</mgrwt>
</event>
<event>
 6    1  0.3607059E-009  0.1572516E+03  0.7818608E-02  0.1191835E+00
         -1   -1    0    0    0  501 -0.00000000000E+00  0.00000000000E+00  0.21737276102E+02  0.21737276686E+02  0.50400000000E-02 0.  1.
          1   -1    0    0  501    0  0.00000000000E+00 -0.00000000000E+00 -0.28439693502E+03  0.28439693506E+03  0.50400000000E-02 0. -1.
    9000005    2    1    2    0    0 -0.65245627777E+02  0.32200392145E+02 -0.74170087690E+02  0.10408922750E+03  0.62855529393E+01 0.  0.
         22    1    1    2    0    0  0.65245627777E+02 -0.32200392145E+02 -0.18848957122E+03  0.20204498424E+03  0.00000000000E+00 0. -1.
         22    1    3    3    0    0 -0.87401249299E+01  0.34339384908E+01 -0.12538012613E+02  0.15664720797E+02  0.00000000000E+00 0. -1.
         22    1    3    3    0    0 -0.56505502847E+02  0.28766453654E+02 -0.61632075077E+02  0.88424506706E+02  0.00000000000E+00 0. -1.
<mgrwt>
<rscale>  0 0.15725158E+03</rscale>
<asrwt>0</asrwt>
<pdfrwt beam="2">  1        1 0.43753372E-01 0.15725158E+03</pdfrwt>
<pdfrwt beam="1">  1       -1 0.33441966E-02 0.15725158E+03</pdfrwt>
<totfact> 0.28364555E+04</totfact>
</mgrwt>
</event>
<event>
 7    1  0.3607059E-009  0.9350899E+02  0.7818608E-02  0.1294570E+00
          1   -1    0    0  501    0  0.00000000000E+00  0.00000000000E+00  0.35686716618E+03  0.35686716621E+03  0.50400000000E-02 0. -1.
         -1   -1    0    0    0  501 -0.00000000000E+00 -0.00000000000E+00 -0.61254793539E+01  0.61254814273E+01  0.50400000000E-02 0.  1.
         23    2    1    2    0    0 -0.11102230246E-15  0.00000000000E+00  0.35074168682E+03  0.36299264764E+03  0.93508990825E+02 0.  0.
    9000005    2    3    3    0    0 -0.49588679774E+00  0.33850213077E+02  0.29951496127E+03  0.30159020274E+03  0.10067548546E+02 0.  0.
         22    1    3    3    0    0  0.49588679774E+00 -0.33850213077E+02  0.51226725553E+02  0.61402444902E+02  0.00000000000E+00 0.  1.
         22    1    4    4    0    0 -0.37083571488E+01  0.29911353506E+02  0.24788742134E+03  0.24971306462E+03  0.00000000000E+00 0.  1.
         22    1    4    4    0    0  0.32124703511E+01  0.39388595705E+01  0.51627539927E+02  0.51877138118E+02  0.00000000000E+00 0.  1.
<mgrwt>
<rscale>  0 0.93508991E+02</rscale>
<asrwt>0</asrwt>
<pdfrwt beam="1">  1        1 0.54902636E-01 0.93508991E+02</pdfrwt>
<pdfrwt beam="2">  1       -1 0.94238168E-03 0.93508991E+02</pdfrwt>
<totfact> 0.12368218E+05</totfact>
</mgrwt>
</event>
<event>
 7    1  0.3607059E-009  0.8998924E+02  0.7818608E-02  0.1302878E+00
         -1   -1    0    0    0  501 -0.00000000000E+00  0.00000000000E+00  0.11349304504E+02  0.11349305623E+02  0.50400000000E-02 0.  1.
          1   -1    0    0  501    0  0.00000000000E+00 -0.00000000000E+00 -0.17838235085E+03  0.17838235092E+03  0.50400000000E-02 0. -1.
         23    2    1    2    0    0  0.00000000000E+00  0.00000000000E+00 -0.16703304634E+03  0.18973165654E+03  0.89989237820E+02 0.  0.
    9000005    2    3    3    0    0  0.22559486794E+02 -0.82760097178E+01 -0.16308444110E+03  0.16537977233E+03  0.13285758802E+02 0.  0.
         22    1    3    3    0    0 -0.22559486794E+02  0.82760097178E+01 -0.39486052460E+01  0.24351884211E+02  0.00000000000E+00 0.  1.
         22    1    4    4    0    0  0.12951472484E+02 -0.11452421959E+02 -0.97993119018E+02  0.99506532364E+02  0.00000000000E+00 0.  1.
         22    1    4    4    0    0  0.96080143097E+01  0.31764122412E+01 -0.65091322080E+02  0.65873239968E+02  0.00000000000E+00 0.  1.
<mgrwt>
<rscale>  0 0.89989238E+02</rscale>
<asrwt>0</asrwt>
<pdfrwt beam="2">  1        1 0.27443437E-01 0.89989238E+02</pdfrwt>
<pdfrwt beam="1">  1       -1 0.17460471E-02 0.89989238E+02</pdfrwt>
<totfact> 0.11997453E+05</totfact>
</mgrwt>
</event>
<event>
 7    1  0.3607059E-009  0.9073540E+02  0.7818608E-02  0.1301081E+00
         -1   -1    0    0    0  501 -0.00000000000E+00  0.00000000000E+00  0.14799637527E+01  0.14799723345E+01  0.50400000000E-02 0.  1.
          1   -1    0    0  501    0  0.00000000000E+00 -0.00000000000E+00 -0.13907248247E+04  0.13907248247E+04  0.50400000000E-02 0. -1.
         23    2    1    2    0    0  0.00000000000E+00  0.00000000000E+00 -0.13892448609E+04  0.13922047970E+04  0.90735402367E+02 0.  0.
    9000005    2    3    3    0    0 -0.13946980294E+01  0.24155936453E+02 -0.12819619473E+04  0.12822271720E+04  0.97278903332E+01 0.  0.
         22    1    3    3    0    0  0.13946980294E+01 -0.24155936453E+02 -0.10728291359E+03  0.10997762499E+03  0.00000000000E+00 0.  1.
         22    1    4    4    0    0 -0.96126746768E+00  0.28888010185E+01 -0.57558694269E+02  0.57639157631E+02  0.00000000000E+00 0.  1.
         22    1    4    4    0    0 -0.43343056172E+00  0.21267135435E+02 -0.12244032530E+04  0.12245880144E+04  0.00000000000E+00 0.  1.
<mgrwt>
<rscale>  0 0.90735402E+02</rscale>
<asrwt>0</asrwt>
<pdfrwt beam="2">  1        1 0.21395662E+00 0.90735402E+02</pdfrwt>
<pdfrwt beam="1">  1       -1 0.22768850E-03 0.90735402E+02</pdfrwt>
<totfact> 0.11848119E+05</totfact>
</mgrwt>
</event>
<event>
 7    1  0.3607059E-009  0.8964480E+02  0.7818608E-02  0.1303714E+00
         -1   -1    0    0    0  501 -0.00000000000E+00  0.00000000000E+00  0.88943169557E+02  0.88943169699E+02  0.50400000000E-02 0.  1.
          1   -1    0    0  501    0  0.00000000000E+00 -0.00000000000E+00 -0.22587988528E+02  0.22587989090E+02  0.50400000000E-02 0. -1.
         23    2    1    2    0    0  0.00000000000E+00  0.00000000000E+00  0.66355181029E+02  0.11153115879E+03  0.89644795340E+02 0.  0.
    9000005    2    3    3    0    0  0.32303606191E+02 -0.18442456270E+02  0.51378600110E+01  0.39898711122E+02  0.13485635968E+02 0.  0.
         22    1    3    3    0    0 -0.32303606191E+02  0.18442456270E+02  0.61217321018E+02  0.71632447668E+02  0.00000000000E+00 0.  1.
         22    1    4    4    0    0  0.24267263133E+02 -0.10537159855E+02 -0.20398196047E+01  0.26534744427E+02  0.00000000000E+00 0.  1.
         22    1    4    4    0    0  0.80363430584E+01 -0.79052964152E+01  0.71776796157E+01  0.13363966695E+02  0.00000000000E+00 0.  1.
<mgrwt>
<rscale>  0 0.89644795E+02</rscale>
<asrwt>0</asrwt>
<pdfrwt beam="2">  1        1 0.34750753E-02 0.89644795E+02</pdfrwt>
<pdfrwt beam="1">  1       -1 0.13683564E-01 0.89644795E+02</pdfrwt>
<totfact> 0.86807566E+04</totfact>
</mgrwt>
</event>
<event>
 7    1  0.3607059E-009  0.9287899E+02  0.7818608E-02  0.1296026E+00
          1   -1    0    0  501    0  0.00000000000E+00  0.00000000000E+00  0.46134989284E+02  0.46134989559E+02  0.50400000000E-02 0. -1.
         -1   -1    0    0    0  501 -0.00000000000E+00 -0.00000000000E+00 -0.46746009897E+02  0.46746010168E+02  0.50400000000E-02 0.  1.
         23    2    1    2    0    0  0.88817841970E-15 -0.35527136788E-14 -0.61102061303E+00  0.92880999727E+02  0.92878989896E+02 0.  0.
    9000005    2    3    3    0    0  0.59839243140E+01  0.25469465709E+02 -0.37714560401E+02  0.47480848863E+02  0.12146683035E+02 0.  0.
         22    1    3    3    0    0 -0.59839243140E+01 -0.25469465709E+02  0.37103539788E+02  0.45400150864E+02  0.00000000000E+00 0. -1.
         22    1    4    4    0    0  0.19641123591E+01  0.13210449536E+02 -0.28955297028E+02  0.31887034046E+02  0.00000000000E+00 0.  1.
         22    1    4    4    0    0  0.40198119549E+01  0.12259016173E+02 -0.87592633735E+01  0.15593814816E+02  0.00000000000E+00 0.  1.
<mgrwt>
<rscale>  0 0.92878990E+02</rscale>
<asrwt>0</asrwt>
<pdfrwt beam="1">  1        1 0.70976907E-02 0.92878990E+02</pdfrwt>
<pdfrwt beam="2">  1       -1 0.71916938E-02 0.92878990E+02</pdfrwt>
<totfact> 0.87942440E+04</totfact>
</mgrwt>
</event>
<event>
 7    1  0.3607059E-009  0.9036072E+02  0.7818608E-02  0.1301981E+00
          1   -1    0    0  501    0  0.00000000000E+00  0.00000000000E+00  0.10126516179E+01  0.10126641599E+01  0.50400000000E-02 0. -1.
         -1   -1    0    0    0  501 -0.00000000000E+00 -0.00000000000E+00 -0.20157497873E+04  0.20157497874E+04  0.50400000000E-02 0.  1.
         23    2    1    2    0    0  0.00000000000E+00  0.00000000000E+00 -0.20147371357E+04  0.20167624515E+04  0.90360720158E+02 0.  0.
    9000005    2    3    3    0    0 -0.20053475077E+02 -0.45249271844E+01 -0.19015391493E+04  0.19017128928E+04  0.15432870395E+02 0.  0.
         22    1    3    3    0    0  0.20053475077E+02  0.45249271844E+01 -0.11319798642E+03  0.11504955870E+03  0.00000000000E+00 0. -1.
         22    1    4    4    0    0 -0.78796936067E+01 -0.96451245216E+01 -0.97889405560E+03  0.97897328364E+03  0.00000000000E+00 0. -1.
         22    1    4    4    0    0 -0.12173781470E+02  0.51201973372E+01 -0.92264509371E+03  0.92273960917E+03  0.00000000000E+00 0. -1.
<mgrwt>
<rscale>  0 0.90360720E+02</rscale>
<asrwt>0</asrwt>
<pdfrwt beam="1">  1        1 0.15579514E-03 0.90360720E+02</pdfrwt>
<pdfrwt beam="2">  1       -1 0.31011214E+00 0.90360720E+02</pdfrwt>
<totfact> 0.69647962E+03</totfact>
</mgrwt>
</event>
<event>
 7    1  0.3607059E-009  0.9459916E+02  0.7818608E-02  0.1292081E+00
          1   -1    0    0  501    0  0.00000000000E+00  0.00000000000E+00  0.13070911339E+02  0.13070912310E+02  0.50400000000E-02 0. -1.
         -1   -1    0    0    0  501 -0.00000000000E+00 -0.00000000000E+00 -0.17116252705E+03  0.17116252712E+03  0.50400000000E-02 0.  1.
         23    2    1    2    0    0 -0.71054273576E-14  0.00000000000E+00 -0.15809161571E+03  0.18423343943E+03  0.94599160924E+02 0.  0.
    9000005    2    3    3    0    0  0.23331133205E+02 -0.32504060377E+02 -0.12663611097E+03  0.13333840533E+03  0.11898319951E+02 0.  0.
         22    1    3    3    0    0 -0.23331133205E+02  0.32504060377E+02 -0.31455504741E+02  0.50895034101E+02  0.00000000000E+00 0. -1.
         22    1    4    4    0    0  0.20254226124E+02 -0.32392973982E+02 -0.11068138926E+03  0.11708931790E+03  0.00000000000E+00 0. -1.
         22    1    4    4    0    0  0.30769070812E+01 -0.11108639558E+00 -0.15954721709E+02  0.16249087427E+02  0.00000000000E+00 0. -1.
<mgrwt>
<rscale>  0 0.94599161E+02</rscale>
<asrwt>0</asrwt>
<pdfrwt beam="1">  1        1 0.20109096E-02 0.94599161E+02</pdfrwt>
<pdfrwt beam="2">  1       -1 0.26332695E-01 0.94599161E+02</pdfrwt>
<totfact> 0.65785180E+04</totfact>
</mgrwt>
</event>
<event>
 7    1  0.3607059E-009  0.9022166E+02  0.7818608E-02  0.1302316E+00
         -1   -1    0    0    0  501 -0.00000000000E+00  0.00000000000E+00  0.12012714168E+02  0.12012715225E+02  0.50400000000E-02 0.  1.
          1   -1    0    0  501    0  0.00000000000E+00 -0.00000000000E+00 -0.16940276228E+03  0.16940276235E+03  0.50400000000E-02 0. -1.
         23    2    1    2    0    0  0.35527136788E-14  0.00000000000E+00 -0.15739004811E+03  0.18141547758E+03  0.90221661814E+02 0.  0.
    9000005    2    3    3    0    0 -0.30128553752E+02 -0.11973776095E+02 -0.14172815980E+03  0.14540998063E+03  0.24678169528E+01 0.  0.
         22    1    3    3    0    0  0.30128553752E+02  0.11973776095E+02 -0.15661888309E+02  0.36005496949E+02  0.00000000000E+00 0.  1.
         22    1    4    4    0    0 -0.17111654386E+02 -0.80405917144E+01 -0.80676326322E+02  0.82862111123E+02  0.00000000000E+00 0. -1.
         22    1    4    4    0    0 -0.13016899366E+02 -0.39331843809E+01 -0.61051833480E+02  0.62547869506E+02  0.00000000000E+00 0. -1.
<mgrwt>
<rscale>  0 0.90221662E+02</rscale>
<asrwt>0</asrwt>
<pdfrwt beam="2">  1        1 0.26061962E-01 0.90221662E+02</pdfrwt>
<pdfrwt beam="1">  1       -1 0.18481101E-02 0.90221662E+02</pdfrwt>
<totfact> 0.11799188E+05</totfact>
</mgrwt>
</event>
<event>
 7    1  0.3607059E-009  0.9168669E+02  0.7818608E-02  0.1298818E+00
         -1   -1    0    0    0  501 -0.00000000000E+00  0.00000000000E+00  0.10340175130E+03  0.10340175142E+03  0.50400000000E-02 0.  1.
          1   -1    0    0  501    0  0.00000000000E+00 -0.00000000000E+00 -0.20324726538E+02  0.20324727163E+02  0.50400000000E-02 0. -1.
         23    2    1    2    0    0  0.00000000000E+00 -0.71054273576E-14  0.83077024762E+02  0.12372647859E+03  0.91686691837E+02 0.  0.
    9000005    2    3    3    0    0 -0.17465615676E+02  0.38911817322E+02  0.22687739568E+02  0.49793786058E+02  0.12062766886E+02 0.  0.
         22    1    3    3    0    0  0.17465615676E+02 -0.38911817322E+02  0.60389285193E+02  0.73932692528E+02  0.00000000000E+00 0.  1.
         22    1    4    4    0    0 -0.17747200157E+02  0.34457961495E+02  0.16407569890E+02  0.42089459174E+02  0.00000000000E+00 0.  1.
         22    1    4    4    0    0  0.28158448154E+00  0.44538558272E+01  0.62801696778E+01  0.77043268837E+01  0.00000000000E+00 0.  1.
<mgrwt>
<rscale>  0 0.91686692E+02</rscale>
<asrwt>0</asrwt>
<pdfrwt beam="2">  1        1 0.31268811E-02 0.91686692E+02</pdfrwt>
<pdfrwt beam="1">  1       -1 0.15907961E-01 0.91686692E+02</pdfrwt>
<totfact> 0.79706822E+04</totfact>
</mgrwt>
</event>
<event>
 7    1  0.3607059E-009  0.9132313E+02  0.7818608E-02  0.1299679E+00
         -1   -1    0    0    0  501 -0.00000000000E+00  0.00000000000E+00  0.87194181059E+02  0.87194181205E+02  0.50400000000E-02 0.  1.
          1   -1    0    0  501    0  0.00000000000E+00 -0.00000000000E+00 -0.23911900764E+02  0.23911901295E+02  0.50400000000E-02 0. -1.
         23    2    1    2    0    0  0.00000000000E+00  0.00000000000E+00  0.63282280295E+02  0.11110608250E+03  0.91323132716E+02 0.  0.
    9000005    2    3    3    0    0  0.14711122534E+02 -0.29696782180E+01  0.83890533350E+02  0.85612236009E+02  0.81607140475E+01 0.  0.
         22    1    3    3    0    0 -0.14711122534E+02  0.29696782180E+01 -0.20608253054E+02  0.25493846491E+02  0.00000000000E+00 0. -1.
         22    1    4    4    0    0  0.51625827346E+01 -0.93258840389E+00  0.51913374682E+02  0.52177777382E+02  0.00000000000E+00 0.  1.
         22    1    4    4    0    0  0.95485397997E+01 -0.20370898141E+01  0.31977158668E+02  0.33434458627E+02  0.00000000000E+00 0.  1.
<mgrwt>
<rscale>  0 0.91323133E+02</rscale>
<asrwt>0</asrwt>
<pdfrwt beam="2">  1        1 0.36787540E-02 0.91323133E+02</pdfrwt>
<pdfrwt beam="1">  1       -1 0.13414489E-01 0.91323133E+02</pdfrwt>
<totfact> 0.83063447E+04</totfact>
</mgrwt>
</event>
<event>
 7    1  0.4693916E-009  0.9196214E+02  0.7818608E-02  0.1298168E+00
          1   -1    0    0  501    0  0.00000000000E+00  0.00000000000E+00  0.11969809075E+03  0.11969809086E+03  0.50400000000E-02 0. -1.
         -1   -1    0    0    0  501 -0.00000000000E+00 -0.00000000000E+00 -0.17663262571E+02  0.17663263290E+02  0.50400000000E-02 0.  1.
         23    2    1    2    0    0  0.00000000000E+00  0.00000000000E+00  0.10203482818E+03  0.13736135415E+03  0.91962141403E+02 0.  0.
    9000005    2    3    3    0    0  0.21717927391E+02  0.18944192124E+02  0.16890496994E+01  0.32959122158E+02  0.15902831795E+02 0.  0.
         22    1    3    3    0    0 -0.21717927391E+02 -0.18944192124E+02  0.10034577848E+03  0.10440223199E+03  0.00000000000E+00 0. -1.
         22    1    4    4    0    0  0.52963222914E+01 -0.66191060936E+00 -0.41082875004E+01  0.67355164357E+01  0.00000000000E+00 0. -1.
         22    1    4    4    0    0  0.16421605100E+02  0.19606102734E+02  0.57973371998E+01  0.26223605722E+02  0.00000000000E+00 0. -1.
<mgrwt>
<rscale>  0 0.91962141E+02</rscale>
<asrwt>0</asrwt>
<pdfrwt beam="1">  1        1 0.18415090E-01 0.91962141E+02</pdfrwt>
<pdfrwt beam="2">  1       -1 0.27174252E-02 0.91962141E+02</pdfrwt>
<totfact> 0.10521202E+05</totfact>
</mgrwt>
</event>
<event>
 7    1  0.3607059E-009  0.9398494E+02  0.7818608E-02  0.1293479E+00
         -1   -1    0    0    0  501 -0.00000000000E+00  0.00000000000E+00  0.30120093852E+02  0.30120094273E+02  0.50400000000E-02 0.  1.
          1   -1    0    0  501    0  0.00000000000E+00 -0.00000000000E+00 -0.73316242005E+02  0.73316242178E+02  0.50400000000E-02 0. -1.
         23    2    1    2    0    0  0.71054273576E-14  0.88817841970E-15 -0.43196148154E+02  0.10343633645E+03  0.93984937534E+02 0.  0.
    9000005    2    3    3    0    0 -0.46215487442E+02 -0.70875937682E+01 -0.17477570543E+02  0.50073891800E+02  0.39779269737E+01 0.  0.
         22    1    3    3    0    0  0.46215487442E+02  0.70875937682E+01 -0.25718577610E+02  0.53362444652E+02  0.00000000000E+00 0. -1.
         22    1    4    4    0    0 -0.38095866827E+02 -0.67965238200E+01 -0.13165178846E+02  0.40875539621E+02  0.00000000000E+00 0. -1.
         22    1    4    4    0    0 -0.81196206151E+01 -0.29106994824E+00 -0.43123916975E+01  0.91983521786E+01  0.00000000000E+00 0. -1.
<mgrwt>
<rscale>  0 0.93984938E+02</rscale>
<asrwt>0</asrwt>
<pdfrwt beam="2">  1        1 0.11279422E-01 0.93984938E+02</pdfrwt>
<pdfrwt beam="1">  1       -1 0.46338607E-02 0.93984938E+02</pdfrwt>
<totfact> 0.91390898E+04</totfact>
</mgrwt>
</event>
<event>
 7    1  0.3607059E-009  0.9276187E+02  0.7818608E-02  0.1296298E+00
          1   -1    0    0  501    0  0.00000000000E+00  0.00000000000E+00  0.99751734738E+01  0.99751747471E+01  0.50400000000E-02 0. -1.
         -1   -1    0    0    0  501 -0.00000000000E+00 -0.00000000000E+00 -0.21565449112E+03  0.21565449118E+03  0.50400000000E-02 0.  1.
         23    2    1    2    0    0  0.00000000000E+00 -0.71054273576E-14 -0.20567931764E+03  0.22562966592E+03  0.92761869528E+02 0.  0.
    9000005    2    3    3    0    0  0.17134224382E+02  0.36796665313E+02 -0.49234450840E+02  0.64004876449E+02  0.50016833582E+01 0.  0.
         22    1    3    3    0    0 -0.17134224382E+02 -0.36796665313E+02 -0.15644486680E+03  0.16162478947E+03  0.00000000000E+00 0.  1.
         22    1    4    4    0    0  0.16401401838E+02  0.34085077251E+02 -0.43689117274E+02  0.57788731096E+02  0.00000000000E+00 0.  1.
         22    1    4    4    0    0  0.73282254385E+00  0.27115880623E+01 -0.55453335652E+01  0.62161453530E+01  0.00000000000E+00 0.  1.
<mgrwt>
<rscale>  0 0.92761870E+02</rscale>
<asrwt>0</asrwt>
<pdfrwt beam="1">  1        1 0.15346423E-02 0.92761870E+02</pdfrwt>
<pdfrwt beam="2">  1       -1 0.33177611E-01 0.92761870E+02</pdfrwt>
<totfact> 0.64914740E+04</totfact>
</mgrwt>
</event>
<event>
 7    1  0.3607059E-009  0.9451793E+02  0.7818608E-02  0.1292266E+00
         -1   -1    0    0    0  501 -0.00000000000E+00  0.00000000000E+00  0.25181064937E+03  0.25181064942E+03  0.50400000000E-02 0.  1.
          1   -1    0    0  501    0  0.00000000000E+00 -0.00000000000E+00 -0.88694007254E+01  0.88694021574E+01  0.50400000000E-02 0. -1.
         23    2    1    2    0    0  0.00000000000E+00  0.00000000000E+00  0.24294124864E+03  0.26068005157E+03  0.94517929502E+02 0.  0.
    9000005    2    3    3    0    0  0.44807242925E+02 -0.10134416702E+02  0.13543887223E+03  0.14377343776E+03  0.14721340728E+02 0.  0.
         22    1    3    3    0    0 -0.44807242925E+02  0.10134416702E+02  0.10750237641E+03  0.11690661382E+03  0.00000000000E+00 0. -1.
         22    1    4    4    0    0  0.19191960849E+02 -0.57779991245E+01  0.81128587420E+02  0.83567723027E+02  0.00000000000E+00 0. -1.
         22    1    4    4    0    0  0.25615282075E+02 -0.43564175779E+01  0.54310284811E+02  0.60205714730E+02  0.00000000000E+00 0. -1.
<mgrwt>
<rscale>  0 0.94517930E+02</rscale>
<asrwt>0</asrwt>
<pdfrwt beam="2">  1        1 0.13645231E-02 0.94517930E+02</pdfrwt>
<pdfrwt beam="1">  1       -1 0.38740105E-01 0.94517930E+02</pdfrwt>
<totfact> 0.58801228E+04</totfact>
</mgrwt>
</event>
<event>
 7    1  0.3607059E-009  0.9101425E+02  0.7818608E-02  0.1300414E+00
         -1   -1    0    0    0  501 -0.00000000000E+00  0.00000000000E+00  0.43203455695E+02  0.43203455989E+02  0.50400000000E-02 0.  1.
          1   -1    0    0  501    0  0.00000000000E+00 -0.00000000000E+00 -0.47933633158E+02  0.47933633423E+02  0.50400000000E-02 0. -1.
         23    2    1    2    0    0  0.00000000000E+00  0.00000000000E+00 -0.47301774628E+01  0.91137089412E+02  0.91014254311E+02 0.  0.
    9000005    2    3    3    0    0  0.11484465037E+02 -0.36490457368E+02 -0.25277134501E+02  0.47713318738E+02  0.13197758913E+02 0.  0.
         22    1    3    3    0    0 -0.11484465037E+02  0.36490457368E+02  0.20546957038E+02  0.43423770675E+02  0.00000000000E+00 0.  1.
         22    1    4    4    0    0  0.11872749383E+02 -0.17130989000E+02 -0.15802024973E+02  0.26156011838E+02  0.00000000000E+00 0.  1.
         22    1    4    4    0    0 -0.38828434594E+00 -0.19359468368E+02 -0.94751095281E+01  0.21557306900E+02  0.00000000000E+00 0.  1.
<mgrwt>
<rscale>  0 0.91014254E+02</rscale>
<asrwt>0</asrwt>
<pdfrwt beam="2">  1        1 0.73744051E-02 0.91014254E+02</pdfrwt>
<pdfrwt beam="1">  1       -1 0.66466856E-02 0.91014254E+02</pdfrwt>
<totfact> 0.93638971E+04</totfact>
</mgrwt>
</event>
<event>
 7    1  0.3607059E-009  0.9285214E+02  0.7818608E-02  0.1296088E+00
          1   -1    0    0  501    0  0.00000000000E+00  0.00000000000E+00  0.18399967018E+02  0.18399967708E+02  0.50400000000E-02 0. -1.
         -1   -1    0    0    0  501 -0.00000000000E+00 -0.00000000000E+00 -0.11714042063E+03  0.11714042074E+03  0.50400000000E-02 0.  1.
         23    2    1    2    0    0  0.00000000000E+00  0.00000000000E+00 -0.98740453616E+02  0.13554038845E+03  0.92852139022E+02 0.  0.
    9000005    2    3    3    0    0  0.36258470704E+02 -0.50163334987E+01 -0.90508538384E+02  0.98022329760E+02  0.87602118415E+01 0.  0.
         22    1    3    3    0    0 -0.36258470704E+02  0.50163334987E+01 -0.82319152320E+01  0.37518058691E+02  0.00000000000E+00 0. -1.
         22    1    4    4    0    0  0.51458424191E+01 -0.64063516285E+00 -0.22755743371E+02  0.23339108038E+02  0.00000000000E+00 0.  1.
         22    1    4    4    0    0  0.31112628285E+02 -0.43756983358E+01 -0.67752795013E+02  0.74683221722E+02  0.00000000000E+00 0.  1.
<mgrwt>
<rscale>  0 0.92852139E+02</rscale>
<asrwt>0</asrwt>
<pdfrwt beam="1">  1        1 0.28307643E-02 0.92852139E+02</pdfrwt>
<pdfrwt beam="2">  1       -1 0.18021603E-01 0.92852139E+02</pdfrwt>
<totfact> 0.75285035E+04</totfact>
</mgrwt>
</event>
<event>
 7    1  0.3607059E-009  0.9085686E+02  0.7818608E-02  0.1300790E+00
          1   -1    0    0  501    0  0.00000000000E+00  0.00000000000E+00  0.40401779984E+02  0.40401780299E+02  0.50400000000E-02 0. -1.
         -1   -1    0    0    0  501 -0.00000000000E+00 -0.00000000000E+00 -0.51080480354E+02  0.51080480603E+02  0.50400000000E-02 0.  1.
         23    2    1    2    0    0  0.88817841970E-15  0.00000000000E+00 -0.10678700369E+02  0.91482260901E+02  0.90856862251E+02 0.  0.
    9000005    2    3    3    0    0  0.56110294120E+01 -0.17037022561E+02  0.36108557132E+02  0.41374464569E+02  0.92884138269E+01 0.  0.
         22    1    3    3    0    0 -0.56110294120E+01  0.17037022561E+02 -0.46787257501E+02  0.50107796332E+02  0.00000000000E+00 0.  1.
         22    1    4    4    0    0  0.76941653862E+01 -0.16042913846E+02  0.30514791619E+02  0.35323190303E+02  0.00000000000E+00 0. -1.
         22    1    4    4    0    0 -0.20831359742E+01 -0.99410871500E+00  0.55937655128E+01  0.60512742655E+01  0.00000000000E+00 0. -1.
<mgrwt>
<rscale>  0 0.90856862E+02</rscale>
<asrwt>0</asrwt>
<pdfrwt beam="1">  1        1 0.62156585E-02 0.90856862E+02</pdfrwt>
<pdfrwt beam="2">  1       -1 0.78585355E-02 0.90856862E+02</pdfrwt>
<totfact> 0.91706847E+04</totfact>
</mgrwt>
</event>
<event>
 7    1  0.3607059E-009  0.9221290E+02  0.7818608E-02  0.1297580E+00
         -1   -1    0    0    0  501 -0.00000000000E+00  0.00000000000E+00  0.21835053496E+02  0.21835054077E+02  0.50400000000E-02 0.  1.
          1   -1    0    0  501    0  0.00000000000E+00 -0.00000000000E+00 -0.97357421027E+02  0.97357421158E+02  0.50400000000E-02 0. -1.
         23    2    1    2    0    0  0.00000000000E+00  0.00000000000E+00 -0.75522367531E+02  0.11919247523E+03  0.92212895817E+02 0.  0.
    9000005    2    3    3    0    0 -0.28447713589E+02 -0.29869109981E+02 -0.11746309311E+02  0.43239715301E+02  0.55010051267E+01 0.  0.
         22    1    3    3    0    0  0.28447713589E+02  0.29869109981E+02 -0.63776058220E+02  0.75952759934E+02  0.00000000000E+00 0. -1.
         22    1    4    4    0    0 -0.10274709736E+02 -0.14343647533E+02 -0.37713480317E+01  0.18042531715E+02  0.00000000000E+00 0.  1.
         22    1    4    4    0    0 -0.18173003853E+02 -0.15525462447E+02 -0.79749612798E+01  0.25197183586E+02  0.00000000000E+00 0.  1.
<mgrwt>
<rscale>  0 0.92212896E+02</rscale>
<asrwt>0</asrwt>
<pdfrwt beam="2">  1        1 0.14978065E-01 0.92212896E+02</pdfrwt>
<pdfrwt beam="1">  1       -1 0.33592391E-02 0.92212896E+02</pdfrwt>
<totfact> 0.10082732E+05</totfact>
</mgrwt>
</event>
<event>
 7    1  0.3607059E-009  0.9135318E+02  0.7818608E-02  0.1299607E+00
          1   -1    0    0  501    0  0.00000000000E+00  0.00000000000E+00  0.21841711724E+03  0.21841711730E+03  0.50400000000E-02 0. -1.
         -1   -1    0    0    0  501 -0.00000000000E+00 -0.00000000000E+00 -0.95521400208E+01  0.95521413505E+01  0.50400000000E-02 0.  1.
         23    2    1    2    0    0 -0.44408920985E-15  0.71054273576E-14  0.20886497722E+03  0.22796925865E+03  0.91353183744E+02 0.  0.
    9000005    2    3    3    0    0  0.36282294664E+01 -0.44340061858E+02  0.11477506151E+03  0.12389180013E+03  0.14023489538E+02 0.  0.
         22    1    3    3    0    0 -0.36282294664E+01  0.44340061858E+02  0.94089915709E+02  0.10407745852E+03  0.00000000000E+00 0.  1.
         22    1    4    4    0    0  0.86689798808E+01 -0.20700055618E+02  0.57578687717E+02  0.61797643920E+02  0.00000000000E+00 0.  1.
         22    1    4    4    0    0 -0.50407504144E+01 -0.23640006240E+02  0.57196373794E+02  0.62094156206E+02  0.00000000000E+00 0.  1.
<mgrwt>
<rscale>  0 0.91353184E+02</rscale>
<asrwt>0</asrwt>
<pdfrwt beam="1">  1        1 0.33602630E-01 0.91353184E+02</pdfrwt>
<pdfrwt beam="2">  1       -1 0.14695603E-02 0.91353184E+02</pdfrwt>
<totfact> 0.11983128E+05</totfact>
</mgrwt>
</event>
<event>
 7    1  0.3607059E-009  0.9337808E+02  0.7818608E-02  0.1294871E+00
          1   -1    0    0  501    0  0.00000000000E+00  0.00000000000E+00  0.25181950841E+03  0.25181950846E+03  0.50400000000E-02 0. -1.
         -1   -1    0    0    0  501 -0.00000000000E+00 -0.00000000000E+00 -0.86564628105E+01  0.86564642777E+01  0.50400000000E-02 0.  1.
         23    2    1    2    0    0  0.00000000000E+00  0.00000000000E+00  0.24316304560E+03  0.26047597274E+03  0.93378078951E+02 0.  0.
    9000005    2    3    3    0    0 -0.42007168450E+02  0.16109259500E+02  0.14229832779E+03  0.15003231407E+03  0.15387356119E+02 0.  0.
         22    1    3    3    0    0  0.42007168450E+02 -0.16109259500E+02  0.10086471781E+03  0.11044365867E+03  0.00000000000E+00 0.  1.
         22    1    4    4    0    0 -0.24639159149E+02  0.17242179356E+02  0.94023008627E+02  0.98715282828E+02  0.00000000000E+00 0. -1.
         22    1    4    4    0    0 -0.17368009301E+02 -0.11329198552E+01  0.48275319166E+02  0.51317031238E+02  0.00000000000E+00 0. -1.
<mgrwt>
<rscale>  0 0.93378079E+02</rscale>
<asrwt>0</asrwt>
<pdfrwt beam="1">  1        1 0.38741464E-01 0.93378079E+02</pdfrwt>
<pdfrwt beam="2">  1       -1 0.13317636E-02 0.93378079E+02</pdfrwt>
<totfact> 0.11618485E+05</totfact>
</mgrwt>
</event>
<event>
 7    1  0.3607059E-009  0.9072421E+02  0.7818608E-02  0.1301107E+00
          1   -1    0    0  501    0  0.00000000000E+00  0.00000000000E+00  0.37743718462E+03  0.37743718466E+03  0.50400000000E-02 0. -1.
         -1   -1    0    0    0  501 -0.00000000000E+00 -0.00000000000E+00 -0.54518216069E+01  0.54518239366E+01  0.50400000000E-02 0.  1.
         23    2    1    2    0    0  0.44408920985E-15  0.00000000000E+00  0.37198536302E+03  0.38288900859E+03  0.90724211781E+02 0.  0.
    9000005    2    3    3    0    0  0.30509432373E+01 -0.14774251741E+02  0.36636980960E+03  0.36679176630E+03  0.90429902297E+01 0.  0.
         22    1    3    3    0    0 -0.30509432373E+01  0.14774251741E+02  0.56155534148E+01  0.16097242289E+02  0.00000000000E+00 0.  1.
         22    1    4    4    0    0  0.43907187478E+01 -0.33637058539E+01  0.79617624238E+02  0.79809517086E+02  0.00000000000E+00 0.  1.
         22    1    4    4    0    0 -0.13397755105E+01 -0.11410545887E+02  0.28675218536E+03  0.28698224922E+03  0.00000000000E+00 0.  1.
<mgrwt>
<rscale>  0 0.90724212E+02</rscale>
<asrwt>0</asrwt>
<pdfrwt beam="1">  1        1 0.58067270E-01 0.90724212E+02</pdfrwt>
<pdfrwt beam="2">  1       -1 0.83874182E-03 0.90724212E+02</pdfrwt>
<totfact> 0.13536037E+05</totfact>
</mgrwt>
</event>
<event>
 7    1  0.3607059E-009  0.9043454E+02  0.7818608E-02  0.1301803E+00
          1   -1    0    0  501    0  0.00000000000E+00  0.00000000000E+00  0.31532951360E+02  0.31532951763E+02  0.50400000000E-02 0. -1.
         -1   -1    0    0    0  501 -0.00000000000E+00 -0.00000000000E+00 -0.64840160945E+02  0.64840161141E+02  0.50400000000E-02 0.  1.
         23    2    1    2    0    0  0.00000000000E+00  0.00000000000E+00 -0.33307209586E+02  0.96373112904E+02  0.90434543624E+02 0.  0.
    9000005    2    3    3    0    0  0.19983173766E+02 -0.98587277440E+01 -0.58166611494E+02  0.62988811058E+02  0.93655688211E+01 0.  0.
         22    1    3    3    0    0 -0.19983173766E+02  0.98587277440E+01  0.24859401908E+02  0.33384301846E+02  0.00000000000E+00 0. -1.
         22    1    4    4    0    0  0.15065463777E+02 -0.39211048656E+01 -0.30163382493E+02  0.33943672541E+02  0.00000000000E+00 0. -1.
         22    1    4    4    0    0  0.49177099895E+01 -0.59376228784E+01 -0.28003229001E+02  0.29045138517E+02  0.00000000000E+00 0. -1.
<mgrwt>
<rscale>  0 0.90434544E+02</rscale>
<asrwt>0</asrwt>
<pdfrwt beam="1">  1        1 0.48512234E-02 0.90434544E+02</pdfrwt>
<pdfrwt beam="2">  1       -1 0.99754094E-02 0.90434544E+02</pdfrwt>
<totfact> 0.89445085E+04</totfact>
</mgrwt>
</event>
<event>
 7    1  0.3607059E-009  0.9296665E+02  0.7818608E-02  0.1295822E+00
          1   -1    0    0  501    0  0.00000000000E+00  0.00000000000E+00  0.31864851466E+03  0.31864851470E+03  0.50400000000E-02 0. -1.
         -1   -1    0    0    0  501 -0.00000000000E+00 -0.00000000000E+00 -0.67808225384E+01  0.67808244114E+01  0.50400000000E-02 0.  1.
         23    2    1    2    0    0  0.00000000000E+00  0.00000000000E+00  0.31186769212E+03  0.32542933911E+03  0.92966646519E+02 0.  0.
    9000005    2    3    3    0    0  0.37648666479E+02 -0.24558102263E+02  0.13867709442E+03  0.14650056667E+03  0.14510583859E+02 0.  0.
         22    1    3    3    0    0 -0.37648666479E+02  0.24558102263E+02  0.17319059770E+03  0.17892877244E+03  0.00000000000E+00 0. -1.
         22    1    4    4    0    0  0.23167136604E+02 -0.22960531262E+02  0.92774021543E+02  0.98340842419E+02  0.00000000000E+00 0.  1.
         22    1    4    4    0    0  0.14481529875E+02 -0.15975710010E+01  0.45903072872E+02  0.48159724248E+02  0.00000000000E+00 0.  1.
<mgrwt>
<rscale>  0 0.92966647E+02</rscale>
<asrwt>0</asrwt>
<pdfrwt beam="1">  1        1 0.49022843E-01 0.92966647E+02</pdfrwt>
<pdfrwt beam="2">  1       -1 0.10432037E-02 0.92966647E+02</pdfrwt>
<totfact> 0.12304232E+05</totfact>
</mgrwt>
</event>
<event>
 7    1  0.3607059E-009  0.9076960E+02  0.7818608E-02  0.1300999E+00
         -1   -1    0    0    0  501 -0.00000000000E+00  0.00000000000E+00  0.38018857534E+02  0.38018857868E+02  0.50400000000E-02 0.  1.
          1   -1    0    0  501    0  0.00000000000E+00 -0.00000000000E+00 -0.54177852425E+02  0.54177852659E+02  0.50400000000E-02 0. -1.
         23    2    1    2    0    0  0.00000000000E+00  0.88817841970E-15 -0.16158994891E+02  0.92196710527E+02  0.90769600176E+02 0.  0.
    9000005    2    3    3    0    0 -0.27426704067E+02 -0.75145041272E+01 -0.43066603529E+02  0.53046853939E+02  0.12269657901E+02 0.  0.
         22    1    3    3    0    0  0.27426704067E+02  0.75145041272E+01  0.26907608638E+02  0.39149856588E+02  0.00000000000E+00 0.  1.
         22    1    4    4    0    0 -0.25421407098E+02 -0.99708245182E+01 -0.41002600756E+02  0.49263359093E+02  0.00000000000E+00 0. -1.
         22    1    4    4    0    0 -0.20052969687E+01  0.24563203910E+01 -0.20640027734E+01  0.37834948453E+01  0.00000000000E+00 0. -1.
<mgrwt>
<rscale>  0 0.90769600E+02</rscale>
<asrwt>0</asrwt>
<pdfrwt beam="2">  1        1 0.83350543E-02 0.90769600E+02</pdfrwt>
<pdfrwt beam="1">  1       -1 0.58490550E-02 0.90769600E+02</pdfrwt>
<totfact> 0.96090030E+04</totfact>
</mgrwt>
</event>
<event>
 7    1  0.3607059E-009  0.1091859E+03  0.7818608E-02  0.1262085E+00
         -1   -1    0    0    0  501 -0.00000000000E+00  0.00000000000E+00  0.22264402089E+03  0.22264402094E+03  0.50400000000E-02 0.  1.
          1   -1    0    0  501    0  0.00000000000E+00 -0.00000000000E+00 -0.13386345126E+02  0.13386346075E+02  0.50400000000E-02 0. -1.
         23    2    1    2    0    0  0.00000000000E+00  0.00000000000E+00  0.20925767576E+03  0.23603036702E+03  0.10918589327E+03 0.  0.
    9000005    2    3    3    0    0 -0.24527190833E+02 -0.46534898392E+02  0.13252346041E+03  0.14299693398E+03  0.10889247378E+02 0.  0.
         22    1    3    3    0    0  0.24527190833E+02  0.46534898392E+02  0.76734215349E+02  0.93033433043E+02  0.00000000000E+00 0. -1.
         22    1    4    4    0    0 -0.49598181074E+00 -0.57265977278E+01  0.87142153374E+01  0.10439227387E+02  0.00000000000E+00 0. -1.
         22    1    4    4    0    0 -0.24031209022E+02 -0.40808300664E+02  0.12380924508E+03  0.13255770659E+03  0.00000000000E+00 0. -1.
<mgrwt>
<rscale>  0 0.10918589E+03</rscale>
<asrwt>0</asrwt>
<pdfrwt beam="2">  1        1 0.20594380E-02 0.10918589E+03</pdfrwt>
<pdfrwt beam="1">  1       -1 0.34252923E-01 0.10918589E+03</pdfrwt>
<totfact> 0.41913505E+04</totfact>
</mgrwt>
</event>
<event>
 7    1  0.3607059E-009  0.8864982E+02  0.7818608E-02  0.1306155E+00
          1   -1    0    0  501    0  0.00000000000E+00  0.00000000000E+00  0.54124157039E+02  0.54124157274E+02  0.50400000000E-02 0. -1.
         -1   -1    0    0    0  501 -0.00000000000E+00 -0.00000000000E+00 -0.36299826596E+02  0.36299826946E+02  0.50400000000E-02 0.  1.
         23    2    1    2    0    0  0.00000000000E+00  0.00000000000E+00  0.17824330443E+02  0.90423984219E+02  0.88649817633E+02 0.  0.
    9000005    2    3    3    0    0  0.19880087619E+02 -0.18571645101E+02 -0.26187602764E+02  0.38682568022E+02  0.83920584323E+01 0.  0.
         22    1    3    3    0    0 -0.19880087619E+02  0.18571645101E+02  0.44011933207E+02  0.51741416197E+02  0.00000000000E+00 0. -1.
         22    1    4    4    0    0  0.16105190218E+02 -0.13908966192E+02 -0.15156838668E+02  0.26125968899E+02  0.00000000000E+00 0.  1.
         22    1    4    4    0    0  0.37748974010E+01 -0.46626789095E+01 -0.11030764096E+02  0.12556599123E+02  0.00000000000E+00 0.  1.
<mgrwt>
<rscale>  0 0.88649818E+02</rscale>
<asrwt>0</asrwt>
<pdfrwt beam="1">  1        1 0.83267934E-02 0.88649818E+02</pdfrwt>
<pdfrwt beam="2">  1       -1 0.55845888E-02 0.88649818E+02</pdfrwt>
<totfact> 0.10258874E+05</totfact>
</mgrwt>
</event>
<event>
 7    1  0.3607059E-009  0.9684596E+02  0.7818608E-02  0.1287072E+00
          1   -1    0    0  501    0  0.00000000000E+00  0.00000000000E+00  0.69051913281E+02  0.69051913465E+02  0.50400000000E-02 0. -1.
         -1   -1    0    0    0  501 -0.00000000000E+00 -0.00000000000E+00 -0.33956844513E+02  0.33956844887E+02  0.50400000000E-02 0.  1.
         23    2    1    2    0    0  0.00000000000E+00 -0.88817841970E-15  0.35095068769E+02  0.10300875835E+03  0.96845962463E+02 0.  0.
    9000005    2    3    3    0    0 -0.32789494335E+02  0.74181059605E+01  0.53378155199E+02  0.64740619069E+02  0.14558195981E+02 0.  0.
         22    1    3    3    0    0  0.32789494335E+02 -0.74181059605E+01 -0.18283086430E+02  0.38268139283E+02  0.00000000000E+00 0. -1.
         22    1    4    4    0    0 -0.17799794047E+02  0.10988776966E+02  0.26532837226E+02  0.33787236326E+02  0.00000000000E+00 0. -1.
         22    1    4    4    0    0 -0.14989700288E+02 -0.35706710051E+01  0.26845317973E+02  0.30953382743E+02  0.00000000000E+00 0. -1.
<mgrwt>
<rscale>  0 0.96845962E+02</rscale>
<asrwt>0</asrwt>
<pdfrwt beam="1">  1        1 0.10623371E-01 0.96845962E+02</pdfrwt>
<pdfrwt beam="2">  1       -1 0.52241300E-02 0.96845962E+02</pdfrwt>
<totfact> 0.83291519E+04</totfact>
</mgrwt>
</event>
<event>
 7    1  0.3607059E-009  0.1161012E+03  0.7818608E-02  0.1249671E+00
         -1   -1    0    0    0  501 -0.00000000000E+00  0.00000000000E+00  0.66233579018E+01  0.66233598194E+01  0.50400000000E-02 0.  1.
          1   -1    0    0  501    0  0.00000000000E+00 -0.00000000000E+00 -0.50878630211E+03  0.50878630214E+03  0.50400000000E-02 0. -1.
         23    2    1    2    0    0  0.00000000000E+00  0.00000000000E+00 -0.50216294421E+03  0.51540966196E+03  0.11610123643E+03 0.  0.
    9000005    2    3    3    0    0 -0.47554066725E+02  0.23270199196E+02 -0.35500584355E+03  0.35901879359E+03  0.79027694992E+01 0.  0.
         22    1    3    3    0    0  0.47554066725E+02 -0.23270199196E+02 -0.14715710066E+03  0.15639086837E+03  0.00000000000E+00 0.  1.
         22    1    4    4    0    0 -0.42879557493E+02  0.22827607087E+02 -0.31227418057E+03  0.31602993520E+03  0.00000000000E+00 0.  1.
         22    1    4    4    0    0 -0.46745092321E+01  0.44259210936E+00 -0.42731662981E+02  0.42988858387E+02  0.00000000000E+00 0.  1.
<mgrwt>
<rscale>  0 0.11610124E+03</rscale>
<asrwt>0</asrwt>
<pdfrwt beam="2">  1        1 0.78274785E-01 0.11610124E+03</pdfrwt>
<pdfrwt beam="1">  1       -1 0.10189787E-02 0.11610124E+03</pdfrwt>
<totfact> 0.72992560E+04</totfact>
</mgrwt>
</event>
<event>
 7    1  0.3607059E-009  0.8984224E+02  0.7818608E-02  0.1303234E+00
         -1   -1    0    0    0  501 -0.00000000000E+00  0.00000000000E+00  0.14141718822E+02  0.14141719721E+02  0.50400000000E-02 0. -1.
          1   -1    0    0  501    0  0.00000000000E+00 -0.00000000000E+00 -0.14269178592E+03  0.14269178601E+03  0.50400000000E-02 0.  1.
         23    2    1    2    0    0  0.00000000000E+00  0.00000000000E+00 -0.12855006710E+03  0.15683350573E+03  0.89842243786E+02 0.  0.
    9000005    2    3    3    0    0 -0.27175308428E+02  0.34365726856E+02 -0.66864129153E+02  0.81172052462E+02  0.14092188010E+02 0.  0.
         22    1    3    3    0    0  0.27175308428E+02 -0.34365726856E+02 -0.61685937944E+02  0.75661453267E+02  0.00000000000E+00 0. -1.
         22    1    4    4    0    0 -0.91160284124E+01  0.73411502970E+01 -0.88519918072E+01  0.14674884008E+02  0.00000000000E+00 0.  1.
         22    1    4    4    0    0 -0.18059280016E+02  0.27024576559E+02 -0.58012137346E+02  0.66497168454E+02  0.00000000000E+00 0.  1.
<mgrwt>
<rscale>  0 0.89842244E+02</rscale>
<asrwt>0</asrwt>
<pdfrwt beam="2">  1        1 0.21952582E-01 0.89842244E+02</pdfrwt>
<pdfrwt beam="1">  1       -1 0.21756492E-02 0.89842244E+02</pdfrwt>
<totfact> 0.11562053E+05</totfact>
</mgrwt>
</event>
<event>
 7    1  0.3607059E-009  0.8971321E+02  0.7818608E-02  0.1303548E+00
          1   -1    0    0  501    0  0.00000000000E+00  0.00000000000E+00  0.99505171681E+02  0.99505171808E+02  0.50400000000E-02 0. -1.
         -1   -1    0    0    0  501 -0.00000000000E+00 -0.00000000000E+00 -0.20221209548E+02  0.20221210176E+02  0.50400000000E-02 0.  1.
         23    2    1    2    0    0  0.00000000000E+00 -0.71054273576E-14  0.79283962132E+02  0.11972638198E+03  0.89713209126E+02 0.  0.
    9000005    2    3    3    0    0 -0.26316798370E+01  0.40248012820E+02  0.19158211998E+02  0.47325179619E+02  0.15678241750E+02 0.  0.
         22    1    3    3    0    0  0.26316798370E+01 -0.40248012820E+02  0.60125750135E+02  0.72401202365E+02  0.00000000000E+00 0. -1.
         22    1    4    4    0    0  0.77997730865E+00  0.24260764627E+02  0.19246462897E+02  0.30977724237E+02  0.00000000000E+00 0.  1.
         22    1    4    4    0    0 -0.34116571457E+01  0.15987248193E+02 -0.88250898999E-01  0.16347455382E+02  0.00000000000E+00 0.  1.
<mgrwt>
<rscale>  0 0.89713209E+02</rscale>
<asrwt>0</asrwt>
<pdfrwt beam="1">  1        1 0.15308488E-01 0.89713209E+02</pdfrwt>
<pdfrwt beam="2">  1       -1 0.31109553E-02 0.89713209E+02</pdfrwt>
<totfact> 0.10906488E+05</totfact>
</mgrwt>
</event>
<event>
 7    1  0.3607059E-009  0.9000875E+02  0.7818608E-02  0.1302831E+00
         -1   -1    0    0    0  501 -0.00000000000E+00  0.00000000000E+00  0.28785688259E+01  0.28785732381E+01  0.50400000000E-02 0.  1.
          1   -1    0    0  501    0  0.00000000000E+00 -0.00000000000E+00 -0.70361082615E+03  0.70361082616E+03  0.50400000000E-02 0. -1.
         23    2    1    2    0    0 -0.66613381478E-15  0.00000000000E+00 -0.70073225732E+03  0.70648939940E+03  0.90008749679E+02 0.  0.
    9000005    2    3    3    0    0  0.12355628980E+01  0.20405238045E+02 -0.66383720115E+03  0.66430948089E+03  0.14469154197E+02 0.  0.
         22    1    3    3    0    0 -0.12355628980E+01 -0.20405238045E+02 -0.36895056173E+02  0.42179918509E+02  0.00000000000E+00 0.  1.
         22    1    4    4    0    0  0.52565462975E+01  0.13567750256E+02 -0.26949813167E+03  0.26989064100E+03  0.00000000000E+00 0. -1.
         22    1    4    4    0    0 -0.40209833995E+01  0.68374877895E+01 -0.39433906948E+03  0.39441883990E+03  0.00000000000E+00 0. -1.
<mgrwt>
<rscale>  0 0.90008750E+02</rscale>
<asrwt>0</asrwt>
<pdfrwt beam="2">  1        1 0.10824768E+00 0.90008750E+02</pdfrwt>
<pdfrwt beam="1">  1       -1 0.44285764E-03 0.90008750E+02</pdfrwt>
<totfact> 0.14709555E+05</totfact>
</mgrwt>
</event>
<event>
 7    1  0.3607059E-009  0.9069084E+02  0.7818608E-02  0.1301187E+00
         -1   -1    0    0    0  501 -0.00000000000E+00  0.00000000000E+00  0.14107258756E+03  0.14107258765E+03  0.50400000000E-02 0.  1.
          1   -1    0    0  501    0  0.00000000000E+00 -0.00000000000E+00 -0.14575525923E+02  0.14575526795E+02  0.50400000000E-02 0. -1.
         23    2    1    2    0    0  0.35527136788E-14  0.00000000000E+00  0.12649706163E+03  0.15564811444E+03  0.90690842577E+02 0.  0.
    9000005    2    3    3    0    0 -0.24963513297E+02  0.35591165521E+02  0.77013473959E+02  0.89780569259E+02  0.15477964529E+02 0.  0.
         22    1    3    3    0    0  0.24963513297E+02 -0.35591165521E+02  0.49483587673E+02  0.65867545182E+02  0.00000000000E+00 0.  1.
         22    1    4    4    0    0 -0.17079166351E+01  0.43715004385E+00 -0.23723713282E+00  0.17788650456E+01  0.00000000000E+00 0.  1.
         22    1    4    4    0    0 -0.23255596661E+02  0.35154015477E+02  0.77250711092E+02  0.88001704214E+02  0.00000000000E+00 0.  1.
<mgrwt>
<rscale>  0 0.90690843E+02</rscale>
<asrwt>0</asrwt>
<pdfrwt beam="2">  1        1 0.22423886E-02 0.90690843E+02</pdfrwt>
<pdfrwt beam="1">  1       -1 0.21703476E-01 0.90690843E+02</pdfrwt>
<totfact> 0.76907744E+04</totfact>
</mgrwt>
</event>
<event>
 7    1  0.3607059E-009  0.8856251E+02  0.7818608E-02  0.1306371E+00
          1   -1    0    0  501    0  0.00000000000E+00  0.00000000000E+00  0.59392882392E+03  0.59392882394E+03  0.50400000000E-02 0. -1.
         -1   -1    0    0    0  501 -0.00000000000E+00 -0.00000000000E+00 -0.33014537416E+01  0.33014575886E+01  0.50400000000E-02 0.  1.
         23    2    1    2    0    0  0.00000000000E+00  0.71054273576E-14  0.59062737018E+03  0.59723028153E+03  0.88562513359E+02 0.  0.
    9000005    2    3    3    0    0  0.48994936679E+00 -0.43867003165E+02  0.33316278217E+03  0.33605492263E+03  0.33041769078E+01 0.  0.
         22    1    3    3    0    0 -0.48994936679E+00  0.43867003165E+02  0.25746458801E+03  0.26117535890E+03  0.00000000000E+00 0.  1.
         22    1    4    4    0    0  0.60116693057E+00 -0.33707099659E+02  0.26603417570E+03  0.26816172846E+03  0.00000000000E+00 0.  1.
         22    1    4    4    0    0 -0.11121756378E+00 -0.10159903506E+02  0.67128606462E+02  0.67893194167E+02  0.00000000000E+00 0.  1.
<mgrwt>
<rscale>  0 0.88562513E+02</rscale>
<asrwt>0</asrwt>
<pdfrwt beam="1">  1        1 0.91373551E-01 0.88562513E+02</pdfrwt>
<pdfrwt beam="2">  1       -1 0.50791689E-03 0.88562513E+02</pdfrwt>
<totfact> 0.15280558E+05</totfact>
</mgrwt>
</event>
<event>
 6    1  0.3607059E-009  0.2350007E+03  0.7818608E-02  0.1123169E+00
         -1   -1    0    0    0  501 -0.00000000000E+00  0.00000000000E+00  0.11107486151E+03  0.11107486163E+03  0.50400000000E-02 0.  1.
          1   -1    0    0  501    0  0.00000000000E+00 -0.00000000000E+00 -0.12429757530E+03  0.12429757541E+03  0.50400000000E-02 0. -1.
    9000005    2    1    2    0    0  0.18136426884E+02 -0.10974082453E+03  0.31070391473E+02  0.11564834705E+03  0.60985571084E+01 0.  0.
         22    1    1    2    0    0 -0.18136426884E+02  0.10974082453E+03 -0.44293105264E+02  0.11972408999E+03  0.00000000000E+00 0.  1.
         22    1    3    3    0    0  0.10536692290E+01 -0.16946795454E+01  0.32834997913E+00  0.20223677495E+01  0.00000000000E+00 0. -1.
         22    1    3    3    0    0  0.17082757655E+02 -0.10804614499E+03  0.30742041494E+02  0.11362597930E+03  0.00000000000E+00 0. -1.
<mgrwt>
<rscale>  0 0.23500073E+03</rscale>
<asrwt>0</asrwt>
<pdfrwt beam="2">  1        1 0.19122704E-01 0.23500073E+03</pdfrwt>
<pdfrwt beam="1">  1       -1 0.17088440E-01 0.23500073E+03</pdfrwt>
<totfact> 0.69318713E+03</totfact>
</mgrwt>
</event>
<event>
 7    1  0.3607059E-009  0.9015343E+02  0.7818608E-02  0.1302481E+00
          1   -1    0    0  501    0  0.00000000000E+00  0.00000000000E+00  0.73474039357E+01  0.73474056643E+01  0.50400000000E-02 0. -1.
         -1   -1    0    0    0  501 -0.00000000000E+00 -0.00000000000E+00 -0.27654804220E+03  0.27654804224E+03  0.50400000000E-02 0.  1.
         23    2    1    2    0    0  0.00000000000E+00  0.00000000000E+00 -0.26920063826E+03  0.28389544791E+03  0.90153434223E+02 0.  0.
    9000005    2    3    3    0    0 -0.34662452272E+02  0.24106254465E+02 -0.17641808292E+03  0.18195821390E+03  0.14242700653E+02 0.  0.
         22    1    3    3    0    0  0.34662452272E+02 -0.24106254465E+02 -0.92782555344E+02  0.10193723401E+03  0.00000000000E+00 0. -1.
         22    1    4    4    0    0 -0.65567601549E+01  0.12554260463E+02 -0.54501087973E+02  0.56311358977E+02  0.00000000000E+00 0.  1.
         22    1    4    4    0    0 -0.28105692117E+02  0.11551994002E+02 -0.12191699495E+03  0.12564685492E+03  0.00000000000E+00 0.  1.
<mgrwt>
<rscale>  0 0.90153434E+02</rscale>
<asrwt>0</asrwt>
<pdfrwt beam="1">  1        1 0.11303702E-02 0.90153434E+02</pdfrwt>
<pdfrwt beam="2">  1       -1 0.42545845E-01 0.90153434E+02</pdfrwt>
<totfact> 0.64363594E+04</totfact>
</mgrwt>
</event>
<event>
 7    1  0.3607059E-009  0.9228709E+02  0.7818608E-02  0.1297406E+00
          1   -1    0    0  501    0  0.00000000000E+00  0.00000000000E+00  0.46919152010E+03  0.46919152012E+03  0.50400000000E-02 0. -1.
         -1   -1    0    0    0  501 -0.00000000000E+00 -0.00000000000E+00 -0.45380748636E+01  0.45380776623E+01  0.50400000000E-02 0.  1.
         23    2    1    2    0    0  0.17763568394E-14  0.00000000000E+00  0.46465344523E+03  0.47372959779E+03  0.92287093635E+02 0.  0.
    9000005    2    3    3    0    0  0.12336569687E+02  0.42402162953E+02  0.29168796130E+03  0.29521575236E+03  0.10969927182E+02 0.  0.
         22    1    3    3    0    0 -0.12336569687E+02 -0.42402162953E+02  0.17296548393E+03  0.17851384542E+03  0.00000000000E+00 0.  1.
         22    1    4    4    0    0  0.53539532280E+01  0.10746660907E+02  0.11054403563E+03  0.11119415160E+03  0.00000000000E+00 0.  1.
         22    1    4    4    0    0  0.69826164591E+01  0.31655502046E+02  0.18114392567E+03  0.18402160076E+03  0.00000000000E+00 0.  1.
<mgrwt>
<rscale>  0 0.92287094E+02</rscale>
<asrwt>0</asrwt>
<pdfrwt beam="1">  1        1 0.72183270E-01 0.92287094E+02</pdfrwt>
<pdfrwt beam="2">  1       -1 0.69816598E-03 0.92287094E+02</pdfrwt>
<totfact> 0.13378571E+05</totfact>
</mgrwt>
</event>
<event>
 7    1  0.3607059E-009  0.9058837E+02  0.7818608E-02  0.1301433E+00
          1   -1    0    0  501    0  0.00000000000E+00  0.00000000000E+00  0.68543847781E+02  0.68543847967E+02  0.50400000000E-02 0. -1.
         -1   -1    0    0    0  501 -0.00000000000E+00 -0.00000000000E+00 -0.29930670104E+02  0.29930670529E+02  0.50400000000E-02 0.  1.
         23    2    1    2    0    0  0.00000000000E+00  0.00000000000E+00  0.38613177677E+02  0.98474518495E+02  0.90588372889E+02 0.  0.
    9000005    2    3    3    0    0  0.17602115174E+02  0.34443071290E+02 -0.62015991794E+01  0.39275499558E+02  0.28187611868E+01 0.  0.
         22    1    3    3    0    0 -0.17602115174E+02 -0.34443071290E+02  0.44814776856E+02  0.59199018938E+02  0.00000000000E+00 0.  1.
         22    1    4    4    0    0  0.11344918649E+02  0.24076767157E+02 -0.52603465047E+01  0.27130594193E+02  0.00000000000E+00 0. -1.
         22    1    4    4    0    0  0.62571965250E+01  0.10366304133E+02 -0.94125267467E+00  0.12144905365E+02  0.00000000000E+00 0. -1.
<mgrwt>
<rscale>  0 0.90588373E+02</rscale>
<asrwt>0</asrwt>
<pdfrwt beam="1">  1        1 0.10545207E-01 0.90588373E+02</pdfrwt>
<pdfrwt beam="2">  1       -1 0.46047185E-02 0.90588373E+02</pdfrwt>
<totfact> 0.10011947E+05</totfact>
</mgrwt>
</event>
<event>
 7    1  0.3607059E-009  0.9230545E+02  0.7818608E-02  0.1297363E+00
          1   -1    0    0  501    0  0.00000000000E+00  0.00000000000E+00  0.13722445065E+03  0.13722445074E+03  0.50400000000E-02 0. -1.
         -1   -1    0    0    0  501 -0.00000000000E+00 -0.00000000000E+00 -0.15522555720E+02  0.15522556538E+02  0.50400000000E-02 0.  1.
         23    2    1    2    0    0 -0.44408920985E-15  0.00000000000E+00  0.12170189493E+03  0.15274700728E+03  0.92305454895E+02 0.  0.
    9000005    2    3    3    0    0  0.25501215736E+01 -0.42799823537E+02  0.36887355992E+02  0.57711045506E+02  0.11469948845E+02 0.  0.
         22    1    3    3    0    0 -0.25501215736E+01  0.42799823537E+02  0.84814538938E+02  0.95035961773E+02  0.00000000000E+00 0. -1.
         22    1    4    4    0    0 -0.32886778140E+01 -0.26368842568E+02  0.25859947566E+02  0.37079214504E+02  0.00000000000E+00 0. -1.
         22    1    4    4    0    0  0.58387993877E+01 -0.16430980970E+02  0.11027408425E+02  0.20631831002E+02  0.00000000000E+00 0. -1.
<mgrwt>
<rscale>  0 0.92305455E+02</rscale>
<asrwt>0</asrwt>
<pdfrwt beam="1">  1        1 0.21111453E-01 0.92305455E+02</pdfrwt>
<pdfrwt beam="2">  1       -1 0.23880856E-02 0.92305455E+02</pdfrwt>
<totfact> 0.10671574E+05</totfact>
</mgrwt>
</event>
<event>
 7    1  0.3607059E-009  0.9194934E+02  0.7818608E-02  0.1298199E+00
         -1   -1    0    0    0  501 -0.00000000000E+00  0.00000000000E+00  0.31656104384E+02  0.31656104785E+02  0.50400000000E-02 0.  1.
          1   -1    0    0  501    0  0.00000000000E+00 -0.00000000000E+00 -0.66769755497E+02  0.66769755687E+02  0.50400000000E-02 0. -1.
         23    2    1    2    0    0  0.00000000000E+00  0.00000000000E+00 -0.35113651113E+02  0.98425860473E+02  0.91949342115E+02 0.  0.
    9000005    2    3    3    0    0  0.91037315486E+01  0.36110862792E+02  0.10490538736E+02  0.39547897945E+02  0.81922212608E+01 0.  0.
         22    1    3    3    0    0 -0.91037315486E+01 -0.36110862792E+02 -0.45604189849E+02  0.58877962528E+02  0.00000000000E+00 0. -1.
         22    1    4    4    0    0  0.69586624679E+01  0.34786575757E+02  0.10597212390E+02  0.37024718050E+02  0.00000000000E+00 0.  1.
         22    1    4    4    0    0  0.21450690807E+01  0.13242870350E+01 -0.10667365458E+00  0.25231798946E+01  0.00000000000E+00 0.  1.
<mgrwt>
<rscale>  0 0.91949342E+02</rscale>
<asrwt>0</asrwt>
<pdfrwt beam="2">  1        1 0.10272270E-01 0.91949342E+02</pdfrwt>
<pdfrwt beam="1">  1       -1 0.48701700E-02 0.91949342E+02</pdfrwt>
<totfact> 0.95692422E+04</totfact>
</mgrwt>
</event>
<event>
 7    1  0.3607059E-009  0.8730925E+02  0.7818608E-02  0.1309502E+00
         -1   -1    0    0    0  501 -0.00000000000E+00  0.00000000000E+00  0.12655535350E+03  0.12655535360E+03  0.50400000000E-02 0.  1.
          1   -1    0    0  501    0  0.00000000000E+00 -0.00000000000E+00 -0.15058439178E+02  0.15058440021E+02  0.50400000000E-02 0. -1.
         23    2    1    2    0    0  0.00000000000E+00  0.00000000000E+00  0.11149691432E+03  0.14161379362E+03  0.87309247164E+02 0.  0.
    9000005    2    3    3    0    0 -0.39276719062E+02 -0.11012566959E+02  0.37867356953E+02  0.57439872424E+02  0.14193834234E+02 0.  0.
         22    1    3    3    0    0  0.39276719062E+02  0.11012566959E+02  0.73629557367E+02  0.84173921195E+02  0.00000000000E+00 0.  1.
         22    1    4    4    0    0 -0.36507434384E+02 -0.10606012441E+02  0.38960242266E+02  0.54435105792E+02  0.00000000000E+00 0. -1.
         22    1    4    4    0    0 -0.27692846777E+01 -0.40655451877E+00 -0.10928853137E+01  0.30047666318E+01  0.00000000000E+00 0. -1.
<mgrwt>
<rscale>  0 0.87309247E+02</rscale>
<asrwt>0</asrwt>
<pdfrwt beam="2">  1        1 0.23166831E-02 0.87309247E+02</pdfrwt>
<pdfrwt beam="1">  1       -1 0.19470054E-01 0.87309247E+02</pdfrwt>
<totfact> 0.86869436E+04</totfact>
</mgrwt>
</event>
<event>
 7    1  0.3607059E-009  0.9233735E+02  0.7818608E-02  0.1297288E+00
         -1   -1    0    0    0  501 -0.00000000000E+00  0.00000000000E+00  0.24494694292E+02  0.24494694810E+02  0.50400000000E-02 0. -1.
          1   -1    0    0  501    0  0.00000000000E+00 -0.00000000000E+00 -0.87020749486E+02  0.87020749632E+02  0.50400000000E-02 0.  1.
         23    2    1    2    0    0  0.35527136788E-14 -0.17763568394E-14 -0.62526055194E+02  0.11151544444E+03  0.92337353064E+02 0.  0.
    9000005    2    3    3    0    0 -0.28655569852E+02  0.78472100439E+01  0.10268620908E+02  0.32891114506E+02  0.96778328708E+01 0.  0.
         22    1    3    3    0    0  0.28655569852E+02 -0.78472100439E+01 -0.72794676102E+02  0.78624329936E+02  0.00000000000E+00 0.  1.
         22    1    4    4    0    0 -0.90162582778E+01 -0.19681298871E+01  0.20937580926E+01  0.94631005244E+01  0.00000000000E+00 0. -1.
         22    1    4    4    0    0 -0.19639311575E+02  0.98153399311E+01  0.81748628150E+01  0.23428013982E+02  0.00000000000E+00 0. -1.
<mgrwt>
<rscale>  0 0.92337353E+02</rscale>
<asrwt>0</asrwt>
<pdfrwt beam="2">  1        1 0.13387808E-01 0.92337353E+02</pdfrwt>
<pdfrwt beam="1">  1       -1 0.37684146E-02 0.92337353E+02</pdfrwt>
<totfact> 0.98622915E+04</totfact>
</mgrwt>
</event>
<event>
 7    1  0.3841910E-009  0.9056784E+02  0.7818608E-02  0.1301482E+00
          1   -1    0    0  501    0  0.00000000000E+00  0.00000000000E+00  0.46479985825E+03  0.46479985828E+03  0.50400000000E-02 0. -1.
         -1   -1    0    0    0  501 -0.00000000000E+00 -0.00000000000E+00 -0.44118613644E+01  0.44118642432E+01  0.50400000000E-02 0.  1.
         23    2    1    2    0    0 -0.35527136788E-14 -0.88817841970E-15  0.46038799689E+03  0.46921172252E+03  0.90567835761E+02 0.  0.
    9000005    2    3    3    0    0 -0.22020927570E+02 -0.51482790802E+01  0.43230597431E+03  0.43315584893E+03  0.14970237452E+02 0.  0.
         22    1    3    3    0    0  0.22020927570E+02  0.51482790802E+01  0.28082022580E+02  0.36055873596E+02  0.00000000000E+00 0.  1.
         22    1    4    4    0    0 -0.16141472912E+01  0.41993650551E+01  0.92512398071E+02  0.92621724963E+02  0.00000000000E+00 0.  1.
         22    1    4    4    0    0 -0.20406780279E+02 -0.93476441353E+01  0.33979357623E+03  0.34053412396E+03  0.00000000000E+00 0.  1.
<mgrwt>
<rscale>  0 0.90567836E+02</rscale>
<asrwt>0</asrwt>
<pdfrwt beam="1">  1        1 0.71507671E-01 0.90567836E+02</pdfrwt>
<pdfrwt beam="2">  1       -1 0.67874813E-03 0.90567836E+02</pdfrwt>
<totfact> 0.14045063E+05</totfact>
</mgrwt>
</event>
<event>
 7    1  0.3607059E-009  0.9183147E+02  0.7818608E-02  0.1298476E+00
         -1   -1    0    0    0  501 -0.00000000000E+00  0.00000000000E+00  0.99797550655E+02  0.99797550783E+02  0.50400000000E-02 0.  1.
          1   -1    0    0  501    0  0.00000000000E+00 -0.00000000000E+00 -0.21125315194E+02  0.21125315795E+02  0.50400000000E-02 0. -1.
         23    2    1    2    0    0  0.00000000000E+00  0.00000000000E+00  0.78672235461E+02  0.12092286658E+03  0.91831470798E+02 0.  0.
    9000005    2    3    3    0    0  0.18564654790E+02 -0.25067554487E+02  0.83287958293E+02  0.89389811022E+02  0.89791771624E+01 0.  0.
         22    1    3    3    0    0 -0.18564654790E+02  0.25067554487E+02 -0.46157228316E+01  0.31533055556E+02  0.00000000000E+00 0. -1.
         22    1    4    4    0    0  0.13535603544E+02 -0.15005819480E+02  0.42188052738E+02  0.46778402874E+02  0.00000000000E+00 0.  1.
         22    1    4    4    0    0  0.50290512461E+01 -0.10061735007E+02  0.41099905554E+02  0.42611408148E+02  0.00000000000E+00 0.  1.
<mgrwt>
<rscale>  0 0.91831471E+02</rscale>
<asrwt>0</asrwt>
<pdfrwt beam="2">  1        1 0.32500485E-02 0.91831471E+02</pdfrwt>
<pdfrwt beam="1">  1       -1 0.15353470E-01 0.91831471E+02</pdfrwt>
<totfact> 0.79913699E+04</totfact>
</mgrwt>
</event>
<event>
 7    1  0.3607059E-009  0.8956409E+02  0.7818608E-02  0.1303911E+00
          1   -1    0    0  501    0  0.00000000000E+00  0.00000000000E+00  0.41873609373E+01  0.41873639704E+01  0.50400000000E-02 0. -1.
         -1   -1    0    0    0  501 -0.00000000000E+00 -0.00000000000E+00 -0.47892478173E+03  0.47892478176E+03  0.50400000000E-02 0.  1.
         23    2    1    2    0    0  0.00000000000E+00  0.00000000000E+00 -0.47473742079E+03  0.48311214573E+03  0.89564092403E+02 0.  0.
    9000005    2    3    3    0    0  0.41062841577E+02 -0.13745867868E+02 -0.22035993674E+03  0.22507530681E+03  0.15009536196E+02 0.  0.
         22    1    3    3    0    0 -0.41062841577E+02  0.13745867868E+02 -0.25437748406E+03  0.25803683891E+03  0.00000000000E+00 0. -1.
         22    1    4    4    0    0  0.12554918138E+02 -0.22990953325E+01 -0.36517094961E+02  0.38683459426E+02  0.00000000000E+00 0.  1.
         22    1    4    4    0    0  0.28507923439E+02 -0.11446772535E+02 -0.18384284178E+03  0.18639184739E+03  0.00000000000E+00 0.  1.
<mgrwt>
<rscale>  0 0.89564092E+02</rscale>
<asrwt>0</asrwt>
<pdfrwt beam="1">  1        1 0.64420999E-03 0.89564092E+02</pdfrwt>
<pdfrwt beam="2">  1       -1 0.73680693E-01 0.89564092E+02</pdfrwt>
<totfact> 0.50595239E+04</totfact>
</mgrwt>
</event>
<event>
 7    1  0.3607059E-009  0.8887562E+02  0.7818608E-02  0.1305598E+00
          1   -1    0    0  501    0  0.00000000000E+00  0.00000000000E+00  0.11673226439E+04  0.11673226439E+04  0.50400000000E-02 0. -1.
         -1   -1    0    0    0  501 -0.00000000000E+00 -0.00000000000E+00 -0.16916611448E+01  0.16916686527E+01  0.50400000000E-02 0.  1.
         23    2    1    2    0    0  0.00000000000E+00  0.44408920985E-15  0.11656309827E+04  0.11690143125E+04  0.88875615439E+02 0.  0.
    9000005    2    3    3    0    0  0.22243480856E+02  0.20927547689E+01  0.10878220934E+04  0.10880613921E+04  0.46404852070E+01 0.  0.
         22    1    3    3    0    0 -0.22243480856E+02 -0.20927547689E+01  0.77808889344E+02  0.80952920417E+02  0.00000000000E+00 0.  1.
         22    1    4    4    0    0  0.89649765192E+01  0.31236747050E+01  0.46556702111E+03  0.46566380501E+03  0.00000000000E+00 0. -1.
         22    1    4    4    0    0  0.13278504337E+02 -0.10309199361E+01  0.62225507228E+03  0.62239758712E+03  0.00000000000E+00 0. -1.
<mgrwt>
<rscale>  0 0.88875615E+02</rscale>
<asrwt>0</asrwt>
<pdfrwt beam="1">  1        1 0.17958792E+00 0.88875615E+02</pdfrwt>
<pdfrwt beam="2">  1       -1 0.26025640E-03 0.88875615E+02</pdfrwt>
<totfact> 0.13790889E+05</totfact>
</mgrwt>
</event>
<event>
 7    1  0.3607059E-009  0.8895252E+02  0.7818608E-02  0.1305408E+00
         -1   -1    0    0    0  501 -0.00000000000E+00  0.00000000000E+00  0.23283154328E+02  0.23283154873E+02  0.50400000000E-02 0.  1.
          1   -1    0    0  501    0  0.00000000000E+00 -0.00000000000E+00 -0.84960035213E+02  0.84960035362E+02  0.50400000000E-02 0. -1.
         23    2    1    2    0    0  0.00000000000E+00  0.00000000000E+00 -0.61676880885E+02  0.10824319024E+03  0.88952518776E+02 0.  0.
    9000005    2    3    3    0    0 -0.28271773593E+02 -0.20781974874E+02  0.21633495525E+01  0.35395687299E+02  0.41220063424E+01 0.  0.
         22    1    3    3    0    0  0.28271773593E+02  0.20781974874E+02 -0.63840230438E+02  0.72847502937E+02  0.00000000000E+00 0. -1.
         22    1    4    4    0    0 -0.23503740604E+02 -0.18431336397E+02  0.67926643065E+00  0.29876435306E+02  0.00000000000E+00 0. -1.
         22    1    4    4    0    0 -0.47680329897E+01 -0.23506384769E+01  0.14840831219E+01  0.55192519921E+01  0.00000000000E+00 0. -1.
<mgrwt>
<rscale>  0 0.88952519E+02</rscale>
<asrwt>0</asrwt>
<pdfrwt beam="2">  1        1 0.13070775E-01 0.88952519E+02</pdfrwt>
<pdfrwt beam="1">  1       -1 0.35820238E-02 0.88952519E+02</pdfrwt>
<totfact> 0.10881326E+05</totfact>
</mgrwt>
</event>
<event>
 7    1  0.3607059E-009  0.9218380E+02  0.7818608E-02  0.1297648E+00
          1   -1    0    0  501    0  0.00000000000E+00  0.00000000000E+00  0.32764541564E+03  0.32764541568E+03  0.50400000000E-02 0. -1.
         -1   -1    0    0    0  501 -0.00000000000E+00 -0.00000000000E+00 -0.64840300385E+01  0.64840319973E+01  0.50400000000E-02 0.  1.
         23    2    1    2    0    0  0.00000000000E+00  0.00000000000E+00  0.32116138560E+03  0.33412944767E+03  0.92183795771E+02 0.  0.
    9000005    2    3    3    0    0 -0.39838485208E+02  0.20465676351E+02  0.13078552296E+03  0.13855614201E+03  0.93275216937E+01 0.  0.
         22    1    3    3    0    0  0.39838485208E+02 -0.20465676351E+02  0.19037586264E+03  0.19557330567E+03  0.00000000000E+00 0. -1.
         22    1    4    4    0    0 -0.22602993569E+02  0.85821362872E+01  0.58478394970E+02  0.63279309887E+02  0.00000000000E+00 0.  1.
         22    1    4    4    0    0 -0.17235491639E+02  0.11883540064E+02  0.72307127986E+02  0.75276832121E+02  0.00000000000E+00 0.  1.
<mgrwt>
<rscale>  0 0.92183796E+02</rscale>
<asrwt>0</asrwt>
<pdfrwt beam="1">  1        1 0.50406997E-01 0.92183796E+02</pdfrwt>
<pdfrwt beam="2">  1       -1 0.99754305E-03 0.92183796E+02</pdfrwt>
<totfact> 0.12650391E+05</totfact>
</mgrwt>
</event>
<event>
 7    1  0.3607059E-009  0.9751714E+02  0.7818608E-02  0.1285605E+00
          1   -1    0    0  501    0  0.00000000000E+00  0.00000000000E+00  0.34710506433E+02  0.34710506799E+02  0.50400000000E-02 0. -1.
         -1   -1    0    0    0  501 -0.00000000000E+00 -0.00000000000E+00 -0.68492174422E+02  0.68492174608E+02  0.50400000000E-02 0.  1.
         23    2    1    2    0    0  0.00000000000E+00  0.35527136788E-14 -0.33781667989E+02  0.10320268141E+03  0.97517138788E+02 0.  0.
    9000005    2    3    3    0    0  0.24244433242E+02 -0.25122341581E+02  0.18809995046E+02  0.40077348848E+02  0.57838903241E+01 0.  0.
         22    1    3    3    0    0 -0.24244433242E+02  0.25122341581E+02 -0.52591663036E+02  0.63125332558E+02  0.00000000000E+00 0.  1.
         22    1    4    4    0    0  0.44214952391E+01 -0.81229729259E+01  0.42401924795E+01  0.10174062196E+02  0.00000000000E+00 0. -1.
         22    1    4    4    0    0  0.19822938003E+02 -0.16999368655E+02  0.14569802567E+02  0.29903286652E+02  0.00000000000E+00 0. -1.
<mgrwt>
<rscale>  0 0.97517139E+02</rscale>
<asrwt>0</asrwt>
<pdfrwt beam="1">  1        1 0.53400780E-02 0.97517139E+02</pdfrwt>
<pdfrwt beam="2">  1       -1 0.10537258E-01 0.97517139E+02</pdfrwt>
<totfact> 0.73160641E+04</totfact>
</mgrwt>
</event>
<event>
 7    1  0.3607059E-009  0.9086216E+02  0.7818608E-02  0.1300777E+00
         -1   -1    0    0    0  501 -0.00000000000E+00  0.00000000000E+00  0.20352054602E+02  0.20352055226E+02  0.50400000000E-02 0.  1.
          1   -1    0    0  501    0  0.00000000000E+00 -0.00000000000E+00 -0.10141399036E+03  0.10141399048E+03  0.50400000000E-02 0. -1.
         23    2    1    2    0    0  0.00000000000E+00  0.00000000000E+00 -0.81061935757E+02  0.12176604571E+03  0.90862161868E+02 0.  0.
    9000005    2    3    3    0    0 -0.16068697879E+02  0.37312614167E+01 -0.96779558750E+02  0.98980764588E+02  0.12600928668E+02 0.  0.
         22    1    3    3    0    0  0.16068697879E+02 -0.37312614167E+01  0.15717622993E+02  0.22785281123E+02  0.00000000000E+00 0.  1.
         22    1    4    4    0    0 -0.72595691083E+01 -0.40468696807E+01 -0.53165654757E+02  0.53811386747E+02  0.00000000000E+00 0.  1.
         22    1    4    4    0    0 -0.88091287704E+01  0.77781310975E+01 -0.43613903993E+02  0.45169377841E+02  0.00000000000E+00 0.  1.
<mgrwt>
<rscale>  0 0.90862162E+02</rscale>
<asrwt>0</asrwt>
<pdfrwt beam="2">  1        1 0.15602152E-01 0.90862162E+02</pdfrwt>
<pdfrwt beam="1">  1       -1 0.31310854E-02 0.90862162E+02</pdfrwt>
<totfact> 0.10568697E+05</totfact>
</mgrwt>
</event>
<event>
 7    1  0.3607059E-009  0.9151616E+02  0.7818608E-02  0.1299221E+00
          1   -1    0    0  501    0  0.00000000000E+00  0.00000000000E+00  0.83694536208E+03  0.83694536210E+03  0.50400000000E-02 0. -1.
         -1   -1    0    0    0  501 -0.00000000000E+00 -0.00000000000E+00 -0.25017159930E+01  0.25017210699E+01  0.50400000000E-02 0.  1.
         23    2    1    2    0    0  0.00000000000E+00  0.00000000000E+00  0.83444364609E+03  0.83944708317E+03  0.91516156713E+02 0.  0.
    9000005    2    3    3    0    0  0.87345226418E+01  0.24069675936E+02  0.76237938878E+03  0.76296899240E+03  0.15611205788E+02 0.  0.
         22    1    3    3    0    0 -0.87345226418E+01 -0.24069675936E+02  0.72064257311E+02  0.76478090766E+02  0.00000000000E+00 0.  1.
         22    1    4    4    0    0  0.11045352089E+02  0.24881453008E+02  0.66158029011E+03  0.66214014134E+03  0.00000000000E+00 0.  1.
         22    1    4    4    0    0 -0.23108294474E+01 -0.81177707167E+00  0.10079909867E+03  0.10082885107E+03  0.00000000000E+00 0.  1.
<mgrwt>
<rscale>  0 0.91516157E+02</rscale>
<asrwt>0</asrwt>
<pdfrwt beam="1">  1        1 0.12876079E+00 0.91516157E+02</pdfrwt>
<pdfrwt beam="2">  1       -1 0.38487987E-03 0.91516157E+02</pdfrwt>
<totfact> 0.13927234E+05</totfact>
</mgrwt>
</event>
<event>
 7    1  0.3607059E-009  0.8982958E+02  0.7818608E-02  0.1303265E+00
         -1   -1    0    0    0  501 -0.00000000000E+00  0.00000000000E+00  0.13462695955E+03  0.13462695964E+03  0.50400000000E-02 0.  1.
          1   -1    0    0  501    0  0.00000000000E+00 -0.00000000000E+00 -0.14984654248E+02  0.14984655095E+02  0.50400000000E-02 0. -1.
         23    2    1    2    0    0  0.00000000000E+00  0.00000000000E+00  0.11964230530E+03  0.14961161474E+03  0.89829583361E+02 0.  0.
    9000005    2    3    3    0    0 -0.65362910813E+01  0.41772812656E+02  0.36524018088E+02  0.56357442459E+02  0.73801385424E+01 0.  0.
         22    1    3    3    0    0  0.65362910813E+01 -0.41772812656E+02  0.83118287212E+02  0.93254172278E+02  0.00000000000E+00 0.  1.
         22    1    4    4    0    0 -0.72930254389E+01  0.41056092091E+02  0.34663996766E+02  0.54225303960E+02  0.00000000000E+00 0. -1.
         22    1    4    4    0    0  0.75673435763E+00  0.71672056522E+00  0.18600213226E+01  0.21321384986E+01  0.00000000000E+00 0. -1.
<mgrwt>
<rscale>  0 0.89829583E+02</rscale>
<asrwt>0</asrwt>
<pdfrwt beam="2">  1        1 0.23053316E-02 0.89829583E+02</pdfrwt>
<pdfrwt beam="1">  1       -1 0.20711839E-01 0.89829583E+02</pdfrwt>
<totfact> 0.79652078E+04</totfact>
</mgrwt>
</event>
<event>
 7    1  0.3607059E-009  0.9083901E+02  0.7818608E-02  0.1300833E+00
          1   -1    0    0  501    0  0.00000000000E+00  0.00000000000E+00  0.34715991991E+03  0.34715991995E+03  0.50400000000E-02 0. -1.
         -1   -1    0    0    0  501 -0.00000000000E+00 -0.00000000000E+00 -0.59423076758E+01  0.59423098131E+01  0.50400000000E-02 0.  1.
         23    2    1    2    0    0  0.17763568394E-14  0.00000000000E+00  0.34121761223E+03  0.35310222976E+03  0.90839010136E+02 0.  0.
    9000005    2    3    3    0    0  0.15751052773E+02 -0.12140924584E+01  0.33596099672E+03  0.33645285468E+03  0.90090188253E+01 0.  0.
         22    1    3    3    0    0 -0.15751052773E+02  0.12140924584E+01  0.52566155147E+01  0.16649375082E+02  0.00000000000E+00 0.  1.
         22    1    4    4    0    0  0.25494720326E+01 -0.35884234947E+01  0.11579503022E+03  0.11587866764E+03  0.00000000000E+00 0.  1.
         22    1    4    4    0    0  0.13201580740E+02  0.23743310362E+01  0.22016596650E+03  0.22057418704E+03  0.00000000000E+00 0.  1.
<mgrwt>
<rscale>  0 0.90839010E+02</rscale>
<asrwt>0</asrwt>
<pdfrwt beam="1">  1        1 0.53409231E-01 0.90839010E+02</pdfrwt>
<pdfrwt beam="2">  1       -1 0.91420113E-03 0.90839010E+02</pdfrwt>
<totfact> 0.13294604E+05</totfact>
</mgrwt>
</event>
<event>
 7    1  0.3607059E-009  0.9310541E+02  0.7818608E-02  0.1295501E+00
         -1   -1    0    0    0  501 -0.00000000000E+00  0.00000000000E+00  0.10214941650E+03  0.10214941663E+03  0.50400000000E-02 0.  1.
          1   -1    0    0  501    0  0.00000000000E+00 -0.00000000000E+00 -0.21215532792E+02  0.21215533391E+02  0.50400000000E-02 0. -1.
         23    2    1    2    0    0  0.00000000000E+00  0.00000000000E+00  0.80933883710E+02  0.12336495002E+03  0.93105409941E+02 0.  0.
    9000005    2    3    3    0    0  0.23714929762E+02  0.37303735444E+02  0.26285580217E+02  0.53076945021E+02  0.13124930234E+02 0.  0.
         22    1    3    3    0    0 -0.23714929762E+02 -0.37303735444E+02  0.54648303493E+02  0.70288004996E+02  0.00000000000E+00 0. -1.
         22    1    4    4    0    0  0.64592877721E+01  0.19116363722E+01  0.37777851289E+01  0.77232384802E+01  0.00000000000E+00 0.  1.
         22    1    4    4    0    0  0.17255641990E+02  0.35392099072E+02  0.22507795088E+02  0.45353706540E+02  0.00000000000E+00 0.  1.
<mgrwt>
<rscale>  0 0.93105410E+02</rscale>
<asrwt>0</asrwt>
<pdfrwt beam="2">  1        1 0.32639282E-02 0.93105410E+02</pdfrwt>
<pdfrwt beam="1">  1       -1 0.15715295E-01 0.93105410E+02</pdfrwt>
<totfact> 0.76787297E+04</totfact>
</mgrwt>
</event>
<event>
 7    1  0.3607059E-009  0.8842200E+02  0.7818608E-02  0.1306719E+00
         -1   -1    0    0    0  501 -0.00000000000E+00  0.00000000000E+00  0.32059012530E+01  0.32059052147E+01  0.50400000000E-02 0.  1.
          1   -1    0    0  501    0  0.00000000000E+00 -0.00000000000E+00 -0.60969172633E+03  0.60969172635E+03  0.50400000000E-02 0. -1.
         23    2    1    2    0    0  0.00000000000E+00  0.00000000000E+00 -0.60648582507E+03  0.61289763156E+03  0.88422003819E+02 0.  0.
    9000005    2    3    3    0    0  0.35730715364E+02  0.20341442135E+02 -0.41525086849E+03  0.41729275712E+03  0.30827048331E+01 0.  0.
         22    1    3    3    0    0 -0.35730715364E+02 -0.20341442135E+02 -0.19123495658E+03  0.19560487444E+03  0.00000000000E+00 0.  1.
         22    1    4    4    0    0  0.15284645245E+02  0.80187140257E+01 -0.18858650043E+03  0.18937472983E+03  0.00000000000E+00 0.  1.
         22    1    4    4    0    0  0.20446070119E+02  0.12322728109E+02 -0.22666436806E+03  0.22791802728E+03  0.00000000000E+00 0.  1.
<mgrwt>
<rscale>  0 0.88422004E+02</rscale>
<asrwt>0</asrwt>
<pdfrwt beam="2">  1        1 0.93798635E-01 0.88422004E+02</pdfrwt>
<pdfrwt beam="1">  1       -1 0.49321637E-03 0.88422004E+02</pdfrwt>
<totfact> 0.15368128E+05</totfact>
</mgrwt>
</event>
<event>
 7    1  0.3607059E-009  0.9328500E+02  0.7818608E-02  0.1295086E+00
         -1   -1    0    0    0  501 -0.00000000000E+00  0.00000000000E+00  0.72446142033E+02  0.72446142208E+02  0.50400000000E-02 0.  1.
          1   -1    0    0  501    0  0.00000000000E+00 -0.00000000000E+00 -0.30029520635E+02  0.30029521058E+02  0.50400000000E-02 0. -1.
         23    2    1    2    0    0 -0.35527136788E-14  0.00000000000E+00  0.42416621398E+02  0.10247566327E+03  0.93285003033E+02 0.  0.
    9000005    2    3    3    0    0 -0.23375315335E+02  0.39298265358E+02  0.14264199937E+02  0.48779128356E+02  0.92291351790E+01 0.  0.
         22    1    3    3    0    0  0.23375315335E+02 -0.39298265358E+02  0.28152421462E+02  0.53696534910E+02  0.00000000000E+00 0. -1.
         22    1    4    4    0    0 -0.63691618821E+01  0.42844998562E+01  0.15587769692E+01  0.78328122496E+01  0.00000000000E+00 0.  1.
         22    1    4    4    0    0 -0.17006153453E+02  0.35013765502E+02  0.12705422967E+02  0.40946316106E+02  0.00000000000E+00 0.  1.
<mgrwt>
<rscale>  0 0.93285003E+02</rscale>
<asrwt>0</asrwt>
<pdfrwt beam="2">  1        1 0.46199263E-02 0.93285003E+02</pdfrwt>
<pdfrwt beam="1">  1       -1 0.11145560E-01 0.93285003E+02</pdfrwt>
<totfact> 0.81174886E+04</totfact>
</mgrwt>
</event>
<event>
 7    1  0.3607059E-009  0.9076327E+02  0.7818608E-02  0.1301014E+00
          1   -1    0    0  501    0  0.00000000000E+00  0.00000000000E+00  0.48965991555E+03  0.48965991558E+03  0.50400000000E-02 0. -1.
         -1   -1    0    0    0  501 -0.00000000000E+00 -0.00000000000E+00 -0.42059639236E+01  0.42059669433E+01  0.50400000000E-02 0.  1.
         23    2    1    2    0    0  0.00000000000E+00  0.00000000000E+00  0.48545395163E+03  0.49386588252E+03  0.90763267718E+02 0.  0.
    9000005    2    3    3    0    0  0.20999063786E+02  0.31201319032E+02  0.38085958274E+03  0.38271524153E+03  0.15656776541E+01 0.  0.
         22    1    3    3    0    0 -0.20999063786E+02 -0.31201319032E+02  0.10459436889E+03  0.11115064099E+03  0.00000000000E+00 0.  1.
         22    1    4    4    0    0  0.26886624234E+01  0.36055770933E+01  0.50416287738E+02  0.50616510755E+02  0.00000000000E+00 0. -1.
         22    1    4    4    0    0  0.18310401363E+02  0.27595741939E+02  0.33044329500E+03  0.33209873078E+03  0.00000000000E+00 0. -1.
<mgrwt>
<rscale>  0 0.90763268E+02</rscale>
<asrwt>0</asrwt>
<pdfrwt beam="1">  1        1 0.75332300E-01 0.90763268E+02</pdfrwt>
<pdfrwt beam="2">  1       -1 0.64707157E-03 0.90763268E+02</pdfrwt>
<totfact> 0.14059751E+05</totfact>
</mgrwt>
</event>
<event>
 7    1  0.3607059E-009  0.1000316E+03  0.7818608E-02  0.1280230E+00
          1   -1    0    0  501    0  0.00000000000E+00  0.00000000000E+00  0.10045516331E+02  0.10045517595E+02  0.50400000000E-02 0. -1.
         -1   -1    0    0    0  501 -0.00000000000E+00 -0.00000000000E+00 -0.24902451983E+03  0.24902451989E+03  0.50400000000E-02 0.  1.
         23    2    1    2    0    0  0.00000000000E+00 -0.71054273576E-14 -0.23897900350E+03  0.25907003748E+03  0.10003159603E+03 0.  0.
    9000005    2    3    3    0    0  0.26779883357E+02 -0.35325152675E+02 -0.65877504303E+02  0.80382719549E+02  0.12510294349E+02 0.  0.
         22    1    3    3    0    0 -0.26779883357E+02  0.35325152675E+02 -0.17310149920E+03  0.17868731793E+03  0.00000000000E+00 0.  1.
         22    1    4    4    0    0  0.84783285228E+01 -0.19981898980E+02 -0.37129314495E+02  0.43008654201E+02  0.00000000000E+00 0. -1.
         22    1    4    4    0    0  0.18301554835E+02 -0.15343253695E+02 -0.28748189808E+02  0.37374065347E+02  0.00000000000E+00 0. -1.
<mgrwt>
<rscale>  0 0.10003160E+03</rscale>
<asrwt>0</asrwt>
<pdfrwt beam="1">  1        1 0.15454643E-02 0.10003160E+03</pdfrwt>
<pdfrwt beam="2">  1       -1 0.38311460E-01 0.10003160E+03</pdfrwt>
<totfact> 0.50868565E+04</totfact>
</mgrwt>
</event>
<event>
 7    1  0.4569141E-009  0.9105560E+02  0.7818608E-02  0.1300315E+00
          1   -1    0    0  501    0  0.00000000000E+00  0.00000000000E+00  0.30310577434E+02  0.30310577853E+02  0.50400000000E-02 0. -1.
         -1   -1    0    0    0  501 -0.00000000000E+00 -0.00000000000E+00 -0.68384729739E+02  0.68384729925E+02  0.50400000000E-02 0.  1.
         23    2    1    2    0    0  0.17763568394E-14  0.35527136788E-14 -0.38074152306E+02  0.98695307778E+02  0.91055602264E+02 0.  0.
    9000005    2    3    3    0    0  0.15751661171E+02  0.23534375070E+02  0.17197340844E+02  0.36591204897E+02  0.15530167550E+02 0.  0.
         22    1    3    3    0    0 -0.15751661171E+02 -0.23534375070E+02 -0.55271493150E+02  0.62104102881E+02  0.00000000000E+00 0.  1.
         22    1    4    4    0    0  0.56397080946E+01  0.20746762158E+02  0.13876574251E+02  0.25588938243E+02  0.00000000000E+00 0.  1.
         22    1    4    4    0    0  0.10111953077E+02  0.27876129115E+01  0.33207665934E+01  0.11002266655E+02  0.00000000000E+00 0.  1.
<mgrwt>
<rscale>  0 0.91055602E+02</rscale>
<asrwt>0</asrwt>
<pdfrwt beam="1">  1        1 0.46631658E-02 0.91055602E+02</pdfrwt>
<pdfrwt beam="2">  1       -1 0.10520728E-01 0.91055602E+02</pdfrwt>
<totfact> 0.87160876E+04</totfact>
</mgrwt>
</event>
<event>
 7    1  0.3607059E-009  0.9325789E+02  0.7818608E-02  0.1295149E+00
          1   -1    0    0  501    0  0.00000000000E+00  0.00000000000E+00  0.21622419416E+02  0.21622420004E+02  0.50400000000E-02 0.  1.
         -1   -1    0    0    0  501 -0.00000000000E+00 -0.00000000000E+00 -0.10055574255E+03  0.10055574268E+03  0.50400000000E-02 0. -1.
         23    2    1    2    0    0  0.00000000000E+00  0.35527136788E-14 -0.78933323137E+02  0.12217816268E+03  0.93257889399E+02 0.  0.
    9000005    2    3    3    0    0  0.43763147032E+01  0.21131682185E+02 -0.93176102007E+02  0.96321695943E+02  0.11418537636E+02 0.  0.
         22    1    3    3    0    0 -0.43763147032E+01 -0.21131682185E+02  0.14242778870E+02  0.25856466740E+02  0.00000000000E+00 0.  1.
         22    1    4    4    0    0  0.99090115275E+00 -0.92589633528E+00 -0.13855825309E+02  0.13922035200E+02  0.00000000000E+00 0.  1.
         22    1    4    4    0    0  0.33854135504E+01  0.22057578521E+02 -0.79320276698E+02  0.82399660743E+02  0.00000000000E+00 0.  1.
<mgrwt>
<rscale>  0 0.93257889E+02</rscale>
<asrwt>0</asrwt>
<pdfrwt beam="1">  1        1 0.33265262E-02 0.93257889E+02</pdfrwt>
<pdfrwt beam="2">  1       -1 0.15470114E-01 0.93257889E+02</pdfrwt>
<totfact> 0.76690791E+04</totfact>
</mgrwt>
</event>
<event>
 7    1  0.3607059E-009  0.6818564E+02  0.7818608E-02  0.1366374E+00
         -1   -1    0    0    0  501 -0.00000000000E+00  0.00000000000E+00  0.12259540519E+02  0.12259541555E+02  0.50400000000E-02 0.  1.
          1   -1    0    0  501    0  0.00000000000E+00 -0.00000000000E+00 -0.94809455940E+02  0.94809456074E+02  0.50400000000E-02 0. -1.
         23    2    1    2    0    0  0.00000000000E+00  0.00000000000E+00 -0.82549915421E+02  0.10706899763E+03  0.68185641576E+02 0.  0.
    9000005    2    3    3    0    0 -0.28457688853E+02  0.15403073305E+02 -0.51931422072E+02  0.62520295548E+02  0.12838225534E+02 0.  0.
         22    1    3    3    0    0  0.28457688853E+02 -0.15403073305E+02 -0.30618493349E+02  0.44548702081E+02  0.00000000000E+00 0.  1.
         22    1    4    4    0    0 -0.24059077960E+02  0.69168527738E+01 -0.34288386039E+02  0.42454393197E+02  0.00000000000E+00 0. -1.
         22    1    4    4    0    0 -0.43986108938E+01  0.84862205311E+01 -0.17643036033E+02  0.20065902351E+02  0.00000000000E+00 0. -1.
<mgrwt>
<rscale>  0 0.68185642E+02</rscale>
<asrwt>0</asrwt>
<pdfrwt beam="2">  1        1 0.14586070E-01 0.68185642E+02</pdfrwt>
<pdfrwt beam="1">  1       -1 0.18860833E-02 0.68185642E+02</pdfrwt>
<totfact> 0.22542359E+05</totfact>
</mgrwt>
</event>
<event>
 7    1  0.3607059E-009  0.8999195E+02  0.7818608E-02  0.1302871E+00
          1   -1    0    0  501    0  0.00000000000E+00  0.00000000000E+00  0.88276046807E+02  0.88276046951E+02  0.50400000000E-02 0. -1.
         -1   -1    0    0    0  501 -0.00000000000E+00 -0.00000000000E+00 -0.22935302768E+02  0.22935303322E+02  0.50400000000E-02 0.  1.
         23    2    1    2    0    0  0.00000000000E+00  0.00000000000E+00  0.65340744039E+02  0.11121135027E+03  0.89991952962E+02 0.  0.
    9000005    2    3    3    0    0  0.70394625464E+01 -0.20819756715E+02  0.80510965528E+02  0.84506445805E+02  0.13278083817E+02 0.  0.
         22    1    3    3    0    0 -0.70394625464E+01  0.20819756715E+02 -0.15170221489E+02  0.26704904467E+02  0.00000000000E+00 0.  1.
         22    1    4    4    0    0  0.10371722526E+02 -0.18388289844E+02  0.72273903468E+02  0.75294215940E+02  0.00000000000E+00 0.  1.
         22    1    4    4    0    0 -0.33322599795E+01 -0.24314668709E+01  0.82370620599E+01  0.92122298655E+01  0.00000000000E+00 0.  1.
<mgrwt>
<rscale>  0 0.89991953E+02</rscale>
<asrwt>0</asrwt>
<pdfrwt beam="1">  1        1 0.13580930E-01 0.89991953E+02</pdfrwt>
<pdfrwt beam="2">  1       -1 0.35285082E-02 0.89991953E+02</pdfrwt>
<totfact> 0.10606269E+05</totfact>
</mgrwt>
</event>
<event>
 7    1  0.3607059E-009  0.9518917E+02  0.7818608E-02  0.1290751E+00
         -1   -1    0    0    0  501 -0.00000000000E+00  0.00000000000E+00  0.12149173543E+03  0.12149173553E+03  0.50400000000E-02 0.  1.
          1   -1    0    0  501    0  0.00000000000E+00 -0.00000000000E+00 -0.18645254419E+02  0.18645255100E+02  0.50400000000E-02 0. -1.
         23    2    1    2    0    0  0.71054273576E-14  0.17763568394E-14  0.10284648101E+03  0.14013699063E+03  0.95189166861E+02 0.  0.
    9000005    2    3    3    0    0  0.40687634329E+02  0.12040088687E+02  0.22559104423E+02  0.49326692969E+02  0.11124842651E+02 0.  0.
         22    1    3    3    0    0 -0.40687634329E+02 -0.12040088687E+02  0.80287376584E+02  0.90810297662E+02  0.00000000000E+00 0.  1.
         22    1    4    4    0    0  0.40923913143E+02  0.10927234478E+02  0.20695142393E+02  0.47142974439E+02  0.00000000000E+00 0. -1.
         22    1    4    4    0    0 -0.23627881426E+00  0.11128542092E+01  0.18639620300E+01  0.21837185300E+01  0.00000000000E+00 0. -1.
<mgrwt>
<rscale>  0 0.95189167E+02</rscale>
<asrwt>0</asrwt>
<pdfrwt beam="2">  1        1 0.28685007E-02 0.95189167E+02</pdfrwt>
<pdfrwt beam="1">  1       -1 0.18691036E-01 0.95189167E+02</pdfrwt>
<totfact> 0.70063903E+04</totfact>
</mgrwt>
</event>
<event>
 7    1  0.3607059E-009  0.9001754E+02  0.7818608E-02  0.1302809E+00
         -1   -1    0    0    0  501 -0.00000000000E+00  0.00000000000E+00  0.30916140545E+01  0.30916181626E+01  0.50400000000E-02 0. -1.
          1   -1    0    0  501    0  0.00000000000E+00 -0.00000000000E+00 -0.65525250376E+03  0.65525250378E+03  0.50400000000E-02 0.  1.
         23    2    1    2    0    0  0.00000000000E+00  0.00000000000E+00 -0.65216088971E+03  0.65834412194E+03  0.90017536259E+02 0.  0.
    9000005    2    3    3    0    0  0.11059245152E+02  0.43921161021E+01 -0.64319219466E+03  0.64344328042E+03  0.13470644504E+02 0.  0.
         22    1    3    3    0    0 -0.11059245152E+02 -0.43921161021E+01 -0.89686950483E+01  0.14900841521E+02  0.00000000000E+00 0. -1.
         22    1    4    4    0    0  0.94753783150E+01  0.72682105538E+01 -0.60266339956E+03  0.60278170414E+03  0.00000000000E+00 0.  1.
         22    1    4    4    0    0  0.15838668365E+01 -0.28760944517E+01 -0.40528795100E+02  0.40661576281E+02  0.00000000000E+00 0.  1.
<mgrwt>
<rscale>  0 0.90017536E+02</rscale>
<asrwt>0</asrwt>
<pdfrwt beam="2">  1        1 0.10080797E+00 0.90017536E+02</pdfrwt>
<pdfrwt beam="1">  1       -1 0.47563377E-03 0.90017536E+02</pdfrwt>
<totfact> 0.14699946E+05</totfact>
</mgrwt>
</event>
<event>
 7    1  0.3607059E-009  0.8882845E+02  0.7818608E-02  0.1305714E+00
          1   -1    0    0  501    0  0.00000000000E+00  0.00000000000E+00  0.22177643428E+03  0.22177643434E+03  0.50400000000E-02 0. -1.
         -1   -1    0    0    0  501 -0.00000000000E+00 -0.00000000000E+00 -0.88946470259E+01  0.88946484538E+01  0.50400000000E-02 0.  1.
         23    2    1    2    0    0 -0.35527136788E-14 -0.35527136788E-14  0.21288178726E+03  0.23067108280E+03  0.88828447536E+02 0.  0.
    9000005    2    3    3    0    0 -0.28410114480E+02 -0.30839343153E+02  0.84189004935E+02  0.95319570381E+02  0.15486518481E+02 0.  0.
         22    1    3    3    0    0  0.28410114480E+02  0.30839343153E+02  0.12869278232E+03  0.13535151241E+03  0.00000000000E+00 0.  1.
         22    1    4    4    0    0 -0.16698259892E+02 -0.24083363288E+02  0.69107950689E+02  0.75064965990E+02  0.00000000000E+00 0. -1.
         22    1    4    4    0    0 -0.11711854588E+02 -0.67559798648E+01  0.15081054246E+02  0.20254604391E+02  0.00000000000E+00 0. -1.
<mgrwt>
<rscale>  0 0.88828448E+02</rscale>
<asrwt>0</asrwt>
<pdfrwt beam="1">  1        1 0.34119453E-01 0.88828448E+02</pdfrwt>
<pdfrwt beam="2">  1       -1 0.13684073E-02 0.88828448E+02</pdfrwt>
<totfact> 0.12953505E+05</totfact>
</mgrwt>
</event>
<event>
 7    1  0.3607059E-009  0.8865961E+02  0.7818608E-02  0.1306130E+00
         -1   -1    0    0    0  501 -0.00000000000E+00  0.00000000000E+00  0.39138471019E+02  0.39138471344E+02  0.50400000000E-02 0.  1.
          1   -1    0    0  501    0  0.00000000000E+00 -0.00000000000E+00 -0.50209714374E+02  0.50209714627E+02  0.50400000000E-02 0. -1.
         23    2    1    2    0    0 -0.35527136788E-14 -0.35527136788E-14 -0.11071243355E+02  0.89348185971E+02  0.88659606963E+02 0.  0.
    9000005    2    3    3    0    0 -0.19301672301E+02 -0.29379166479E+02 -0.30579470587E+02  0.49145438474E+02  0.15635860220E+02 0.  0.
         22    1    3    3    0    0  0.19301672301E+02  0.29379166479E+02  0.19508227232E+02  0.40202747497E+02  0.00000000000E+00 0.  1.
         22    1    4    4    0    0 -0.17259765330E+02 -0.20755060324E+02 -0.14149374457E+02  0.30477480634E+02  0.00000000000E+00 0.  1.
         22    1    4    4    0    0 -0.20419069709E+01 -0.86241061540E+01 -0.16430096130E+02  0.18667957839E+02  0.00000000000E+00 0.  1.
<mgrwt>
<rscale>  0 0.88659607E+02</rscale>
<asrwt>0</asrwt>
<pdfrwt beam="2">  1        1 0.77245716E-02 0.88659607E+02</pdfrwt>
<pdfrwt beam="1">  1       -1 0.60213032E-02 0.88659607E+02</pdfrwt>
<totfact> 0.10143381E+05</totfact>
</mgrwt>
</event>
<event>
 6    1  0.5630757E-009  0.4460589E+03  0.7818608E-02  0.1028904E+00
         -1   -1    0    0    0  501 -0.00000000000E+00  0.00000000000E+00  0.80963292841E+02  0.80963292998E+02  0.50400000000E-02 0.  1.
          1   -1    0    0  501    0  0.00000000000E+00 -0.00000000000E+00 -0.61437880243E+03  0.61437880245E+03  0.50400000000E-02 0. -1.
    9000005    2    1    2    0    0 -0.13444834777E+03 -0.17537558472E+03 -0.22094908921E+03  0.31263043140E+03  0.92915382253E+01 0.  0.
         22    1    1    2    0    0  0.13444834777E+03  0.17537558472E+03 -0.31246642038E+03  0.38271166405E+03  0.00000000000E+00 0. -1.
         22    1    3    3    0    0 -0.47367849830E+02 -0.69097900118E+02 -0.82665193137E+02  0.11769353064E+03  0.00000000000E+00 0.  1.
         22    1    3    3    0    0 -0.87080497937E+02 -0.10627768460E+03 -0.13828389607E+03  0.19493690076E+03  0.00000000000E+00 0.  1.
<mgrwt>
<rscale>  0 0.44605888E+03</rscale>
<asrwt>0</asrwt>
<pdfrwt beam="2">  1        1 0.94519812E-01 0.44605888E+03</pdfrwt>
<pdfrwt beam="1">  1       -1 0.12455892E-01 0.44605888E+03</pdfrwt>
<totfact> 0.14730335E+03</totfact>
</mgrwt>
</event>
<event>
 7    1  0.3607059E-009  0.1000285E+03  0.7818608E-02  0.1280236E+00
          1   -1    0    0  501    0  0.00000000000E+00  0.00000000000E+00  0.53850701272E+02  0.53850701508E+02  0.50400000000E-02 0. -1.
         -1   -1    0    0    0  501 -0.00000000000E+00 -0.00000000000E+00 -0.46451122756E+02  0.46451123029E+02  0.50400000000E-02 0.  1.
         23    2    1    2    0    0  0.00000000000E+00  0.00000000000E+00  0.73995785166E+01  0.10030182454E+03  0.10002850715E+03 0.  0.
    9000005    2    3    3    0    0  0.33131811718E+02 -0.16873070429E+02 -0.28469560252E+02  0.48639337476E+02  0.13147312871E+02 0.  0.
         22    1    3    3    0    0 -0.33131811718E+02  0.16873070429E+02  0.35869138769E+02  0.51662487062E+02  0.00000000000E+00 0. -1.
         22    1    4    4    0    0  0.27769334787E+02 -0.15008713949E+02 -0.17025779025E+02  0.35864670642E+02  0.00000000000E+00 0.  1.
         22    1    4    4    0    0  0.53624769310E+01 -0.18643564802E+01 -0.11443781227E+02  0.12774666833E+02  0.00000000000E+00 0.  1.
<mgrwt>
<rscale>  0 0.10002851E+03</rscale>
<asrwt>0</asrwt>
<pdfrwt beam="1">  1        1 0.82847232E-02 0.10002851E+03</pdfrwt>
<pdfrwt beam="2">  1       -1 0.71463267E-02 0.10002851E+03</pdfrwt>
<totfact> 0.73089334E+04</totfact>
</mgrwt>
</event>
<event>
 7    1  0.3607059E-009  0.9005409E+02  0.7818608E-02  0.1302721E+00
          1   -1    0    0  501    0  0.00000000000E+00  0.00000000000E+00  0.18919098821E+03  0.18919098828E+03  0.50400000000E-02 0. -1.
         -1   -1    0    0    0  501 -0.00000000000E+00 -0.00000000000E+00 -0.10716339044E+02  0.10716340229E+02  0.50400000000E-02 0.  1.
         23    2    1    2    0    0  0.00000000000E+00  0.17763568394E-14  0.17847464917E+03  0.19990732851E+03  0.90054092609E+02 0.  0.
    9000005    2    3    3    0    0 -0.42149597019E+02 -0.10791393047E+02  0.83558489412E+02  0.95494110593E+02  0.15622461784E+02 0.  0.
         22    1    3    3    0    0  0.42149597019E+02  0.10791393047E+02  0.94916159754E+02  0.10441321791E+03  0.00000000000E+00 0. -1.
         22    1    4    4    0    0 -0.40256547690E+02 -0.13531111613E+02  0.73370187784E+02  0.84775380087E+02  0.00000000000E+00 0.  1.
         22    1    4    4    0    0 -0.18930493288E+01  0.27397185658E+01  0.10188301628E+02  0.10718730505E+02  0.00000000000E+00 0.  1.
<mgrwt>
<rscale>  0 0.90054093E+02</rscale>
<asrwt>0</asrwt>
<pdfrwt beam="1">  1        1 0.29106303E-01 0.90054093E+02</pdfrwt>
<pdfrwt beam="2">  1       -1 0.16486678E-02 0.90054093E+02</pdfrwt>
<totfact> 0.12109774E+05</totfact>
</mgrwt>
</event>
<event>
 7    1  0.3607059E-009  0.8474874E+02  0.7818608E-02  0.1316091E+00
          1   -1    0    0  501    0  0.00000000000E+00  0.00000000000E+00  0.10114389947E+03  0.10114389960E+03  0.50400000000E-02 0. -1.
         -1   -1    0    0    0  501 -0.00000000000E+00 -0.00000000000E+00 -0.17752797913E+02  0.17752798629E+02  0.50400000000E-02 0.  1.
         23    2    1    2    0    0  0.00000000000E+00 -0.88817841970E-15  0.83391101558E+02  0.11889669823E+03  0.84748740579E+02 0.  0.
    9000005    2    3    3    0    0  0.38280752611E+02  0.50665294416E+01  0.63086591487E+02  0.75269196918E+02  0.13944469810E+02 0.  0.
         22    1    3    3    0    0 -0.38280752611E+02 -0.50665294416E+01  0.20304510071E+02  0.43627501307E+02  0.00000000000E+00 0. -1.
         22    1    4    4    0    0  0.13580632374E+02 -0.44849339742E+01  0.26366541766E+02  0.29995711913E+02  0.00000000000E+00 0. -1.
         22    1    4    4    0    0  0.24700120237E+02  0.95514634158E+01  0.36720049720E+02  0.45273485006E+02  0.00000000000E+00 0. -1.
<mgrwt>
<rscale>  0 0.84748741E+02</rscale>
<asrwt>0</asrwt>
<pdfrwt beam="1">  1        1 0.15560600E-01 0.84748741E+02</pdfrwt>
<pdfrwt beam="2">  1       -1 0.27311998E-02 0.84748741E+02</pdfrwt>
<totfact> 0.12758269E+05</totfact>
</mgrwt>
</event>
<event>
 7    1  0.3607059E-009  0.9166142E+02  0.7818608E-02  0.1298877E+00
          1   -1    0    0  501    0  0.00000000000E+00  0.00000000000E+00  0.14167406577E+03  0.14167406586E+03  0.50400000000E-02 0. -1.
         -1   -1    0    0    0  501 -0.00000000000E+00 -0.00000000000E+00 -0.14825960006E+02  0.14825960862E+02  0.50400000000E-02 0.  1.
         23    2    1    2    0    0  0.00000000000E+00  0.00000000000E+00  0.12684810577E+03  0.15650002672E+03  0.91661422791E+02 0.  0.
    9000005    2    3    3    0    0  0.39593257813E+02 -0.13860614703E+02  0.38859061247E+02  0.59022774713E+02  0.14625956024E+02 0.  0.
         22    1    3    3    0    0 -0.39593257813E+02  0.13860614703E+02  0.87989044519E+02  0.97477252010E+02  0.00000000000E+00 0. -1.
         22    1    4    4    0    0  0.14951916090E+01 -0.50026842517E+01  0.58525508648E+01  0.78431370825E+01  0.00000000000E+00 0. -1.
         22    1    4    4    0    0  0.38098066204E+02 -0.88579304511E+01  0.33006510382E+02  0.51179637630E+02  0.00000000000E+00 0. -1.
<mgrwt>
<rscale>  0 0.91661423E+02</rscale>
<asrwt>0</asrwt>
<pdfrwt beam="1">  1        1 0.21796010E-01 0.91661423E+02</pdfrwt>
<pdfrwt beam="2">  1       -1 0.22809170E-02 0.91661423E+02</pdfrwt>
<totfact> 0.10938942E+05</totfact>
</mgrwt>
</event>
<event>
 7    1  0.3607059E-009  0.9096559E+02  0.7818608E-02  0.1300530E+00
         -1   -1    0    0    0  501 -0.00000000000E+00  0.00000000000E+00  0.32268581622E+02  0.32268582016E+02  0.50400000000E-02 0.  1.
          1   -1    0    0  501    0  0.00000000000E+00 -0.00000000000E+00 -0.64108324306E+02  0.64108324504E+02  0.50400000000E-02 0. -1.
         23    2    1    2    0    0  0.00000000000E+00  0.00000000000E+00 -0.31839742684E+02  0.96376906520E+02  0.90965591826E+02 0.  0.
    9000005    2    3    3    0    0 -0.85475226193E+01 -0.33674004005E+02  0.13640351781E+02  0.39145466898E+02  0.11802952737E+02 0.  0.
         22    1    3    3    0    0  0.85475226193E+01  0.33674004005E+02 -0.45480094465E+02  0.57231439622E+02  0.00000000000E+00 0. -1.
         22    1    4    4    0    0 -0.11484933941E+02 -0.28381574009E+02  0.11885084025E+02  0.32843152607E+02  0.00000000000E+00 0.  1.
         22    1    4    4    0    0  0.29374113217E+01 -0.52924299958E+01  0.17552677562E+01  0.63023142916E+01  0.00000000000E+00 0.  1.
<mgrwt>
<rscale>  0 0.90965592E+02</rscale>
<asrwt>0</asrwt>
<pdfrwt beam="2">  1        1 0.98628191E-02 0.90965592E+02</pdfrwt>
<pdfrwt beam="1">  1       -1 0.49643973E-02 0.90965592E+02</pdfrwt>
<totfact> 0.97972404E+04</totfact>
</mgrwt>
</event>
<event>
 7    1  0.3607059E-009  0.9134505E+02  0.7818608E-02  0.1299627E+00
         -1   -1    0    0    0  501 -0.00000000000E+00  0.00000000000E+00  0.26274182666E+02  0.26274183149E+02  0.50400000000E-02 0.  1.
          1   -1    0    0  501    0  0.00000000000E+00 -0.00000000000E+00 -0.79392746168E+02  0.79392746328E+02  0.50400000000E-02 0. -1.
         23    2    1    2    0    0  0.00000000000E+00  0.00000000000E+00 -0.53118563502E+02  0.10566692948E+03  0.91345050203E+02 0.  0.
    9000005    2    3    3    0    0 -0.39936776169E+02  0.19841238519E+02 -0.23738205294E+02  0.52264436229E+02  0.13395822744E+02 0.  0.
         22    1    3    3    0    0  0.39936776169E+02 -0.19841238519E+02 -0.29380358207E+02  0.53402493248E+02  0.00000000000E+00 0.  1.
         22    1    4    4    0    0 -0.40304122852E+02  0.17079515876E+02 -0.22179706913E+02  0.49072105928E+02  0.00000000000E+00 0. -1.
         22    1    4    4    0    0  0.36734668380E+00  0.27617226434E+01 -0.15584983817E+01  0.31923303011E+01  0.00000000000E+00 0. -1.
<mgrwt>
<rscale>  0 0.91345050E+02</rscale>
<asrwt>0</asrwt>
<pdfrwt beam="2">  1        1 0.12214269E-01 0.91345050E+02</pdfrwt>
<pdfrwt beam="1">  1       -1 0.40421821E-02 0.91345050E+02</pdfrwt>
<totfact> 0.10011470E+05</totfact>
</mgrwt>
</event>
<event>
 7    1  0.3607059E-009  0.9083128E+02  0.7818608E-02  0.1300851E+00
         -1   -1    0    0    0  501 -0.00000000000E+00  0.00000000000E+00  0.19636330600E+03  0.19636330607E+03  0.50400000000E-02 0.  1.
          1   -1    0    0  501    0  0.00000000000E+00 -0.00000000000E+00 -0.10503898865E+02  0.10503900074E+02  0.50400000000E-02 0. -1.
         23    2    1    2    0    0 -0.35527136788E-14  0.71054273576E-14  0.18585940714E+03  0.20686720614E+03  0.90831281808E+02 0.  0.
    9000005    2    3    3    0    0 -0.21761489320E+02  0.27071143363E+02  0.30610925037E+02  0.47780750353E+02  0.11813642632E+02 0.  0.
         22    1    3    3    0    0  0.21761489320E+02 -0.27071143363E+02  0.15524848210E+03  0.15908645579E+03  0.00000000000E+00 0.  1.
         22    1    4    4    0    0 -0.17919961335E+02  0.26212716987E+02  0.30203729389E+02  0.43823473335E+02  0.00000000000E+00 0.  1.
         22    1    4    4    0    0 -0.38415279851E+01  0.85842637600E+00  0.40719564782E+00  0.39572770182E+01  0.00000000000E+00 0.  1.
<mgrwt>
<rscale>  0 0.90831282E+02</rscale>
<asrwt>0</asrwt>
<pdfrwt beam="2">  1        1 0.16159847E-02 0.90831282E+02</pdfrwt>
<pdfrwt beam="1">  1       -1 0.30209736E-01 0.90831282E+02</pdfrwt>
<totfact> 0.70481095E+04</totfact>
</mgrwt>
</event>
<event>
 7    1  0.3607059E-009  0.8173812E+02  0.7818608E-02  0.1324190E+00
         -1   -1    0    0    0  501 -0.00000000000E+00  0.00000000000E+00  0.53589610698E+01  0.53589634398E+01  0.50400000000E-02 0.  1.
          1   -1    0    0  501    0  0.00000000000E+00 -0.00000000000E+00 -0.31167977110E+03  0.31167977114E+03  0.50400000000E-02 0. -1.
         23    2    1    2    0    0 -0.35527136788E-14  0.00000000000E+00 -0.30632081003E+03  0.31703873458E+03  0.81738121870E+02 0.  0.
    9000005    2    3    3    0    0 -0.21984927808E+02 -0.21463877739E+02 -0.25574188339E+03  0.25785881469E+03  0.11967551710E+02 0.  0.
         22    1    3    3    0    0  0.21984927808E+02  0.21463877739E+02 -0.50578926632E+02  0.59179919885E+02  0.00000000000E+00 0.  1.
         22    1    4    4    0    0 -0.22016925907E+02 -0.18628551461E+02 -0.24676818007E+03  0.24844778657E+03  0.00000000000E+00 0. -1.
         22    1    4    4    0    0  0.31998099646E-01 -0.28353262780E+01 -0.89737033280E+01  0.94110281266E+01  0.00000000000E+00 0. -1.
<mgrwt>
<rscale>  0 0.81738122E+02</rscale>
<asrwt>0</asrwt>
<pdfrwt beam="2">  1        1 0.47950720E-01 0.81738122E+02</pdfrwt>
<pdfrwt beam="1">  1       -1 0.82445598E-03 0.81738122E+02</pdfrwt>
<totfact> 0.17234566E+05</totfact>
</mgrwt>
</event>
<event>
 7    1  0.3607059E-009  0.1041253E+03  0.7818608E-02  0.1271853E+00
          1   -1    0    0  501    0  0.00000000000E+00  0.00000000000E+00  0.18471583267E+03  0.18471583274E+03  0.50400000000E-02 0.  1.
         -1   -1    0    0    0  501 -0.00000000000E+00 -0.00000000000E+00 -0.14674002100E+02  0.14674002966E+02  0.50400000000E-02 0. -1.
         23    2    1    2    0    0  0.00000000000E+00  0.00000000000E+00  0.17004183057E+03  0.19938983570E+03  0.10412532083E+03 0.  0.
    9000005    2    3    3    0    0  0.29330890147E+02 -0.41468544578E+02  0.75660021287E+02  0.92208367019E+02  0.14071347519E+02 0.  0.
         22    1    3    3    0    0 -0.29330890147E+02  0.41468544578E+02  0.94381809283E+02  0.10718146869E+03  0.00000000000E+00 0. -1.
         22    1    4    4    0    0  0.54148966263E+01 -0.16124405822E+02  0.32993866637E+02  0.37120247901E+02  0.00000000000E+00 0.  1.
         22    1    4    4    0    0  0.23915993520E+02 -0.25344138756E+02  0.42666154650E+02  0.55088119118E+02  0.00000000000E+00 0.  1.
<mgrwt>
<rscale>  0 0.10412532E+03</rscale>
<asrwt>0</asrwt>
<pdfrwt beam="1">  1        1 0.28417821E-01 0.10412532E+03</pdfrwt>
<pdfrwt beam="2">  1       -1 0.22575388E-02 0.10412532E+03</pdfrwt>
<totfact> 0.81389110E+04</totfact>
</mgrwt>
</event>
<event>
 6    1  0.3607059E-009  0.1306277E+03  0.7818608E-02  0.1226527E+00
          1   -1    0    0  501    0  0.00000000000E+00  0.00000000000E+00  0.24805014514E+03  0.24805014520E+03  0.50400000000E-02 0. -1.
         -1   -1    0    0    0  501 -0.00000000000E+00 -0.00000000000E+00 -0.17197731772E+02  0.17197732510E+02  0.50400000000E-02 0.  1.
    9000005    2    1    2    0    0  0.24834984090E+01  0.42178967275E+02  0.21602862263E+03  0.22047089906E+03  0.12402358341E+02 0.  0.
         22    1    1    2    0    0 -0.24834984090E+01 -0.42178967275E+02  0.14823790744E+02  0.44776978647E+02  0.00000000000E+00 0. -1.
         22    1    3    3    0    0  0.57698108908E+01  0.38041058296E+02  0.18085064630E+03  0.18489826689E+03  0.00000000000E+00 0.  1.
         22    1    3    3    0    0 -0.32863124818E+01  0.41379089791E+01  0.35177976330E+02  0.35572632164E+02  0.00000000000E+00 0.  1.
<mgrwt>
<rscale>  0 0.13062771E+03</rscale>
<asrwt>0</asrwt>
<pdfrwt beam="1">  1        1 0.38161559E-01 0.13062771E+03</pdfrwt>
<pdfrwt beam="2">  1       -1 0.26458051E-02 0.13062771E+03</pdfrwt>
<totfact> 0.46336009E+04</totfact>
</mgrwt>
</event>
<event>
 7    1  0.3607059E-009  0.8843861E+02  0.7818608E-02  0.1306677E+00
         -1   -1    0    0    0  501 -0.00000000000E+00  0.00000000000E+00  0.33011027081E+02  0.33011027465E+02  0.50400000000E-02 0.  1.
          1   -1    0    0  501    0  0.00000000000E+00 -0.00000000000E+00 -0.59233143912E+02  0.59233144126E+02  0.50400000000E-02 0. -1.
         23    2    1    2    0    0  0.00000000000E+00  0.00000000000E+00 -0.26222116831E+02  0.92244171592E+02  0.88438610242E+02 0.  0.
    9000005    2    3    3    0    0  0.20755632775E+02  0.33602909049E+02 -0.31426753555E+02  0.52406500577E+02  0.14101371396E+02 0.  0.
         22    1    3    3    0    0 -0.20755632775E+02 -0.33602909049E+02  0.52046367239E+01  0.39837671015E+02  0.00000000000E+00 0.  1.
         22    1    4    4    0    0  0.14209154124E+02  0.32027559866E+02 -0.24554454180E+02  0.42785346463E+02  0.00000000000E+00 0.  1.
         22    1    4    4    0    0  0.65464786515E+01  0.15753491831E+01 -0.68722993755E+01  0.96211541142E+01  0.00000000000E+00 0.  1.
<mgrwt>
<rscale>  0 0.88438610E+02</rscale>
<asrwt>0</asrwt>
<pdfrwt beam="2">  1        1 0.91127914E-02 0.88438610E+02</pdfrwt>
<pdfrwt beam="1">  1       -1 0.50786196E-02 0.88438610E+02</pdfrwt>
<totfact> 0.10464979E+05</totfact>
</mgrwt>
</event>
<event>
 7    1  0.3607059E-009  0.9091374E+02  0.7818608E-02  0.1300654E+00
          1   -1    0    0  501    0  0.00000000000E+00  0.00000000000E+00  0.74838414480E+02  0.74838414650E+02  0.50400000000E-02 0. -1.
         -1   -1    0    0    0  501 -0.00000000000E+00 -0.00000000000E+00 -0.27610511667E+02  0.27610512127E+02  0.50400000000E-02 0.  1.
         23    2    1    2    0    0  0.00000000000E+00 -0.71054273576E-14  0.47227902812E+02  0.10244892678E+03  0.90913738201E+02 0.  0.
    9000005    2    3    3    0    0  0.28010462745E+02  0.33606629916E+02  0.37121530846E+02  0.57547586576E+02  0.44412915826E+01 0.  0.
         22    1    3    3    0    0 -0.28010462745E+02 -0.33606629916E+02  0.10106371967E+02  0.44901340201E+02  0.00000000000E+00 0.  1.
         22    1    4    4    0    0  0.21340672845E+02  0.27747476175E+02  0.31056101233E+02  0.46795599957E+02  0.00000000000E+00 0. -1.
         22    1    4    4    0    0  0.66697898998E+01  0.58591537415E+01  0.60654296128E+01  0.10751986619E+02  0.00000000000E+00 0. -1.
<mgrwt>
<rscale>  0 0.90913738E+02</rscale>
<asrwt>0</asrwt>
<pdfrwt beam="1">  1        1 0.11513602E-01 0.90913738E+02</pdfrwt>
<pdfrwt beam="2">  1       -1 0.42477711E-02 0.90913738E+02</pdfrwt>
<totfact> 0.10049148E+05</totfact>
</mgrwt>
</event>
<event>
 6    1  0.3607059E-009  0.2242151E+03  0.7818608E-02  0.1130779E+00
         -1   -1    0    0    0  501 -0.00000000000E+00  0.00000000000E+00  0.68275218374E+02  0.68275218560E+02  0.50400000000E-02 0.  1.
          1   -1    0    0  501    0  0.00000000000E+00 -0.00000000000E+00 -0.18407999287E+03  0.18407999293E+03  0.50400000000E-02 0. -1.
    9000005    2    1    2    0    0 -0.15880552420E+02  0.85346334242E+02  0.21315433816E+02  0.90064915297E+02  0.11006931219E+02 0.  0.
         22    1    1    2    0    0  0.15880552420E+02 -0.85346334242E+02 -0.13712020831E+03  0.16229029620E+03  0.00000000000E+00 0. -1.
         22    1    3    3    0    0 -0.15559755182E+01  0.21258966449E+02  0.95204288892E+01  0.23345305321E+02  0.00000000000E+00 0.  1.
         22    1    3    3    0    0 -0.14324576902E+02  0.64087367793E+02  0.11795004927E+02  0.66719609976E+02  0.00000000000E+00 0.  1.
<mgrwt>
<rscale>  0 0.22421509E+03</rscale>
<asrwt>0</asrwt>
<pdfrwt beam="2">  1        1 0.28319999E-01 0.22421509E+03</pdfrwt>
<pdfrwt beam="1">  1       -1 0.10503880E-01 0.22421509E+03</pdfrwt>
<totfact> 0.90030039E+03</totfact>
</mgrwt>
</event>
<event>
 7    1  0.3607059E-009  0.8875775E+02  0.7818608E-02  0.1305888E+00
         -1   -1    0    0    0  501 -0.00000000000E+00  0.00000000000E+00  0.20875696494E+02  0.20875697103E+02  0.50400000000E-02 0.  1.
          1   -1    0    0  501    0  0.00000000000E+00 -0.00000000000E+00 -0.94343412512E+02  0.94343412646E+02  0.50400000000E-02 0. -1.
         23    2    1    2    0    0 -0.35527136788E-14  0.00000000000E+00 -0.73467716017E+02  0.11521910975E+03  0.88757748702E+02 0.  0.
    9000005    2    3    3    0    0 -0.21526681064E+02  0.20190883467E+02  0.43633745743E+01  0.31980005744E+02  0.11515726505E+02 0.  0.
         22    1    3    3    0    0  0.21526681064E+02 -0.20190883467E+02 -0.77831090592E+02  0.83239104005E+02  0.00000000000E+00 0. -1.
         22    1    4    4    0    0 -0.18211315869E+02  0.19625989399E+02  0.39288728011E+00  0.26776591381E+02  0.00000000000E+00 0.  1.
         22    1    4    4    0    0 -0.33153651947E+01  0.56489406805E+00  0.39704872942E+01  0.52034143632E+01  0.00000000000E+00 0.  1.
<mgrwt>
<rscale>  0 0.88757749E+02</rscale>
<asrwt>0</asrwt>
<pdfrwt beam="2">  1        1 0.14514371E-01 0.88757749E+02</pdfrwt>
<pdfrwt beam="1">  1       -1 0.32116457E-02 0.88757749E+02</pdfrwt>
<totfact> 0.11131362E+05</totfact>
</mgrwt>
</event>
<event>
 7    1  0.3607059E-009  0.9832258E+02  0.7818608E-02  0.1283863E+00
         -1   -1    0    0    0  501 -0.00000000000E+00  0.00000000000E+00  0.25731202545E+03  0.25731202550E+03  0.50400000000E-02 0.  1.
          1   -1    0    0  501    0  0.00000000000E+00 -0.00000000000E+00 -0.93926122732E+01  0.93926136254E+01  0.50400000000E-02 0. -1.
         23    2    1    2    0    0  0.00000000000E+00  0.00000000000E+00  0.24791941318E+03  0.26670463912E+03  0.98322576760E+02 0.  0.
    9000005    2    3    3    0    0  0.33839188254E+02  0.35329739976E+02  0.12797500155E+03  0.13716721955E+03  0.66305286405E+01 0.  0.
         22    1    3    3    0    0 -0.33839188254E+02 -0.35329739976E+02  0.11994441163E+03  0.12953741957E+03  0.00000000000E+00 0. -1.
         22    1    4    4    0    0  0.10866222931E+02  0.85100996919E+01  0.42487968098E+02  0.44673527179E+02  0.00000000000E+00 0. -1.
         22    1    4    4    0    0  0.22972965323E+02  0.26819640285E+02  0.85487033452E+02  0.92493692375E+02  0.00000000000E+00 0. -1.
<mgrwt>
<rscale>  0 0.98322577E+02</rscale>
<asrwt>0</asrwt>
<pdfrwt beam="2">  1        1 0.14450176E-02 0.98322577E+02</pdfrwt>
<pdfrwt beam="1">  1       -1 0.39586460E-01 0.98322577E+02</pdfrwt>
<totfact> 0.52626747E+04</totfact>
</mgrwt>
</event>
<event>
 7    1  0.3607059E-009  0.8909079E+02  0.7818608E-02  0.1305069E+00
         -1   -1    0    0    0  501 -0.00000000000E+00  0.00000000000E+00  0.66145462240E+01  0.66145481441E+01  0.50400000000E-02 0.  1.
          1   -1    0    0  501    0  0.00000000000E+00 -0.00000000000E+00 -0.29998909352E+03  0.29998909357E+03  0.50400000000E-02 0. -1.
         23    2    1    2    0    0 -0.35527136788E-14  0.00000000000E+00 -0.29337454730E+03  0.30660364171E+03  0.89090785756E+02 0.  0.
    9000005    2    3    3    0    0  0.24539513004E+02  0.11637238747E+02 -0.26786960819E+03  0.26934622711E+03  0.74598953825E+01 0.  0.
         22    1    3    3    0    0 -0.24539513004E+02 -0.11637238747E+02 -0.25504939108E+02  0.37257414604E+02  0.00000000000E+00 0.  1.
         22    1    4    4    0    0  0.74434698814E+01  0.10322562412E+01 -0.51833708720E+02  0.52375606502E+02  0.00000000000E+00 0. -1.
         22    1    4    4    0    0  0.17096043122E+02  0.10604982505E+02 -0.21603589947E+03  0.21697062060E+03  0.00000000000E+00 0. -1.
<mgrwt>
<rscale>  0 0.89090786E+02</rscale>
<asrwt>0</asrwt>
<pdfrwt beam="2">  1        1 0.46152158E-01 0.89090786E+02</pdfrwt>
<pdfrwt beam="1">  1       -1 0.10176229E-02 0.89090786E+02</pdfrwt>
<totfact> 0.13625658E+05</totfact>
</mgrwt>
</event>
<event>
 7    1  0.3607059E-009  0.9327866E+02  0.7818608E-02  0.1295101E+00
         -1   -1    0    0    0  501 -0.00000000000E+00  0.00000000000E+00  0.43846485737E+02  0.43846486026E+02  0.50400000000E-02 0.  1.
          1   -1    0    0  501    0  0.00000000000E+00 -0.00000000000E+00 -0.49610071723E+02  0.49610071979E+02  0.50400000000E-02 0. -1.
         23    2    1    2    0    0  0.88817841970E-15  0.00000000000E+00 -0.57635859866E+01  0.93456558006E+02  0.93278664821E+02 0.  0.
    9000005    2    3    3    0    0 -0.55544845684E+01 -0.31234821045E+02  0.29546100003E+02  0.45988249954E+02  0.15345382495E+02 0.  0.
         22    1    3    3    0    0  0.55544845684E+01  0.31234821045E+02 -0.35309685990E+02  0.47468308051E+02  0.00000000000E+00 0. -1.
         22    1    4    4    0    0 -0.87417112739E+01 -0.95968929775E+01  0.14381907291E+02  0.19374135546E+02  0.00000000000E+00 0.  1.
         22    1    4    4    0    0  0.31872267054E+01 -0.21637928068E+02  0.15164192712E+02  0.26614114408E+02  0.00000000000E+00 0.  1.
<mgrwt>
<rscale>  0 0.93278665E+02</rscale>
<asrwt>0</asrwt>
<pdfrwt beam="2">  1        1 0.76323188E-02 0.93278665E+02</pdfrwt>
<pdfrwt beam="1">  1       -1 0.67456132E-02 0.93278665E+02</pdfrwt>
<totfact> 0.87856241E+04</totfact>
</mgrwt>
</event>
<event>
 7    1  0.3607059E-009  0.9099362E+02  0.7818608E-02  0.1300463E+00
          1   -1    0    0  501    0  0.00000000000E+00  0.00000000000E+00  0.69890613703E+03  0.69890613705E+03  0.50400000000E-02 0. -1.
         -1   -1    0    0    0  501 -0.00000000000E+00 -0.00000000000E+00 -0.29617110325E+01  0.29617153208E+01  0.50400000000E-02 0.  1.
         23    2    1    2    0    0  0.00000000000E+00  0.00000000000E+00  0.69594442600E+03  0.70186785237E+03  0.90993615776E+02 0.  0.
    9000005    2    3    3    0    0 -0.37703112227E+02 -0.19690478309E+02  0.44859234533E+03  0.45088520074E+03  0.15910133596E+02 0.  0.
         22    1    3    3    0    0  0.37703112227E+02  0.19690478309E+02  0.24735208067E+03  0.25098265163E+03  0.00000000000E+00 0.  1.
         22    1    4    4    0    0 -0.29631620776E+02 -0.22119530982E+02  0.36215845408E+03  0.36404127852E+03  0.00000000000E+00 0.  1.
         22    1    4    4    0    0 -0.80714914513E+01  0.24290526730E+01  0.86433891245E+02  0.86843922222E+02  0.00000000000E+00 0.  1.
<mgrwt>
<rscale>  0 0.90993616E+02</rscale>
<asrwt>0</asrwt>
<pdfrwt beam="1">  1        1 0.10752414E+00 0.90993616E+02</pdfrwt>
<pdfrwt beam="2">  1       -1 0.45564767E-03 0.90993616E+02</pdfrwt>
<totfact> 0.14293560E+05</totfact>
</mgrwt>
</event>
<event>
 7    1  0.3607059E-009  0.8863338E+02  0.7818608E-02  0.1306195E+00
         -1   -1    0    0    0  501 -0.00000000000E+00  0.00000000000E+00  0.24709062216E+03  0.24709062221E+03  0.50400000000E-02 0.  1.
          1   -1    0    0  501    0  0.00000000000E+00 -0.00000000000E+00 -0.79483748282E+01  0.79483764261E+01  0.50400000000E-02 0. -1.
         23    2    1    2    0    0  0.00000000000E+00  0.00000000000E+00  0.23914224733E+03  0.25503899864E+03  0.88633381788E+02 0.  0.
    9000005    2    3    3    0    0  0.30133070966E+01 -0.41423751429E+02  0.88159909891E+02  0.98448215316E+02  0.13959734410E+02 0.  0.
         22    1    3    3    0    0 -0.30133070966E+01  0.41423751429E+02  0.15098233744E+03  0.15659078332E+03  0.00000000000E+00 0. -1.
         22    1    4    4    0    0  0.46864951690E+01 -0.36142080328E+02  0.63887495112E+02  0.73551514187E+02  0.00000000000E+00 0.  1.
         22    1    4    4    0    0 -0.16731880724E+01 -0.52816711013E+01  0.24272414779E+02  0.24896701130E+02  0.00000000000E+00 0.  1.
<mgrwt>
<rscale>  0 0.88633382E+02</rscale>
<asrwt>0</asrwt>
<pdfrwt beam="2">  1        1 0.12228271E-02 0.88633382E+02</pdfrwt>
<pdfrwt beam="1">  1       -1 0.38013941E-01 0.88633382E+02</pdfrwt>
<totfact> 0.69998068E+04</totfact>
</mgrwt>
</event>
<event>
 7    1  0.3607059E-009  0.9407948E+02  0.7818608E-02  0.1293263E+00
         -1   -1    0    0    0  501 -0.00000000000E+00  0.00000000000E+00  0.99804337652E+02  0.99804337779E+02  0.50400000000E-02 0.  1.
          1   -1    0    0  501    0  0.00000000000E+00 -0.00000000000E+00 -0.22170750458E+02  0.22170751031E+02  0.50400000000E-02 0. -1.
         23    2    1    2    0    0  0.00000000000E+00  0.00000000000E+00  0.77633587194E+02  0.12197508881E+03  0.94079479323E+02 0.  0.
    9000005    2    3    3    0    0 -0.34201750283E+02 -0.72812865754E+01  0.78281703446E+02  0.87000856706E+02  0.14776573235E+02 0.  0.
         22    1    3    3    0    0  0.34201750283E+02  0.72812865754E+01 -0.64811625165E+00  0.34974232104E+02  0.00000000000E+00 0. -1.
         22    1    4    4    0    0 -0.20009890441E+02  0.28224185243E+01  0.36254570180E+02  0.41506091369E+02  0.00000000000E+00 0.  1.
         22    1    4    4    0    0 -0.14191859842E+02 -0.10103705100E+02  0.42027133266E+02  0.45494765337E+02  0.00000000000E+00 0.  1.
<mgrwt>
<rscale>  0 0.94079479E+02</rscale>
<asrwt>0</asrwt>
<pdfrwt beam="2">  1        1 0.34108847E-02 0.94079479E+02</pdfrwt>
<pdfrwt beam="1">  1       -1 0.15354514E-01 0.94079479E+02</pdfrwt>
<totfact> 0.75080762E+04</totfact>
</mgrwt>
</event>
<event>
 7    1  0.3607059E-009  0.9147188E+02  0.7818608E-02  0.1299326E+00
          1   -1    0    0  501    0  0.00000000000E+00  0.00000000000E+00  0.29824997382E+03  0.29824997386E+03  0.50400000000E-02 0. -1.
         -1   -1    0    0    0  501 -0.00000000000E+00 -0.00000000000E+00 -0.70134994200E+01  0.70135012309E+01  0.50400000000E-02 0.  1.
         23    2    1    2    0    0  0.00000000000E+00  0.00000000000E+00  0.29123647440E+03  0.30526347509E+03  0.91471882046E+02 0.  0.
    9000005    2    3    3    0    0 -0.44272264998E+02  0.48963948518E+01  0.17502171632E+03  0.18080513617E+03  0.85958102132E+01 0.  0.
         22    1    3    3    0    0  0.44272264998E+02 -0.48963948518E+01  0.11621475808E+03  0.12445833892E+03  0.00000000000E+00 0.  1.
         22    1    4    4    0    0 -0.53750581753E+01 -0.21231452997E+00  0.34215580810E+02  0.34635852783E+02  0.00000000000E+00 0. -1.
         22    1    4    4    0    0 -0.38897206823E+02  0.51087093817E+01  0.14080613550E+03  0.14616928339E+03  0.00000000000E+00 0. -1.
<mgrwt>
<rscale>  0 0.91471882E+02</rscale>
<asrwt>0</asrwt>
<pdfrwt beam="1">  1        1 0.45884608E-01 0.91471882E+02</pdfrwt>
<pdfrwt beam="2">  1       -1 0.10790001E-02 0.91471882E+02</pdfrwt>
<totfact> 0.12688103E+05</totfact>
</mgrwt>
</event>
<event>
 7    1  0.3607059E-009  0.9036686E+02  0.7818608E-02  0.1301966E+00
         -1   -1    0    0    0  501 -0.00000000000E+00  0.00000000000E+00  0.44680453114E+02  0.44680453398E+02  0.50400000000E-02 0.  1.
          1   -1    0    0  501    0  0.00000000000E+00 -0.00000000000E+00 -0.45692068816E+02  0.45692069094E+02  0.50400000000E-02 0. -1.
         23    2    1    2    0    0  0.00000000000E+00  0.00000000000E+00 -0.10116157023E+01  0.90372522493E+02  0.90366860382E+02 0.  0.
    9000005    2    3    3    0    0  0.26850427052E+02 -0.15593653076E+01 -0.36471977259E+02  0.45866182553E+02  0.70798674947E+01 0.  0.
         22    1    3    3    0    0 -0.26850427052E+02  0.15593653076E+01  0.35460361557E+02  0.44506339939E+02  0.00000000000E+00 0.  1.
         22    1    4    4    0    0  0.24314426363E+02  0.32508158567E+00 -0.29634870320E+02  0.38334352039E+02  0.00000000000E+00 0. -1.
         22    1    4    4    0    0  0.25360006897E+01 -0.18844468933E+01 -0.68371069393E+01  0.75318305140E+01  0.00000000000E+00 0. -1.
<mgrwt>
<rscale>  0 0.90366860E+02</rscale>
<asrwt>0</asrwt>
<pdfrwt beam="2">  1        1 0.70295491E-02 0.90366860E+02</pdfrwt>
<pdfrwt beam="1">  1       -1 0.68739159E-02 0.90366860E+02</pdfrwt>
<totfact> 0.94846518E+04</totfact>
</mgrwt>
</event>
<event>
 7    1  0.3607059E-009  0.9022839E+02  0.7818608E-02  0.1302300E+00
          1   -1    0    0  501    0  0.00000000000E+00  0.00000000000E+00  0.37431011187E+03  0.37431011190E+03  0.50400000000E-02 0. -1.
         -1   -1    0    0    0  501 -0.00000000000E+00 -0.00000000000E+00 -0.54374435203E+01  0.54374458561E+01  0.50400000000E-02 0.  1.
         23    2    1    2    0    0  0.00000000000E+00  0.00000000000E+00  0.36887266835E+03  0.37974755776E+03  0.90228388932E+02 0.  0.
    9000005    2    3    3    0    0  0.40852225318E+02  0.16370981965E+02  0.18379386948E+03  0.18950803728E+03  0.14007011415E+02 0.  0.
         22    1    3    3    0    0 -0.40852225318E+02 -0.16370981965E+02  0.18507879887E+03  0.19023952048E+03  0.00000000000E+00 0.  1.
         22    1    4    4    0    0  0.26009485541E+02  0.15481036468E+02  0.14076435643E+03  0.14398180395E+03  0.00000000000E+00 0. -1.
         22    1    4    4    0    0  0.14842739777E+02  0.88994549762E+00  0.43029513054E+02  0.45526233324E+02  0.00000000000E+00 0. -1.
<mgrwt>
<rscale>  0 0.90228389E+02</rscale>
<asrwt>0</asrwt>
<pdfrwt beam="1">  1        1 0.57586167E-01 0.90228389E+02</pdfrwt>
<pdfrwt beam="2">  1       -1 0.83653001E-03 0.90228389E+02</pdfrwt>
<totfact> 0.13714665E+05</totfact>
</mgrwt>
</event>
<event>
 7    1  0.3607059E-009  0.9286331E+02  0.7818608E-02  0.1296062E+00
          1   -1    0    0  501    0  0.00000000000E+00  0.00000000000E+00  0.46007906790E+02  0.46007907066E+02  0.50400000000E-02 0. -1.
         -1   -1    0    0    0  501 -0.00000000000E+00 -0.00000000000E+00 -0.46859305772E+02  0.46859306043E+02  0.50400000000E-02 0.  1.
         23    2    1    2    0    0 -0.71054273576E-14  0.35527136788E-14 -0.85139898262E+00  0.92867213109E+02  0.92863310249E+02 0.  0.
    9000005    2    3    3    0    0  0.37308767630E+02 -0.27506496960E+02 -0.26165050451E+01  0.46481147135E+02  0.22581902610E+01 0.  0.
         22    1    3    3    0    0 -0.37308767630E+02  0.27506496960E+02  0.17651060625E+01  0.46386065974E+02  0.00000000000E+00 0.  1.
         22    1    4    4    0    0  0.33806642847E+02 -0.25045944716E+02 -0.17235351747E+01  0.42108894794E+02  0.00000000000E+00 0.  1.
         22    1    4    4    0    0  0.35021247835E+01 -0.24605522442E+01 -0.89296987036E+00  0.43722523412E+01  0.00000000000E+00 0.  1.
<mgrwt>
<rscale>  0 0.92863310E+02</rscale>
<asrwt>0</asrwt>
<pdfrwt beam="1">  1        1 0.70781396E-02 0.92863310E+02</pdfrwt>
<pdfrwt beam="2">  1       -1 0.72091240E-02 0.92863310E+02</pdfrwt>
<totfact> 0.87947214E+04</totfact>
</mgrwt>
</event>
<event>
 7    1  0.3607059E-009  0.8948922E+02  0.7818608E-02  0.1304093E+00
          1   -1    0    0  501    0  0.00000000000E+00  0.00000000000E+00  0.50560026518E+02  0.50560026769E+02  0.50400000000E-02 0. -1.
         -1   -1    0    0    0  501 -0.00000000000E+00 -0.00000000000E+00 -0.39598078889E+02  0.39598079210E+02  0.50400000000E-02 0.  1.
         23    2    1    2    0    0 -0.35527136788E-14  0.00000000000E+00  0.10961947629E+02  0.90158105979E+02  0.89489215987E+02 0.  0.
    9000005    2    3    3    0    0 -0.16820423514E+02 -0.96664132818E+01  0.44876143053E+02  0.51087159687E+02  0.14821048431E+02 0.  0.
         22    1    3    3    0    0  0.16820423514E+02  0.96664132818E+01 -0.33914195425E+02  0.39070946293E+02  0.00000000000E+00 0.  1.
         22    1    4    4    0    0 -0.10674828985E+02 -0.12381963102E+02  0.23112013138E+02  0.28309541420E+02  0.00000000000E+00 0.  1.
         22    1    4    4    0    0 -0.61455945287E+01  0.27155498199E+01  0.21764129915E+02  0.22777618267E+02  0.00000000000E+00 0.  1.
<mgrwt>
<rscale>  0 0.89489216E+02</rscale>
<asrwt>0</asrwt>
<pdfrwt beam="1">  1        1 0.77784656E-02 0.89489216E+02</pdfrwt>
<pdfrwt beam="2">  1       -1 0.60920122E-02 0.89489216E+02</pdfrwt>
<totfact> 0.98941337E+04</totfact>
</mgrwt>
</event>
<event>
 7    1  0.3607059E-009  0.8444681E+02  0.7818608E-02  0.1316886E+00
          1   -1    0    0  501    0  0.00000000000E+00  0.00000000000E+00  0.36510988103E+01  0.36511022890E+01  0.50400000000E-02 0. -1.
         -1   -1    0    0    0  501 -0.00000000000E+00 -0.00000000000E+00 -0.48829543085E+03  0.48829543087E+03  0.50400000000E-02 0.  1.
         23    2    1    2    0    0 -0.35527136788E-14  0.35527136788E-14 -0.48464433203E+03  0.49194653316E+03  0.84446805237E+02 0.  0.
    9000005    2    3    3    0    0 -0.25063204865E+02  0.31009256334E+02 -0.30612690711E+03  0.30903068033E+03  0.14019269207E+02 0.  0.
         22    1    3    3    0    0  0.25063204865E+02 -0.31009256334E+02 -0.17851742492E+03  0.18291585283E+03  0.00000000000E+00 0. -1.
         22    1    4    4    0    0 -0.12295660426E+02  0.10240908411E+02 -0.79368545353E+02  0.80965581958E+02  0.00000000000E+00 0.  1.
         22    1    4    4    0    0 -0.12767544439E+02  0.20768347923E+02 -0.22675836176E+03  0.22806509837E+03  0.00000000000E+00 0.  1.
<mgrwt>
<rscale>  0 0.84446805E+02</rscale>
<asrwt>0</asrwt>
<pdfrwt beam="1">  1        1 0.56170817E-03 0.84446805E+02</pdfrwt>
<pdfrwt beam="2">  1       -1 0.75122322E-01 0.84446805E+02</pdfrwt>
<totfact> 0.58320385E+04</totfact>
</mgrwt>
</event>
<event>
 7    1  0.3607059E-009  0.9127521E+02  0.7818608E-02  0.1299793E+00
         -1   -1    0    0    0  501 -0.00000000000E+00  0.00000000000E+00  0.32081468071E+02  0.32081468467E+02  0.50400000000E-02 0.  1.
          1   -1    0    0  501    0  0.00000000000E+00 -0.00000000000E+00 -0.64921936887E+02  0.64921937083E+02  0.50400000000E-02 0. -1.
         23    2    1    2    0    0  0.00000000000E+00 -0.35527136788E-14 -0.32840468816E+02  0.97003405550E+02  0.91275211838E+02 0.  0.
    9000005    2    3    3    0    0 -0.30437629168E+02 -0.31965427757E+02 -0.24175722124E+02  0.52022124151E+02  0.13175660131E+02 0.  0.
         22    1    3    3    0    0  0.30437629168E+02  0.31965427757E+02 -0.86647466923E+01  0.44981281399E+02  0.00000000000E+00 0.  1.
         22    1    4    4    0    0 -0.29775069096E+02 -0.24611081457E+02 -0.19392897052E+02  0.43224351079E+02  0.00000000000E+00 0. -1.
         22    1    4    4    0    0 -0.66256007204E+00 -0.73543463002E+01 -0.47828250722E+01  0.87977730718E+01  0.00000000000E+00 0. -1.
<mgrwt>
<rscale>  0 0.91275212E+02</rscale>
<asrwt>0</asrwt>
<pdfrwt beam="2">  1        1 0.99879903E-02 0.91275212E+02</pdfrwt>
<pdfrwt beam="1">  1       -1 0.49356105E-02 0.91275212E+02</pdfrwt>
<totfact> 0.97242264E+04</totfact>
</mgrwt>
</event>
<event>
 7    1  0.3607059E-009  0.8961035E+02  0.7818608E-02  0.1303798E+00
         -1   -1    0    0    0  501 -0.00000000000E+00  0.00000000000E+00  0.84492346092E+02  0.84492346242E+02  0.50400000000E-02 0.  1.
          1   -1    0    0  501    0  0.00000000000E+00 -0.00000000000E+00 -0.23759592496E+02  0.23759593030E+02  0.50400000000E-02 0. -1.
         23    2    1    2    0    0  0.00000000000E+00 -0.35527136788E-14  0.60732753596E+02  0.10825193927E+03  0.89610350947E+02 0.  0.
    9000005    2    3    3    0    0 -0.13411530313E+02  0.17471116786E+02 -0.16523160940E+02  0.27917728640E+02  0.46125543791E+01 0.  0.
         22    1    3    3    0    0  0.13411530313E+02 -0.17471116786E+02  0.77255914536E+02  0.80334210632E+02  0.00000000000E+00 0.  1.
         22    1    4    4    0    0 -0.38054407366E+01  0.49971563094E+01 -0.74569456543E+01  0.97498199404E+01  0.00000000000E+00 0. -1.
         22    1    4    4    0    0 -0.96060895761E+01  0.12473960477E+02 -0.90662152858E+01  0.18167908700E+02  0.00000000000E+00 0. -1.
<mgrwt>
<rscale>  0 0.89610351E+02</rscale>
<asrwt>0</asrwt>
<pdfrwt beam="2">  1        1 0.36553219E-02 0.89610351E+02</pdfrwt>
<pdfrwt beam="1">  1       -1 0.12998823E-01 0.89610351E+02</pdfrwt>
<totfact> 0.87670244E+04</totfact>
</mgrwt>
</event>
<event>
 7    1  0.3607059E-009  0.1042013E+03  0.7818608E-02  0.1271701E+00
         -1   -1    0    0    0  501 -0.00000000000E+00  0.00000000000E+00  0.62929332016E+02  0.62929332218E+02  0.50400000000E-02 0.  1.
          1   -1    0    0  501    0  0.00000000000E+00 -0.00000000000E+00 -0.43135302677E+02  0.43135302972E+02  0.50400000000E-02 0. -1.
         23    2    1    2    0    0  0.00000000000E+00  0.00000000000E+00  0.19794029339E+02  0.10606463519E+03  0.10420126314E+03 0.  0.
    9000005    2    3    3    0    0 -0.20367042083E+02  0.97031517144E+01 -0.37810192906E+02  0.44200154454E+02  0.38827065032E+01 0.  0.
         22    1    3    3    0    0  0.20367042083E+02 -0.97031517144E+01  0.57604222244E+02  0.61864480736E+02  0.00000000000E+00 0.  1.
         22    1    4    4    0    0 -0.52458219805E+00  0.37806500544E+00 -0.29396128803E+01  0.30098909477E+01  0.00000000000E+00 0.  1.
         22    1    4    4    0    0 -0.19842459885E+02  0.93250867090E+01 -0.34870580025E+02  0.41190263506E+02  0.00000000000E+00 0.  1.
<mgrwt>
<rscale>  0 0.10420126E+03</rscale>
<asrwt>0</asrwt>
<pdfrwt beam="2">  1        1 0.66362005E-02 0.10420126E+03</pdfrwt>
<pdfrwt beam="1">  1       -1 0.96814357E-02 0.10420126E+03</pdfrwt>
<totfact> 0.62692426E+04</totfact>
</mgrwt>
</event>
<event>
 7    1  0.3607059E-009  0.9287435E+02  0.7818608E-02  0.1296037E+00
         -1   -1    0    0    0  501 -0.00000000000E+00  0.00000000000E+00  0.65042688355E+01  0.65042707882E+01  0.50400000000E-02 0. -1.
          1   -1    0    0  501    0  0.00000000000E+00 -0.00000000000E+00 -0.33153779611E+03  0.33153779614E+03  0.50400000000E-02 0.  1.
         23    2    1    2    0    0 -0.35527136788E-14  0.00000000000E+00 -0.32503352727E+03  0.33804206693E+03  0.92874351497E+02 0.  0.
    9000005    2    3    3    0    0 -0.30222597969E+02 -0.34998606751E+02 -0.15466781292E+03  0.16151222660E+03  0.50753408288E+01 0.  0.
         22    1    3    3    0    0  0.30222597969E+02  0.34998606751E+02 -0.17036571435E+03  0.17652984033E+03  0.00000000000E+00 0.  1.
         22    1    4    4    0    0 -0.24831427979E+02 -0.30870034814E+02 -0.12781657518E+03  0.13381567829E+03  0.00000000000E+00 0. -1.
         22    1    4    4    0    0 -0.53911699905E+01 -0.41285719369E+01 -0.26851237740E+02  0.27696548309E+02  0.00000000000E+00 0. -1.
<mgrwt>
<rscale>  0 0.92874351E+02</rscale>
<asrwt>0</asrwt>
<pdfrwt beam="2">  1        1 0.51005802E-01 0.92874351E+02</pdfrwt>
<pdfrwt beam="1">  1       -1 0.10006572E-02 0.92874351E+02</pdfrwt>
<totfact> 0.12428182E+05</totfact>
</mgrwt>
</event>
<event>
 7    1  0.3607059E-009  0.8628477E+02  0.7818608E-02  0.1312107E+00
         -1   -1    0    0    0  501 -0.00000000000E+00  0.00000000000E+00  0.47322529722E+02  0.47322529991E+02  0.50400000000E-02 0.  1.
          1   -1    0    0  501    0  0.00000000000E+00 -0.00000000000E+00 -0.39331482124E+02  0.39331482446E+02  0.50400000000E-02 0. -1.
         23    2    1    2    0    0  0.00000000000E+00  0.88817841970E-15  0.79910475987E+01  0.86654012437E+02  0.86284767078E+02 0.  0.
    9000005    2    3    3    0    0  0.19978743234E+02  0.75337307310E+01  0.40948345002E+02  0.47384549338E+02  0.10612317259E+02 0.  0.
         22    1    3    3    0    0 -0.19978743234E+02 -0.75337307310E+01 -0.32957297403E+02  0.39269463099E+02  0.00000000000E+00 0. -1.
         22    1    4    4    0    0  0.17853084293E+02  0.93485923768E+01  0.39230085136E+02  0.44103609580E+02  0.00000000000E+00 0.  1.
         22    1    4    4    0    0  0.21256589415E+01 -0.18148616458E+01  0.17182598660E+01  0.32809397581E+01  0.00000000000E+00 0.  1.
<mgrwt>
<rscale>  0 0.86284767E+02</rscale>
<asrwt>0</asrwt>
<pdfrwt beam="2">  1        1 0.60509973E-02 0.86284767E+02</pdfrwt>
<pdfrwt beam="1">  1       -1 0.72803892E-02 0.86284767E+02</pdfrwt>
<totfact> 0.10559847E+05</totfact>
</mgrwt>
</event>
<event>
 7    1  0.3607059E-009  0.9120317E+02  0.7818608E-02  0.1299964E+00
          1   -1    0    0  501    0  0.00000000000E+00  0.00000000000E+00  0.85904829445E+02  0.85904829593E+02  0.50400000000E-02 0. -1.
         -1   -1    0    0    0  501 -0.00000000000E+00 -0.00000000000E+00 -0.24207071251E+02  0.24207071776E+02  0.50400000000E-02 0.  1.
         23    2    1    2    0    0  0.00000000000E+00  0.35527136788E-14  0.61697758194E+02  0.11011190137E+03  0.91203165827E+02 0.  0.
    9000005    2    3    3    0    0 -0.11060127713E+02  0.21752529601E+02 -0.15261012493E+02  0.29376832441E+02  0.58822455607E+01 0.  0.
         22    1    3    3    0    0  0.11060127713E+02 -0.21752529601E+02  0.76958770687E+02  0.80735068928E+02  0.00000000000E+00 0. -1.
         22    1    4    4    0    0 -0.11756205302E+02  0.20155397824E+02 -0.14528850153E+02  0.27487013503E+02  0.00000000000E+00 0.  1.
         22    1    4    4    0    0  0.69607758893E+00  0.15971317778E+01 -0.73216234001E+00  0.18898189378E+01  0.00000000000E+00 0.  1.
<mgrwt>
<rscale>  0 0.91203166E+02</rscale>
<asrwt>0</asrwt>
<pdfrwt beam="1">  1        1 0.13216128E-01 0.91203166E+02</pdfrwt>
<pdfrwt beam="2">  1       -1 0.37241648E-02 0.91203166E+02</pdfrwt>
<totfact> 0.10181145E+05</totfact>
</mgrwt>
</event>
<event>
 7    1  0.3607059E-009  0.9170352E+02  0.7818608E-02  0.1298778E+00
          1   -1    0    0  501    0  0.00000000000E+00  0.00000000000E+00  0.13147632138E+03  0.13147632148E+03  0.50400000000E-02 0. -1.
         -1   -1    0    0    0  501 -0.00000000000E+00 -0.00000000000E+00 -0.15990587464E+02  0.15990588258E+02  0.50400000000E-02 0.  1.
         23    2    1    2    0    0  0.00000000000E+00  0.17763568394E-14  0.11548573391E+03  0.14746690973E+03  0.91703515356E+02 0.  0.
    9000005    2    3    3    0    0 -0.37608564735E+02 -0.89926616069E+01  0.22246003169E+02  0.46526731936E+02  0.13212873399E+02 0.  0.
         22    1    3    3    0    0  0.37608564735E+02  0.89926616069E+01  0.93239730746E+02  0.10094017780E+03  0.00000000000E+00 0. -1.
         22    1    4    4    0    0 -0.20912560793E+02 -0.88986960963E+01  0.66516096926E+01  0.23680496250E+02  0.00000000000E+00 0.  1.
         22    1    4    4    0    0 -0.16696003943E+02 -0.93965510639E-01  0.15594393476E+02  0.22846235687E+02  0.00000000000E+00 0.  1.
<mgrwt>
<rscale>  0 0.91703515E+02</rscale>
<asrwt>0</asrwt>
<pdfrwt beam="1">  1        1 0.20227127E-01 0.91703515E+02</pdfrwt>
<pdfrwt beam="2">  1       -1 0.24600904E-02 0.91703515E+02</pdfrwt>
<totfact> 0.10779180E+05</totfact>
</mgrwt>
</event>
<event>
 7    1  0.3607059E-009  0.9152624E+02  0.7818608E-02  0.1299197E+00
          1   -1    0    0  501    0  0.00000000000E+00  0.00000000000E+00  0.11965046486E+03  0.11965046497E+03  0.50400000000E-02 0. -1.
         -1   -1    0    0    0  501 -0.00000000000E+00 -0.00000000000E+00 -0.17503177220E+02  0.17503177946E+02  0.50400000000E-02 0.  1.
         23    2    1    2    0    0 -0.35527136788E-14  0.00000000000E+00  0.10214728764E+03  0.13715364292E+03  0.91526244281E+02 0.  0.
    9000005    2    3    3    0    0  0.23292207592E+02  0.38400111119E+02  0.58854784924E+02  0.74773066931E+02  0.10489535805E+02 0.  0.
         22    1    3    3    0    0 -0.23292207592E+02 -0.38400111119E+02  0.43292502719E+02  0.62380575985E+02  0.00000000000E+00 0. -1.
         22    1    4    4    0    0  0.21078534035E+02  0.34863769566E+02  0.57329221238E+02  0.70330837000E+02  0.00000000000E+00 0. -1.
         22    1    4    4    0    0  0.22136735571E+01  0.35363415535E+01  0.15255636857E+01  0.44422299310E+01  0.00000000000E+00 0. -1.
<mgrwt>
<rscale>  0 0.91526244E+02</rscale>
<asrwt>0</asrwt>
<pdfrwt beam="1">  1        1 0.18407763E-01 0.91526244E+02</pdfrwt>
<pdfrwt beam="2">  1       -1 0.26927966E-02 0.91526244E+02</pdfrwt>
<totfact> 0.10657154E+05</totfact>
</mgrwt>
</event>
<event>
 7    1  0.3607059E-009  0.9401792E+02  0.7818608E-02  0.1293403E+00
         -1   -1    0    0    0  501 -0.00000000000E+00  0.00000000000E+00  0.22669661138E+03  0.22669661143E+03  0.50400000000E-02 0.  1.
          1   -1    0    0  501    0  0.00000000000E+00 -0.00000000000E+00 -0.97480167227E+01  0.97480180256E+01  0.50400000000E-02 0. -1.
         23    2    1    2    0    0 -0.71054273576E-14  0.00000000000E+00  0.21694859465E+03  0.23644462946E+03  0.94017924234E+02 0.  0.
    9000005    2    3    3    0    0 -0.45655869383E+02  0.13391411970E+01  0.12690976989E+03  0.13548304433E+03  0.12779432579E+02 0.  0.
         22    1    3    3    0    0  0.45655869383E+02 -0.13391411970E+01  0.90038824759E+02  0.10096158513E+03  0.00000000000E+00 0.  1.
         22    1    4    4    0    0 -0.66938327057E+00  0.21007573016E+01  0.36033596756E+01  0.42243882581E+01  0.00000000000E+00 0.  1.
         22    1    4    4    0    0 -0.44986486112E+02 -0.76161610461E+00  0.12330641022E+03  0.13125865607E+03  0.00000000000E+00 0.  1.
<mgrwt>
<rscale>  0 0.94017924E+02</rscale>
<asrwt>0</asrwt>
<pdfrwt beam="2">  1        1 0.14996950E-02 0.94017924E+02</pdfrwt>
<pdfrwt beam="1">  1       -1 0.34876401E-01 0.94017924E+02</pdfrwt>
<totfact> 0.61713219E+04</totfact>
</mgrwt>
</event>
<event>
 7    1  0.3607059E-009  0.9053051E+02  0.7818608E-02  0.1301572E+00
         -1   -1    0    0    0  501 -0.00000000000E+00  0.00000000000E+00  0.96342401074E+01  0.96342414257E+01  0.50400000000E-02 0.  1.
          1   -1    0    0  501    0  0.00000000000E+00 -0.00000000000E+00 -0.21267302047E+03  0.21267302053E+03  0.50400000000E-02 0. -1.
         23    2    1    2    0    0  0.00000000000E+00  0.00000000000E+00 -0.20303878036E+03  0.22230726195E+03  0.90530505284E+02 0.  0.
    9000005    2    3    3    0    0 -0.38774122073E+02  0.13294385192E+02 -0.56491927061E+02  0.70135801317E+02  0.68934449440E+01 0.  0.
         22    1    3    3    0    0  0.38774122073E+02 -0.13294385192E+02 -0.14654685330E+03  0.15217146064E+03  0.00000000000E+00 0.  1.
         22    1    4    4    0    0 -0.13278224693E+02  0.76652617511E+01 -0.18332593616E+02  0.23898775646E+02  0.00000000000E+00 0. -1.
         22    1    4    4    0    0 -0.25495897380E+02  0.56291234410E+01 -0.38159333445E+02  0.46237025671E+02  0.00000000000E+00 0. -1.
<mgrwt>
<rscale>  0 0.90530505E+02</rscale>
<asrwt>0</asrwt>
<pdfrwt beam="2">  1        1 0.32718923E-01 0.90530505E+02</pdfrwt>
<pdfrwt beam="1">  1       -1 0.14821911E-02 0.90530505E+02</pdfrwt>
<totfact> 0.12213273E+05</totfact>
</mgrwt>
</event>
<event>
 7    1  0.3607059E-009  0.8611472E+02  0.7818608E-02  0.1312543E+00
          1   -1    0    0  501    0  0.00000000000E+00  0.00000000000E+00  0.11780830520E+03  0.11780830531E+03  0.50400000000E-02 0. -1.
         -1   -1    0    0    0  501 -0.00000000000E+00 -0.00000000000E+00 -0.15736888735E+02  0.15736889542E+02  0.50400000000E-02 0.  1.
         23    2    1    2    0    0  0.00000000000E+00  0.00000000000E+00  0.10207141646E+03  0.13354519485E+03  0.86114720043E+02 0.  0.
    9000005    2    3    3    0    0  0.19639594984E+02  0.30443167958E+02  0.86434744697E+02  0.94086283682E+02  0.82923772105E+01 0.  0.
         22    1    3    3    0    0 -0.19639594984E+02 -0.30443167958E+02  0.15636671766E+02  0.39458911166E+02  0.00000000000E+00 0.  1.
         22    1    4    4    0    0  0.23655550336E+01  0.10548896068E+02  0.24308409112E+02  0.26604018727E+02  0.00000000000E+00 0. -1.
         22    1    4    4    0    0  0.17274039951E+02  0.19894271890E+02  0.62126335585E+02  0.67482264955E+02  0.00000000000E+00 0. -1.
<mgrwt>
<rscale>  0 0.86114720E+02</rscale>
<asrwt>0</asrwt>
<pdfrwt beam="1">  1        1 0.18124355E-01 0.86114720E+02</pdfrwt>
<pdfrwt beam="2">  1       -1 0.24210599E-02 0.86114720E+02</pdfrwt>
<totfact> 0.12531696E+05</totfact>
</mgrwt>
</event>
<event>
 7    1  0.3607059E-009  0.9213227E+02  0.7818608E-02  0.1297769E+00
         -1   -1    0    0    0  501 -0.00000000000E+00  0.00000000000E+00  0.80277272807E+02  0.80277272965E+02  0.50400000000E-02 0.  1.
          1   -1    0    0  501    0  0.00000000000E+00 -0.00000000000E+00 -0.26434489029E+02  0.26434489509E+02  0.50400000000E-02 0. -1.
         23    2    1    2    0    0  0.00000000000E+00 -0.17763568394E-14  0.53842783778E+02  0.10671176247E+03  0.92132268427E+02 0.  0.
    9000005    2    3    3    0    0  0.63566837813E+01 -0.12469136380E+02  0.77113764147E+02  0.79556186287E+02  0.13666285704E+02 0.  0.
         22    1    3    3    0    0 -0.63566837813E+01  0.12469136380E+02 -0.23270980369E+02  0.27155576187E+02  0.00000000000E+00 0. -1.
         22    1    4    4    0    0  0.41117104210E+01 -0.12367031752E+02  0.75882836979E+02  0.76993860696E+02  0.00000000000E+00 0. -1.
         22    1    4    4    0    0  0.22449733603E+01 -0.10210462778E+00  0.12309271684E+01  0.25623255916E+01  0.00000000000E+00 0. -1.
<mgrwt>
<rscale>  0 0.92132268E+02</rscale>
<asrwt>0</asrwt>
<pdfrwt beam="2">  1        1 0.40668446E-02 0.92132268E+02</pdfrwt>
<pdfrwt beam="1">  1       -1 0.12350349E-01 0.92132268E+02</pdfrwt>
<totfact> 0.82370639E+04</totfact>
</mgrwt>
</event>
<event>
 7    1  0.3607059E-009  0.9061240E+02  0.7818608E-02  0.1301375E+00
          1   -1    0    0  501    0  0.00000000000E+00  0.00000000000E+00  0.62603369968E+02  0.62603370171E+02  0.50400000000E-02 0. -1.
         -1   -1    0    0    0  501 -0.00000000000E+00 -0.00000000000E+00 -0.32788196294E+02  0.32788196681E+02  0.50400000000E-02 0.  1.
         23    2    1    2    0    0  0.00000000000E+00  0.00000000000E+00  0.29815173674E+02  0.95391566852E+02  0.90612396753E+02 0.  0.
    9000005    2    3    3    0    0 -0.18456128157E+02  0.38898290079E+02  0.29674356008E+02  0.52336654621E+02  0.22028106463E+01 0.  0.
         22    1    3    3    0    0  0.18456128157E+02 -0.38898290079E+02  0.14081766553E+00  0.43054912231E+02  0.00000000000E+00 0.  1.
         22    1    4    4    0    0 -0.85984180668E+01  0.20120906168E+02  0.15908741360E+02  0.27053127544E+02  0.00000000000E+00 0. -1.
         22    1    4    4    0    0 -0.98577100904E+01  0.18777383911E+02  0.13765614648E+02  0.25283527076E+02  0.00000000000E+00 0. -1.
<mgrwt>
<rscale>  0 0.90612397E+02</rscale>
<asrwt>0</asrwt>
<pdfrwt beam="1">  1        1 0.96312877E-02 0.90612397E+02</pdfrwt>
<pdfrwt beam="2">  1       -1 0.50443379E-02 0.90612397E+02</pdfrwt>
<totfact> 0.98674896E+04</totfact>
</mgrwt>
</event>
<event>
 7    1  0.3607059E-009  0.9099828E+02  0.7818608E-02  0.1300452E+00
          1   -1    0    0  501    0  0.00000000000E+00  0.00000000000E+00  0.17471210516E+02  0.17471211243E+02  0.50400000000E-02 0. -1.
         -1   -1    0    0    0  501 -0.00000000000E+00 -0.00000000000E+00 -0.11849044731E+03  0.11849044742E+03  0.50400000000E-02 0.  1.
         23    2    1    2    0    0 -0.35527136788E-14 -0.35527136788E-14 -0.10101923680E+03  0.13596165866E+03  0.90998277035E+02 0.  0.
    9000005    2    3    3    0    0 -0.30985107878E+02 -0.26582305439E+02 -0.79740137958E+02  0.89923675213E+02  0.78154903649E+01 0.  0.
         22    1    3    3    0    0  0.30985107878E+02  0.26582305439E+02 -0.21279098838E+02  0.46037983448E+02  0.00000000000E+00 0. -1.
         22    1    4    4    0    0 -0.80117068111E+01 -0.11540937397E+02 -0.24779632189E+02  0.28485274326E+02  0.00000000000E+00 0. -1.
         22    1    4    4    0    0 -0.22973401067E+02 -0.15041368042E+02 -0.54960505769E+02  0.61438400887E+02  0.00000000000E+00 0. -1.
<mgrwt>
<rscale>  0 0.90998277E+02</rscale>
<asrwt>0</asrwt>
<pdfrwt beam="1">  1        1 0.26878787E-02 0.90998277E+02</pdfrwt>
<pdfrwt beam="2">  1       -1 0.18229299E-01 0.90998277E+02</pdfrwt>
<totfact> 0.79133711E+04</totfact>
</mgrwt>
</event>
<event>
 7    1  0.3607059E-009  0.9118944E+02  0.7818608E-02  0.1299997E+00
         -1   -1    0    0    0  501 -0.00000000000E+00  0.00000000000E+00  0.14796599589E+02  0.14796600447E+02  0.50400000000E-02 0.  1.
          1   -1    0    0  501    0  0.00000000000E+00 -0.00000000000E+00 -0.14049705346E+03  0.14049705355E+03  0.50400000000E-02 0. -1.
         23    2    1    2    0    0 -0.35527136788E-14  0.00000000000E+00 -0.12570045387E+03  0.15529365400E+03  0.91189444941E+02 0.  0.
    9000005    2    3    3    0    0 -0.26874209721E+02  0.93413036360E+00 -0.37297115909E+00  0.27113805072E+02  0.34530523229E+01 0.  0.
         22    1    3    3    0    0  0.26874209721E+02 -0.93413036360E+00 -0.12532748271E+03  0.12817984893E+03  0.00000000000E+00 0. -1.
         22    1    4    4    0    0 -0.23994930364E+02  0.16065667022E+01  0.42086310202E+00  0.24052335968E+02  0.00000000000E+00 0.  1.
         22    1    4    4    0    0 -0.28792793565E+01 -0.67243633857E+00 -0.79383426112E+00  0.30614691043E+01  0.00000000000E+00 0.  1.
<mgrwt>
<rscale>  0 0.91189445E+02</rscale>
<asrwt>0</asrwt>
<pdfrwt beam="2">  1        1 0.21614930E-01 0.91189445E+02</pdfrwt>
<pdfrwt beam="1">  1       -1 0.22764001E-02 0.91189445E+02</pdfrwt>
<totfact> 0.11075971E+05</totfact>
</mgrwt>
</event>
<event>
 7    1  0.3607059E-009  0.9527978E+02  0.7818608E-02  0.1290547E+00
          1   -1    0    0  501    0  0.00000000000E+00  0.00000000000E+00  0.84848461888E+03  0.84848461889E+03  0.50400000000E-02 0. -1.
         -1   -1    0    0    0  501 -0.00000000000E+00 -0.00000000000E+00 -0.26748356522E+01  0.26748404005E+01  0.50400000000E-02 0.  1.
         23    2    1    2    0    0  0.00000000000E+00  0.00000000000E+00  0.84580978323E+03  0.85115945929E+03  0.95279776156E+02 0.  0.
    9000005    2    3    3    0    0  0.81568408659E+01 -0.85325367938E+01  0.83520742904E+03  0.83529288590E+03  0.18486397346E+01 0.  0.
         22    1    3    3    0    0 -0.81568408659E+01  0.85325367938E+01  0.10602354183E+02  0.15866573394E+02  0.00000000000E+00 0.  1.
         22    1    4    4    0    0  0.49373706791E+01 -0.53966382960E+01  0.57680883071E+03  0.57685520585E+03  0.00000000000E+00 0.  1.
         22    1    4    4    0    0  0.32194701868E+01 -0.31358984978E+01  0.25839859833E+03  0.25843768005E+03  0.00000000000E+00 0.  1.
<mgrwt>
<rscale>  0 0.95279776E+02</rscale>
<asrwt>0</asrwt>
<pdfrwt beam="1">  1        1 0.13053595E+00 0.95279776E+02</pdfrwt>
<pdfrwt beam="2">  1       -1 0.41151401E-03 0.95279776E+02</pdfrwt>
<totfact> 0.12495614E+05</totfact>
</mgrwt>
</event>
<event>
 7    1  0.3607059E-009  0.9162390E+02  0.7818608E-02  0.1298966E+00
         -1   -1    0    0    0  501 -0.00000000000E+00  0.00000000000E+00  0.11624308051E+02  0.11624309143E+02  0.50400000000E-02 0.  1.
          1   -1    0    0  501    0  0.00000000000E+00 -0.00000000000E+00 -0.18054706630E+03  0.18054706637E+03  0.50400000000E-02 0. -1.
         23    2    1    2    0    0 -0.71054273576E-14  0.00000000000E+00 -0.16892275825E+03  0.19217137551E+03  0.91623901425E+02 0.  0.
    9000005    2    3    3    0    0  0.44692465978E+02  0.38149233079E+01 -0.10378371422E+03  0.11308240528E+03  0.21449690691E+01 0.  0.
         22    1    3    3    0    0 -0.44692465978E+02 -0.38149233079E+01 -0.65139044031E+02  0.79088970232E+02  0.00000000000E+00 0.  1.
         22    1    4    4    0    0  0.25865456731E+02  0.18611926293E+01 -0.57455532506E+02  0.63036688567E+02  0.00000000000E+00 0. -1.
         22    1    4    4    0    0  0.18827009247E+02  0.19537306786E+01 -0.46328181711E+02  0.50045716714E+02  0.00000000000E+00 0. -1.
<mgrwt>
<rscale>  0 0.91623901E+02</rscale>
<asrwt>0</asrwt>
<pdfrwt beam="2">  1        1 0.27776470E-01 0.91623901E+02</pdfrwt>
<pdfrwt beam="1">  1       -1 0.17883553E-02 0.91623901E+02</pdfrwt>
<totfact> 0.11457607E+05</totfact>
</mgrwt>
</event>
<event>
 7    1  0.3607059E-009  0.9044253E+02  0.7818608E-02  0.1301784E+00
         -1   -1    0    0    0  501 -0.00000000000E+00  0.00000000000E+00  0.14950708834E+02  0.14950709684E+02  0.50400000000E-02 0.  1.
          1   -1    0    0  501    0  0.00000000000E+00 -0.00000000000E+00 -0.13678031689E+03  0.13678031698E+03  0.50400000000E-02 0. -1.
         23    2    1    2    0    0 -0.71054273576E-14  0.00000000000E+00 -0.12182960805E+03  0.15173102666E+03  0.90442529012E+02 0.  0.
    9000005    2    3    3    0    0 -0.44406377086E+02 -0.55028965859E+01 -0.68524667671E+02  0.82134871124E+02  0.69497322543E+01 0.  0.
         22    1    3    3    0    0  0.44406377086E+02  0.55028965859E+01 -0.53304940380E+02  0.69596155538E+02  0.00000000000E+00 0.  1.
         22    1    4    4    0    0 -0.33273972013E+02 -0.58498970276E+01 -0.46783087491E+02  0.57706462237E+02  0.00000000000E+00 0.  1.
         22    1    4    4    0    0 -0.11132405073E+02  0.34700044176E+00 -0.21741580180E+02  0.24428408887E+02  0.00000000000E+00 0.  1.
<mgrwt>
<rscale>  0 0.90442529E+02</rscale>
<asrwt>0</asrwt>
<pdfrwt beam="2">  1        1 0.21043125E-01 0.90442529E+02</pdfrwt>
<pdfrwt beam="1">  1       -1 0.23001092E-02 0.90442529E+02</pdfrwt>
<totfact> 0.11270039E+05</totfact>
</mgrwt>
</event>
<event>
 7    1  0.3607059E-009  0.9091140E+02  0.7818608E-02  0.1300659E+00
         -1   -1    0    0    0  501 -0.00000000000E+00  0.00000000000E+00  0.21640201194E+03  0.21640201200E+03  0.50400000000E-02 0.  1.
          1   -1    0    0  501    0  0.00000000000E+00 -0.00000000000E+00 -0.95480653460E+01  0.95480666762E+01  0.50400000000E-02 0. -1.
         23    2    1    2    0    0  0.00000000000E+00  0.00000000000E+00  0.20685394660E+03  0.22595007868E+03  0.90911401000E+02 0.  0.
    9000005    2    3    3    0    0 -0.18002161104E+02 -0.26506604123E+02  0.18313918553E+03  0.18608696591E+03  0.78561913023E+01 0.  0.
         22    1    3    3    0    0  0.18002161104E+02  0.26506604123E+02  0.23714761072E+02  0.39863112764E+02  0.00000000000E+00 0. -1.
         22    1    4    4    0    0  0.19285078855E+00  0.43706551767E+00  0.24609004906E+01  0.25068404253E+01  0.00000000000E+00 0.  1.
         22    1    4    4    0    0 -0.18195011892E+02 -0.26943669640E+02  0.18067828503E+03  0.18358012549E+03  0.00000000000E+00 0.  1.
<mgrwt>
<rscale>  0 0.90911401E+02</rscale>
<asrwt>0</asrwt>
<pdfrwt beam="2">  1        1 0.14689333E-02 0.90911401E+02</pdfrwt>
<pdfrwt beam="1">  1       -1 0.33292615E-01 0.90911401E+02</pdfrwt>
<totfact> 0.68349265E+04</totfact>
</mgrwt>
</event>
<event>
 7    1  0.3607059E-009  0.1077850E+03  0.7818608E-02  0.1264728E+00
         -1   -1    0    0    0  501 -0.00000000000E+00  0.00000000000E+00  0.88268657482E+02  0.88268657626E+02  0.50400000000E-02 0.  1.
          1   -1    0    0  501    0  0.00000000000E+00 -0.00000000000E+00 -0.32904113445E+02  0.32904113831E+02  0.50400000000E-02 0. -1.
         23    2    1    2    0    0  0.35527136788E-14  0.00000000000E+00  0.55364544038E+02  0.12117277146E+03  0.10778500733E+03 0.  0.
    9000005    2    3    3    0    0 -0.29675872718E+02 -0.34696872801E+02 -0.25448416492E+01  0.47429789727E+02  0.12592788841E+02 0.  0.
         22    1    3    3    0    0  0.29675872718E+02  0.34696872801E+02  0.57909385687E+02  0.73742981730E+02  0.00000000000E+00 0.  1.
         22    1    4    4    0    0 -0.80315997837E+01 -0.67561918013E+01 -0.57044484060E+01  0.11945436549E+02  0.00000000000E+00 0. -1.
         22    1    4    4    0    0 -0.21644272935E+02 -0.27940680999E+02  0.31596067568E+01  0.35484353178E+02  0.00000000000E+00 0. -1.
<mgrwt>
<rscale>  0 0.10778501E+03</rscale>
<asrwt>0</asrwt>
<pdfrwt beam="2">  1        1 0.50621714E-02 0.10778501E+03</pdfrwt>
<pdfrwt beam="1">  1       -1 0.13579793E-01 0.10778501E+03</pdfrwt>
<totfact> 0.54117560E+04</totfact>
</mgrwt>
</event>
<event>
 7    1  0.3607059E-009  0.9023095E+02  0.7818608E-02  0.1302293E+00
         -1   -1    0    0    0  501 -0.00000000000E+00  0.00000000000E+00  0.19597570285E+02  0.19597570933E+02  0.50400000000E-02 0.  1.
          1   -1    0    0  501    0  0.00000000000E+00 -0.00000000000E+00 -0.10386013329E+03  0.10386013342E+03  0.50400000000E-02 0. -1.
         23    2    1    2    0    0  0.00000000000E+00  0.00000000000E+00 -0.84262563008E+02  0.12345770435E+03  0.90230954989E+02 0.  0.
    9000005    2    3    3    0    0  0.35712003013E+02 -0.26385947325E+02 -0.47335097591E+02  0.65706487240E+02  0.10255029305E+02 0.  0.
         22    1    3    3    0    0 -0.35712003013E+02  0.26385947325E+02 -0.36927465417E+02  0.57751217108E+02  0.00000000000E+00 0.  1.
         22    1    4    4    0    0  0.42100563218E+01 -0.20068044007E+01 -0.13240400616E+01  0.48481873128E+01  0.00000000000E+00 0. -1.
         22    1    4    4    0    0  0.31501946691E+02 -0.24379142924E+02 -0.46011057530E+02  0.60858299927E+02  0.00000000000E+00 0. -1.
<mgrwt>
<rscale>  0 0.90230955E+02</rscale>
<asrwt>0</asrwt>
<pdfrwt beam="2">  1        1 0.15978482E-01 0.90230955E+02</pdfrwt>
<pdfrwt beam="1">  1       -1 0.30150109E-02 0.90230955E+02</pdfrwt>
<totfact> 0.10813832E+05</totfact>
</mgrwt>
</event>
<event>
 7    1  0.3607059E-009  0.8760632E+02  0.7818608E-02  0.1308754E+00
         -1   -1    0    0    0  501 -0.00000000000E+00  0.00000000000E+00  0.32684047765E+03  0.32684047768E+03  0.50400000000E-02 0.  1.
          1   -1    0    0  501    0  0.00000000000E+00 -0.00000000000E+00 -0.58704987814E+01  0.58705009449E+01  0.50400000000E-02 0. -1.
         23    2    1    2    0    0  0.00000000000E+00  0.00000000000E+00  0.32096997886E+03  0.33271097863E+03  0.87606323793E+02 0.  0.
    9000005    2    3    3    0    0 -0.14721058708E+02 -0.39402985872E+02  0.14202704706E+03  0.14889074659E+03  0.15082024327E+02 0.  0.
         22    1    3    3    0    0  0.14721058708E+02  0.39402985872E+02  0.17894293180E+03  0.18382023204E+03  0.00000000000E+00 0.  1.
         22    1    4    4    0    0 -0.57543103925E+01 -0.43365252210E+01  0.39758018121E+02  0.40405662276E+02  0.00000000000E+00 0. -1.
         22    1    4    4    0    0 -0.89667483157E+01 -0.35066460651E+02  0.10226902894E+03  0.10848508431E+03  0.00000000000E+00 0. -1.
<mgrwt>
<rscale>  0 0.87606324E+02</rscale>
<asrwt>0</asrwt>
<pdfrwt beam="2">  1        1 0.90315377E-03 0.87606324E+02</pdfrwt>
<pdfrwt beam="1">  1       -1 0.50283154E-01 0.87606324E+02</pdfrwt>
<totfact> 0.64938251E+04</totfact>
</mgrwt>
</event>
<event>
 7    1  0.3607059E-009  0.9584945E+02  0.7818608E-02  0.1289274E+00
          1   -1    0    0  501    0  0.00000000000E+00  0.00000000000E+00  0.56349572192E+03  0.56349572194E+03  0.50400000000E-02 0. -1.
         -1   -1    0    0    0  501 -0.00000000000E+00 -0.00000000000E+00 -0.40759462429E+01  0.40759493589E+01  0.50400000000E-02 0.  1.
         23    2    1    2    0    0 -0.35527136788E-14  0.00000000000E+00  0.55941977567E+03  0.56757167130E+03  0.95849447809E+02 0.  0.
    9000005    2    3    3    0    0  0.26737190490E+02  0.28629630599E+02  0.43853031100E+03  0.44049375908E+03  0.13834197587E+02 0.  0.
         22    1    3    3    0    0 -0.26737190490E+02 -0.28629630599E+02  0.12088946467E+03  0.12707791221E+03  0.00000000000E+00 0.  1.
         22    1    4    4    0    0  0.12657747885E+02  0.96599177417E+01  0.24688177822E+03  0.24739471500E+03  0.00000000000E+00 0.  1.
         22    1    4    4    0    0  0.14079442605E+02  0.18969712858E+02  0.19164853278E+03  0.19309904408E+03  0.00000000000E+00 0.  1.
<mgrwt>
<rscale>  0 0.95849448E+02</rscale>
<asrwt>0</asrwt>
<pdfrwt beam="1">  1        1 0.86691651E-01 0.95849448E+02</pdfrwt>
<pdfrwt beam="2">  1       -1 0.62706888E-03 0.95849448E+02</pdfrwt>
<totfact> 0.12344056E+05</totfact>
</mgrwt>
</event>
<event>
 7    1  0.3607059E-009  0.9530445E+02  0.7818608E-02  0.1290492E+00
         -1   -1    0    0    0  501 -0.00000000000E+00  0.00000000000E+00  0.24574649055E+02  0.24574649572E+02  0.50400000000E-02 0.  1.
          1   -1    0    0  501    0  0.00000000000E+00 -0.00000000000E+00 -0.92401500088E+02  0.92401500225E+02  0.50400000000E-02 0. -1.
         23    2    1    2    0    0  0.22204460493E-15  0.00000000000E+00 -0.67826851033E+02  0.11697614980E+03  0.95304448481E+02 0.  0.
    9000005    2    3    3    0    0  0.15117581436E+01 -0.39708070707E+02 -0.64469696557E+02  0.77097749903E+02  0.14446625004E+02 0.  0.
         22    1    3    3    0    0 -0.15117581436E+01  0.39708070707E+02 -0.33571544757E+01  0.39878399894E+02  0.00000000000E+00 0.  1.
         22    1    4    4    0    0 -0.58556969969E+01 -0.18813847003E+02 -0.35810451059E+02  0.40873444086E+02  0.00000000000E+00 0.  1.
         22    1    4    4    0    0  0.73674551405E+01 -0.20894223704E+02 -0.28659245498E+02  0.36224305818E+02  0.00000000000E+00 0.  1.
<mgrwt>
<rscale>  0 0.95304448E+02</rscale>
<asrwt>0</asrwt>
<pdfrwt beam="2">  1        1 0.14215615E-01 0.95304448E+02</pdfrwt>
<pdfrwt beam="1">  1       -1 0.37807153E-02 0.95304448E+02</pdfrwt>
<totfact> 0.91311321E+04</totfact>
</mgrwt>
</event>
<event>
 7    1  0.3607059E-009  0.1004090E+03  0.7818608E-02  0.1279438E+00
         -1   -1    0    0    0  501 -0.00000000000E+00  0.00000000000E+00  0.13625489444E+02  0.13625490377E+02  0.50400000000E-02 0.  1.
          1   -1    0    0  501    0  0.00000000000E+00 -0.00000000000E+00 -0.18498342201E+03  0.18498342208E+03  0.50400000000E-02 0. -1.
         23    2    1    2    0    0  0.00000000000E+00  0.00000000000E+00 -0.17135793256E+03  0.19860891245E+03  0.10040895903E+03 0.  0.
    9000005    2    3    3    0    0 -0.33904299597E+02  0.25634192306E+02 -0.34967950775E+02  0.55749399369E+02  0.88670514966E+01 0.  0.
         22    1    3    3    0    0  0.33904299597E+02 -0.25634192306E+02 -0.13638998179E+03  0.14285951308E+03  0.00000000000E+00 0. -1.
         22    1    4    4    0    0 -0.29221729700E+02  0.17888489393E+02 -0.29195239135E+02  0.45014103652E+02  0.00000000000E+00 0. -1.
         22    1    4    4    0    0 -0.46825698975E+01  0.77457029131E+01 -0.57727116400E+01  0.10735295717E+02  0.00000000000E+00 0. -1.
<mgrwt>
<rscale>  0 0.10040896E+03</rscale>
<asrwt>0</asrwt>
<pdfrwt beam="2">  1        1 0.28458986E-01 0.10040896E+03</pdfrwt>
<pdfrwt beam="1">  1       -1 0.20962294E-02 0.10040896E+03</pdfrwt>
<totfact> 0.89877394E+04</totfact>
</mgrwt>
</event>
<event>
 7    1  0.3607059E-009  0.9299842E+02  0.7818608E-02  0.1295749E+00
          1   -1    0    0  501    0  0.00000000000E+00  0.00000000000E+00  0.12298814259E+02  0.12298815292E+02  0.50400000000E-02 0. -1.
         -1   -1    0    0    0  501 -0.00000000000E+00 -0.00000000000E+00 -0.17580363801E+03  0.17580363808E+03  0.50400000000E-02 0.  1.
         23    2    1    2    0    0  0.00000000000E+00  0.00000000000E+00 -0.16350482375E+03  0.18810245338E+03  0.92998417061E+02 0.  0.
    9000005    2    3    3    0    0  0.78445703792E+01  0.16580173238E+02 -0.16762905853E+03  0.16930222089E+03  0.15076515004E+02 0.  0.
         22    1    3    3    0    0 -0.78445703792E+01 -0.16580173238E+02  0.41242347800E+01  0.18800232486E+02  0.00000000000E+00 0. -1.
         22    1    4    4    0    0 -0.41768899781E+01  0.57109245896E+01 -0.36880632207E+02  0.37553190298E+02  0.00000000000E+00 0. -1.
         22    1    4    4    0    0  0.12021460357E+02  0.10869248648E+02 -0.13074842633E+03  0.13174903059E+03  0.00000000000E+00 0. -1.
<mgrwt>
<rscale>  0 0.92998417E+02</rscale>
<asrwt>0</asrwt>
<pdfrwt beam="1">  1        1 0.18921255E-02 0.92998417E+02</pdfrwt>
<pdfrwt beam="2">  1       -1 0.27046712E-01 0.92998417E+02</pdfrwt>
<totfact> 0.68302508E+04</totfact>
</mgrwt>
</event>
<event>
 7    1  0.3607059E-009  0.8345891E+02  0.7818608E-02  0.1319513E+00
         -1   -1    0    0    0  501 -0.00000000000E+00  0.00000000000E+00  0.60890555673E+02  0.60890555881E+02  0.50400000000E-02 0.  1.
          1   -1    0    0  501    0  0.00000000000E+00 -0.00000000000E+00 -0.28597989091E+02  0.28597989535E+02  0.50400000000E-02 0. -1.
         23    2    1    2    0    0  0.00000000000E+00  0.00000000000E+00  0.32292566582E+02  0.89488545417E+02  0.83458911474E+02 0.  0.
    9000005    2    3    3    0    0 -0.28015919118E+02 -0.72882724835E+01 -0.13968267152E+02  0.34916800186E+02  0.13640374194E+02 0.  0.
         22    1    3    3    0    0  0.28015919118E+02  0.72882724835E+01  0.46260833734E+02  0.54571745231E+02  0.00000000000E+00 0.  1.
         22    1    4    4    0    0 -0.13709289932E+02 -0.10160632399E+02 -0.49692047128E+01  0.17772902877E+02  0.00000000000E+00 0. -1.
         22    1    4    4    0    0 -0.14306629186E+02  0.28723599155E+01 -0.89990624393E+01  0.17143897309E+02  0.00000000000E+00 0. -1.
<mgrwt>
<rscale>  0 0.83458911E+02</rscale>
<asrwt>0</asrwt>
<pdfrwt beam="2">  1        1 0.43996908E-02 0.83458911E+02</pdfrwt>
<pdfrwt beam="1">  1       -1 0.93677777E-02 0.83458911E+02</pdfrwt>
<totfact> 0.11070237E+05</totfact>
</mgrwt>
</event>
<event>
 7    1  0.3607059E-009  0.9310896E+02  0.7818608E-02  0.1295493E+00
         -1   -1    0    0    0  501 -0.00000000000E+00  0.00000000000E+00  0.14358750327E+03  0.14358750336E+03  0.50400000000E-02 0.  1.
          1   -1    0    0  501    0  0.00000000000E+00 -0.00000000000E+00 -0.15094067407E+02  0.15094068248E+02  0.50400000000E-02 0. -1.
         23    2    1    2    0    0  0.17763568394E-14  0.00000000000E+00  0.12849343586E+03  0.15868157160E+03  0.93108958255E+02 0.  0.
    9000005    2    3    3    0    0  0.80053025662E+01  0.39032374241E+02  0.10279639358E+03  0.11126903012E+03  0.15036203722E+02 0.  0.
         22    1    3    3    0    0 -0.80053025662E+01 -0.39032374241E+02  0.25697042278E+02  0.47412541483E+02  0.00000000000E+00 0. -1.
         22    1    4    4    0    0 -0.19470031074E+01  0.25780577537E+02  0.67270010499E+02  0.72067213847E+02  0.00000000000E+00 0. -1.
         22    1    4    4    0    0  0.99523056736E+01  0.13251796704E+02  0.35526383084E+02  0.39201816273E+02  0.00000000000E+00 0. -1.
<mgrwt>
<rscale>  0 0.93108958E+02</rscale>
<asrwt>0</asrwt>
<pdfrwt beam="2">  1        1 0.23221643E-02 0.93108958E+02</pdfrwt>
<pdfrwt beam="1">  1       -1 0.22090385E-01 0.93108958E+02</pdfrwt>
<totfact> 0.71542359E+04</totfact>
</mgrwt>
</event>
<event>
 7    1  0.3607059E-009  0.8991073E+02  0.7818608E-02  0.1303068E+00
         -1   -1    0    0    0  501 -0.00000000000E+00  0.00000000000E+00  0.51863963222E+02  0.51863963467E+02  0.50400000000E-02 0.  1.
          1   -1    0    0  501    0  0.00000000000E+00 -0.00000000000E+00 -0.38967031298E+02  0.38967031624E+02  0.50400000000E-02 0. -1.
         23    2    1    2    0    0  0.44408920985E-15  0.00000000000E+00  0.12896931923E+02  0.90830995091E+02  0.89910726925E+02 0.  0.
    9000005    2    3    3    0    0 -0.34191600422E+01  0.20162776672E+02 -0.33637328381E+02  0.40001224281E+02  0.70992862237E+01 0.  0.
         22    1    3    3    0    0  0.34191600422E+01 -0.20162776672E+02  0.46534260304E+02  0.50829770810E+02  0.00000000000E+00 0.  1.
         22    1    4    4    0    0 -0.19151000859E+01  0.50721278565E+01 -0.40972136045E+01  0.67956786749E+01  0.00000000000E+00 0. -1.
         22    1    4    4    0    0 -0.15040599563E+01  0.15090648816E+02 -0.29540114776E+02  0.33205545606E+02  0.00000000000E+00 0. -1.
<mgrwt>
<rscale>  0 0.89910727E+02</rscale>
<asrwt>0</asrwt>
<pdfrwt beam="2">  1        1 0.59949279E-02 0.89910727E+02</pdfrwt>
<pdfrwt beam="1">  1       -1 0.79790713E-02 0.89910727E+02</pdfrwt>
<totfact> 0.93939267E+04</totfact>
</mgrwt>
</event>
<event>
 7    1  0.3607059E-009  0.9850573E+02  0.7818608E-02  0.1283470E+00
          1   -1    0    0  501    0  0.00000000000E+00  0.00000000000E+00  0.50960340201E+03  0.50960340204E+03  0.50400000000E-02 0. -1.
         -1   -1    0    0    0  501 -0.00000000000E+00 -0.00000000000E+00 -0.47602590782E+01  0.47602617462E+01  0.50400000000E-02 0.  1.
         23    2    1    2    0    0  0.17763568394E-14  0.00000000000E+00  0.50484314293E+03  0.51436366378E+03  0.98505734113E+02 0.  0.
    9000005    2    3    3    0    0 -0.12974934326E+02 -0.35652241351E+02  0.41453907240E+03  0.41641338870E+03  0.10864460740E+02 0.  0.
         22    1    3    3    0    0  0.12974934326E+02  0.35652241351E+02  0.90304070535E+02  0.97950275085E+02  0.00000000000E+00 0.  1.
         22    1    4    4    0    0 -0.38313991279E+01 -0.25537212017E+02  0.26765914931E+03  0.26890193199E+03  0.00000000000E+00 0. -1.
         22    1    4    4    0    0 -0.91435351981E+01 -0.10115029334E+02  0.14687992309E+03  0.14751145671E+03  0.00000000000E+00 0. -1.
<mgrwt>
<rscale>  0 0.98505734E+02</rscale>
<asrwt>0</asrwt>
<pdfrwt beam="1">  1        1 0.78400519E-01 0.98505734E+02</pdfrwt>
<pdfrwt beam="2">  1       -1 0.73234780E-03 0.98505734E+02</pdfrwt>
<totfact> 0.11362369E+05</totfact>
</mgrwt>
</event>
<event>
 7    1  0.3607059E-009  0.9067740E+02  0.7818608E-02  0.1301220E+00
          1   -1    0    0  501    0  0.00000000000E+00  0.00000000000E+00  0.24679527063E+02  0.24679527578E+02  0.50400000000E-02 0. -1.
         -1   -1    0    0    0  501 -0.00000000000E+00 -0.00000000000E+00 -0.83291616518E+02  0.83291616670E+02  0.50400000000E-02 0.  1.
         23    2    1    2    0    0 -0.13322676296E-14  0.17763568394E-14 -0.58612089455E+02  0.10797114425E+03  0.90677400492E+02 0.  0.
    9000005    2    3    3    0    0  0.39126674900E+01 -0.14390158985E+02  0.19473163941E+02  0.28474650990E+02  0.14464300627E+02 0.  0.
         22    1    3    3    0    0 -0.39126674900E+01  0.14390158985E+02 -0.78085253395E+02  0.79496493258E+02  0.00000000000E+00 0.  1.
         22    1    4    4    0    0  0.85591570537E+01 -0.80726647110E+01  0.16092475564E+02  0.19934764980E+02  0.00000000000E+00 0. -1.
         22    1    4    4    0    0 -0.46464895637E+01 -0.63174942740E+01  0.33806883762E+01  0.85398860100E+01  0.00000000000E+00 0. -1.
<mgrwt>
<rscale>  0 0.90677400E+02</rscale>
<asrwt>0</asrwt>
<pdfrwt beam="1">  1        1 0.37968504E-02 0.90677400E+02</pdfrwt>
<pdfrwt beam="2">  1       -1 0.12814095E-01 0.90677400E+02</pdfrwt>
<totfact> 0.85262358E+04</totfact>
</mgrwt>
</event>
<event>
 7    1  0.3607059E-009  0.9178081E+02  0.7818608E-02  0.1298596E+00
         -1   -1    0    0    0  501 -0.00000000000E+00  0.00000000000E+00  0.26290793855E+01  0.26290842164E+01  0.50400000000E-02 0.  1.
          1   -1    0    0  501    0  0.00000000000E+00 -0.00000000000E+00 -0.80101312518E+03  0.80101312520E+03  0.50400000000E-02 0. -1.
         23    2    1    2    0    0  0.00000000000E+00  0.00000000000E+00 -0.79838404580E+03  0.80364220941E+03  0.91780805019E+02 0.  0.
    9000005    2    3    3    0    0 -0.23489372015E+02  0.13235909713E+02 -0.72405382162E+03  0.72457311223E+03  0.50317451648E+01 0.  0.
         22    1    3    3    0    0  0.23489372015E+02 -0.13235909713E+02 -0.74330224178E+02  0.79069097187E+02  0.00000000000E+00 0.  1.
         22    1    4    4    0    0 -0.16177729380E+02  0.65422068211E+01 -0.48505770482E+03  0.48537150349E+03  0.00000000000E+00 0. -1.
         22    1    4    4    0    0 -0.73116426347E+01  0.66937028915E+01 -0.23899611680E+03  0.23920160874E+03  0.00000000000E+00 0. -1.
<mgrwt>
<rscale>  0 0.91780805E+02</rscale>
<asrwt>0</asrwt>
<pdfrwt beam="2">  1        1 0.12323259E+00 0.91780805E+02</pdfrwt>
<pdfrwt beam="1">  1       -1 0.40447476E-03 0.91780805E+02</pdfrwt>
<totfact> 0.13883737E+05</totfact>
</mgrwt>
</event>
<event>
 7    1  0.3607059E-009  0.9133346E+02  0.7818608E-02  0.1299654E+00
         -1   -1    0    0    0  501 -0.00000000000E+00  0.00000000000E+00  0.13176725954E+03  0.13176725964E+03  0.50400000000E-02 0.  1.
          1   -1    0    0  501    0  0.00000000000E+00 -0.00000000000E+00 -0.15826771449E+02  0.15826772251E+02  0.50400000000E-02 0. -1.
         23    2    1    2    0    0  0.00000000000E+00  0.00000000000E+00  0.11594048809E+03  0.14759403189E+03  0.91333463036E+02 0.  0.
    9000005    2    3    3    0    0 -0.94937689461E+01  0.21919733553E+02  0.12061449601E+03  0.12325368025E+03  0.85443947139E+01 0.  0.
         22    1    3    3    0    0  0.94937689461E+01 -0.21919733553E+02 -0.46740079135E+01  0.24340351637E+02  0.00000000000E+00 0. -1.
         22    1    4    4    0    0 -0.62341704611E+01  0.14948828386E+02  0.59813386722E+02  0.61967520384E+02  0.00000000000E+00 0. -1.
         22    1    4    4    0    0 -0.32595984850E+01  0.69709051674E+01  0.60801109286E+02  0.61286159869E+02  0.00000000000E+00 0. -1.
<mgrwt>
<rscale>  0 0.91333463E+02</rscale>
<asrwt>0</asrwt>
<pdfrwt beam="2">  1        1 0.24348880E-02 0.91333463E+02</pdfrwt>
<pdfrwt beam="1">  1       -1 0.20271886E-01 0.91333463E+02</pdfrwt>
<totfact> 0.76658761E+04</totfact>
</mgrwt>
</event>
<event>
 7    1  0.3607059E-009  0.9068705E+02  0.7818608E-02  0.1301196E+00
          1   -1    0    0  501    0  0.00000000000E+00  0.00000000000E+00  0.11038861993E+02  0.11038863143E+02  0.50400000000E-02 0. -1.
         -1   -1    0    0    0  501 -0.00000000000E+00 -0.00000000000E+00 -0.18625425415E+03  0.18625425422E+03  0.50400000000E-02 0.  1.
         23    2    1    2    0    0  0.35527136788E-14  0.00000000000E+00 -0.17521539216E+03  0.19729311737E+03  0.90687047088E+02 0.  0.
    9000005    2    3    3    0    0  0.22484186369E+02 -0.25040634410E+02 -0.15221466459E+03  0.15653032211E+03  0.14137383616E+02 0.  0.
         22    1    3    3    0    0 -0.22484186369E+02  0.25040634410E+02 -0.23000727575E+02  0.40762795259E+02  0.00000000000E+00 0. -1.
         22    1    4    4    0    0  0.15179273010E+01  0.10204686770E+00 -0.10191070660E+01  0.18311461073E+01  0.00000000000E+00 0.  1.
         22    1    4    4    0    0  0.20966259068E+02 -0.25142681278E+02 -0.15119555752E+03  0.15469917600E+03  0.00000000000E+00 0.  1.
<mgrwt>
<rscale>  0 0.90687047E+02</rscale>
<asrwt>0</asrwt>
<pdfrwt beam="1">  1        1 0.16982867E-02 0.90687047E+02</pdfrwt>
<pdfrwt beam="2">  1       -1 0.28654498E-01 0.90687047E+02</pdfrwt>
<totfact> 0.71816227E+04</totfact>
</mgrwt>
</event>
<event>
 7    1  0.3607059E-009  0.9116026E+02  0.7818608E-02  0.1300066E+00
          1   -1    0    0  501    0  0.00000000000E+00  0.00000000000E+00  0.48521651736E+03  0.48521651738E+03  0.50400000000E-02 0. -1.
         -1   -1    0    0    0  501 -0.00000000000E+00 -0.00000000000E+00 -0.42816918380E+01  0.42816948043E+01  0.50400000000E-02 0.  1.
         23    2    1    2    0    0  0.00000000000E+00  0.00000000000E+00  0.48093482552E+03  0.48949821219E+03  0.91160261835E+02 0.  0.
    9000005    2    3    3    0    0 -0.36951664160E+02 -0.57963343462E+01  0.37557569596E+03  0.37769674011E+03  0.14096138552E+02 0.  0.
         22    1    3    3    0    0  0.36951664160E+02  0.57963343462E+01  0.10535912956E+03  0.11180147207E+03  0.00000000000E+00 0.  1.
         22    1    4    4    0    0 -0.70206282437E+01  0.43745769797E+01  0.88520505753E+02  0.88906164485E+02  0.00000000000E+00 0. -1.
         22    1    4    4    0    0 -0.29931035916E+02 -0.10170911326E+02  0.28705519020E+03  0.28879057563E+03  0.00000000000E+00 0. -1.
<mgrwt>
<rscale>  0 0.91160262E+02</rscale>
<asrwt>0</asrwt>
<pdfrwt beam="1">  1        1 0.74648647E-01 0.91160262E+02</pdfrwt>
<pdfrwt beam="2">  1       -1 0.65872247E-03 0.91160262E+02</pdfrwt>
<totfact> 0.13882348E+05</totfact>
</mgrwt>
</event>
<event>
 7    1  0.3607059E-009  0.8708975E+02  0.7818608E-02  0.1310056E+00
          1   -1    0    0  501    0  0.00000000000E+00  0.00000000000E+00  0.19749882093E+03  0.19749882099E+03  0.50400000000E-02 0. -1.
         -1   -1    0    0    0  501 -0.00000000000E+00 -0.00000000000E+00 -0.96008469684E+01  0.96008482913E+01  0.50400000000E-02 0.  1.
         23    2    1    2    0    0  0.00000000000E+00  0.71054273576E-14  0.18789797396E+03  0.20709966928E+03  0.87089749105E+02 0.  0.
    9000005    2    3    3    0    0 -0.11310903027E+02 -0.40725020046E+02  0.78645077129E+02  0.89955914644E+02  0.10979737602E+02 0.  0.
         22    1    3    3    0    0  0.11310903027E+02  0.40725020046E+02  0.10925289683E+03  0.11714375464E+03  0.00000000000E+00 0. -1.
         22    1    4    4    0    0 -0.91179255377E+01 -0.20179070364E+02  0.31735290255E+02  0.38697029529E+02  0.00000000000E+00 0. -1.
         22    1    4    4    0    0 -0.21929774897E+01 -0.20545949683E+02  0.46909786874E+02  0.51258885115E+02  0.00000000000E+00 0. -1.
<mgrwt>
<rscale>  0 0.87089749E+02</rscale>
<asrwt>0</asrwt>
<pdfrwt beam="1">  1        1 0.30384432E-01 0.87089749E+02</pdfrwt>
<pdfrwt beam="2">  1       -1 0.14770536E-02 0.87089749E+02</pdfrwt>
<totfact> 0.13352830E+05</totfact>
</mgrwt>
</event>
<event>
 7    1  0.3607059E-009  0.8630608E+02  0.7818608E-02  0.1312052E+00
         -1   -1    0    0    0  501 -0.00000000000E+00  0.00000000000E+00  0.59579778581E+02  0.59579778794E+02  0.50400000000E-02 0.  1.
          1   -1    0    0  501    0  0.00000000000E+00 -0.00000000000E+00 -0.31255319335E+02  0.31255319742E+02  0.50400000000E-02 0. -1.
         23    2    1    2    0    0  0.00000000000E+00  0.00000000000E+00  0.28324459246E+02  0.90835098536E+02  0.86306083994E+02 0.  0.
    9000005    2    3    3    0    0  0.33285168340E+02  0.13171636178E+02  0.37148445776E+02  0.53966993495E+02  0.15844081933E+02 0.  0.
         22    1    3    3    0    0 -0.33285168340E+02 -0.13171636178E+02 -0.88239865303E+01  0.36868105041E+02  0.00000000000E+00 0.  1.
         22    1    4    4    0    0  0.16369496233E+01  0.56622736646E+01  0.99604692260E+01  0.11573758868E+02  0.00000000000E+00 0. -1.
         22    1    4    4    0    0  0.31648218717E+02  0.75093625129E+01  0.27187976550E+02  0.42393234627E+02  0.00000000000E+00 0. -1.
<mgrwt>
<rscale>  0 0.86306084E+02</rscale>
<asrwt>0</asrwt>
<pdfrwt beam="2">  1        1 0.48085107E-02 0.86306084E+02</pdfrwt>
<pdfrwt beam="1">  1       -1 0.91661198E-02 0.86306084E+02</pdfrwt>
<totfact> 0.10201731E+05</totfact>
</mgrwt>
</event>
<event>
 6    1  0.4817628E-009  0.2032999E+03  0.7818608E-02  0.1146984E+00
          1   -1    0    0  501    0  0.00000000000E+00  0.00000000000E+00  0.97992359669E+03  0.97992359670E+03  0.50400000000E-02 0. -1.
         -1   -1    0    0    0  501 -0.00000000000E+00 -0.00000000000E+00 -0.10544406967E+02  0.10544408171E+02  0.50400000000E-02 0.  1.
    9000005    2    1    2    0    0  0.92570878289E+02 -0.38871149222E+02  0.43088309301E+03  0.44269215662E+03  0.15354867201E+02 0.  0.
         22    1    1    2    0    0 -0.92570878289E+02  0.38871149222E+02  0.53849609671E+03  0.54777584825E+03  0.00000000000E+00 0. -1.
         22    1    3    3    0    0  0.54318165975E+02 -0.25171081764E+02  0.28726636263E+03  0.29343825519E+03  0.00000000000E+00 0. -1.
         22    1    3    3    0    0  0.38252712314E+02 -0.13700067457E+02  0.14361673038E+03  0.14925390143E+03  0.00000000000E+00 0. -1.
<mgrwt>
<rscale>  0 0.20329991E+03</rscale>
<asrwt>0</asrwt>
<pdfrwt beam="1">  1        1 0.15075743E+00 0.20329991E+03</pdfrwt>
<pdfrwt beam="2">  1       -1 0.16222170E-02 0.20329991E+03</pdfrwt>
<totfact> 0.15159229E+04</totfact>
</mgrwt>
</event>
<event>
 7    1  0.3607059E-009  0.9063412E+02  0.7818608E-02  0.1301323E+00
          1   -1    0    0  501    0  0.00000000000E+00  0.00000000000E+00  0.66882426031E+03  0.66882426033E+03  0.50400000000E-02 0. -1.
         -1   -1    0    0    0  501 -0.00000000000E+00 -0.00000000000E+00 -0.30705141735E+01  0.30705183099E+01  0.50400000000E-02 0.  1.
         23    2    1    2    0    0  0.00000000000E+00  0.00000000000E+00  0.66575374614E+03  0.67189477864E+03  0.90634116466E+02 0.  0.
    9000005    2    3    3    0    0 -0.11759044574E+01  0.14856735960E+02  0.65013435087E+03  0.65030610422E+03  0.11178775178E+01 0.  0.
         22    1    3    3    0    0  0.11759044574E+01 -0.14856735960E+02  0.15619395267E+02  0.21588674419E+02  0.00000000000E+00 0.  1.
         22    1    4    4    0    0 -0.11144603702E+01  0.13696650284E+02  0.58487549888E+03  0.58503691289E+03  0.00000000000E+00 0.  1.
         22    1    4    4    0    0 -0.61444087111E-01  0.11600856755E+01  0.65258851993E+02  0.65269191335E+02  0.00000000000E+00 0.  1.
<mgrwt>
<rscale>  0 0.90634116E+02</rscale>
<asrwt>0</asrwt>
<pdfrwt beam="1">  1        1 0.10289611E+00 0.90634116E+02</pdfrwt>
<pdfrwt beam="2">  1       -1 0.47238680E-03 0.90634116E+02</pdfrwt>
<totfact> 0.14442378E+05</totfact>
</mgrwt>
</event>
<event>
 7    1  0.3607059E-009  0.9354848E+02  0.7818608E-02  0.1294479E+00
          1   -1    0    0  501    0  0.00000000000E+00  0.00000000000E+00  0.99698100520E+02  0.99698100647E+02  0.50400000000E-02 0. -1.
         -1   -1    0    0    0  501 -0.00000000000E+00 -0.00000000000E+00 -0.21944545574E+02  0.21944546153E+02  0.50400000000E-02 0.  1.
         23    2    1    2    0    0  0.00000000000E+00  0.00000000000E+00  0.77753554946E+02  0.12164264680E+03  0.93548480553E+02 0.  0.
    9000005    2    3    3    0    0 -0.19950547225E+02  0.18642013977E+02  0.87934120032E+02  0.92501731832E+02  0.88663355730E+01 0.  0.
         22    1    3    3    0    0  0.19950547225E+02 -0.18642013977E+02 -0.10180565086E+02  0.29140914968E+02  0.00000000000E+00 0.  1.
         22    1    4    4    0    0 -0.13619243864E+02  0.16330339816E+02  0.56884878887E+02  0.60729344208E+02  0.00000000000E+00 0.  1.
         22    1    4    4    0    0 -0.63313033607E+01  0.23116741605E+01  0.31049241145E+02  0.31772387624E+02  0.00000000000E+00 0.  1.
<mgrwt>
<rscale>  0 0.93548481E+02</rscale>
<asrwt>0</asrwt>
<pdfrwt beam="1">  1        1 0.15338169E-01 0.93548481E+02</pdfrwt>
<pdfrwt beam="2">  1       -1 0.33760841E-02 0.93548481E+02</pdfrwt>
<totfact> 0.97323003E+04</totfact>
</mgrwt>
</event>
<event>
 7    1  0.3607059E-009  0.9318691E+02  0.7818608E-02  0.1295313E+00
         -1   -1    0    0    0  501 -0.00000000000E+00  0.00000000000E+00  0.68867617772E+02  0.68867617956E+02  0.50400000000E-02 0.  1.
          1   -1    0    0  501    0  0.00000000000E+00 -0.00000000000E+00 -0.31523522335E+02  0.31523522738E+02  0.50400000000E-02 0. -1.
         23    2    1    2    0    0  0.00000000000E+00  0.00000000000E+00  0.37344095437E+02  0.10039114069E+03  0.93186907160E+02 0.  0.
    9000005    2    3    3    0    0 -0.12056052651E+02  0.23490481698E+02 -0.20592147455E+02  0.36722000789E+02  0.15077057711E+02 0.  0.
         22    1    3    3    0    0  0.12056052651E+02 -0.23490481698E+02  0.57936242892E+02  0.63669139906E+02  0.00000000000E+00 0.  1.
         22    1    4    4    0    0 -0.11968829537E+02  0.15457541643E+02 -0.66843882841E+01  0.20660820915E+02  0.00000000000E+00 0.  1.
         22    1    4    4    0    0 -0.87223113391E-01  0.80329400548E+01 -0.13907759171E+02  0.16061179874E+02  0.00000000000E+00 0.  1.
<mgrwt>
<rscale>  0 0.93186907E+02</rscale>
<asrwt>0</asrwt>
<pdfrwt beam="2">  1        1 0.48497728E-02 0.93186907E+02</pdfrwt>
<pdfrwt beam="1">  1       -1 0.10595018E-01 0.93186907E+02</pdfrwt>
<totfact> 0.82072713E+04</totfact>
</mgrwt>
</event>
<event>
 7    1  0.3607059E-009  0.8954056E+02  0.7818608E-02  0.1303968E+00
         -1   -1    0    0    0  501 -0.00000000000E+00  0.00000000000E+00  0.13537012411E+03  0.13537012421E+03  0.50400000000E-02 0.  1.
          1   -1    0    0  501    0  0.00000000000E+00 -0.00000000000E+00 -0.14806648163E+02  0.14806649021E+02  0.50400000000E-02 0. -1.
         23    2    1    2    0    0  0.00000000000E+00  0.88817841970E-15  0.12056347595E+03  0.15017677323E+03  0.89540557761E+02 0.  0.
    9000005    2    3    3    0    0 -0.32764583401E+02  0.62348660825E+01  0.13261259510E+02  0.37810598899E+02  0.11890706657E+02 0.  0.
         22    1    3    3    0    0  0.32764583401E+02 -0.62348660825E+01  0.10730221644E+03  0.11236617433E+03  0.00000000000E+00 0.  1.
         22    1    4    4    0    0 -0.22944060753E+02  0.98109869809E+01  0.95959777505E+01  0.26735148744E+02  0.00000000000E+00 0. -1.
         22    1    4    4    0    0 -0.98205226478E+01 -0.35761208984E+01  0.36652817600E+01  0.11075450155E+02  0.00000000000E+00 0. -1.
<mgrwt>
<rscale>  0 0.89540558E+02</rscale>
<asrwt>0</asrwt>
<pdfrwt beam="2">  1        1 0.22779461E-02 0.89540558E+02</pdfrwt>
<pdfrwt beam="1">  1       -1 0.20826172E-01 0.89540558E+02</pdfrwt>
<totfact> 0.80222237E+04</totfact>
</mgrwt>
</event>
<event>
 7    1  0.3607059E-009  0.1019385E+03  0.7818608E-02  0.1276272E+00
         -1   -1    0    0    0  501 -0.00000000000E+00  0.00000000000E+00  0.18787297377E+03  0.18787297383E+03  0.50400000000E-02 0.  1.
          1   -1    0    0  501    0  0.00000000000E+00 -0.00000000000E+00 -0.13827774796E+02  0.13827775715E+02  0.50400000000E-02 0. -1.
         23    2    1    2    0    0  0.00000000000E+00  0.00000000000E+00  0.17404519897E+03  0.20170074955E+03  0.10193851620E+03 0.  0.
    9000005    2    3    3    0    0 -0.35496417054E+02 -0.34933788910E+02  0.10393571892E+03  0.11570246803E+03  0.10201088643E+02 0.  0.
         22    1    3    3    0    0  0.35496417054E+02  0.34933788910E+02  0.70109480047E+02  0.85998281516E+02  0.00000000000E+00 0. -1.
         22    1    4    4    0    0 -0.11168610797E+02 -0.56652509495E+01  0.30998630093E+02  0.33432738493E+02  0.00000000000E+00 0.  1.
         22    1    4    4    0    0 -0.24327806257E+02 -0.29268537960E+02  0.72937088830E+02  0.82269729540E+02  0.00000000000E+00 0.  1.
<mgrwt>
<rscale>  0 0.10193852E+03</rscale>
<asrwt>0</asrwt>
<pdfrwt beam="2">  1        1 0.21273502E-02 0.10193852E+03</pdfrwt>
<pdfrwt beam="1">  1       -1 0.28903533E-01 0.10193852E+03</pdfrwt>
<totfact> 0.52786267E+04</totfact>
</mgrwt>
</event>
<event>
 7    1  0.3607059E-009  0.9352536E+02  0.7818608E-02  0.1294532E+00
         -1   -1    0    0    0  501 -0.00000000000E+00  0.00000000000E+00  0.12774910751E+01  0.12775010171E+01  0.50400000000E-02 0.  1.
          1   -1    0    0  501    0  0.00000000000E+00 -0.00000000000E+00 -0.17117457036E+04  0.17117457036E+04  0.50400000000E-02 0. -1.
         23    2    1    2    0    0  0.17763568394E-14 -0.17763568394E-14 -0.17104682125E+04  0.17130232046E+04  0.93525362998E+02 0.  0.
    9000005    2    3    3    0    0 -0.14970380948E+02  0.10680910003E+02 -0.16426453309E+04  0.16427513225E+04  0.31670700960E+01 0.  0.
         22    1    3    3    0    0  0.14970380948E+02 -0.10680910003E+02 -0.67822881638E+02  0.70271882129E+02  0.00000000000E+00 0.  1.
         22    1    4    4    0    0 -0.25719570917E+00  0.57488847444E+00 -0.11480073067E+03  0.11480245820E+03  0.00000000000E+00 0. -1.
         22    1    4    4    0    0 -0.14713185239E+02  0.10106021529E+02 -0.15278446002E+04  0.15279488643E+04  0.00000000000E+00 0. -1.
<mgrwt>
<rscale>  0 0.93525363E+02</rscale>
<asrwt>0</asrwt>
<pdfrwt beam="2">  1        1 0.26334366E+00 0.93525363E+02</pdfrwt>
<pdfrwt beam="1">  1       -1 0.19653922E-03 0.93525363E+02</pdfrwt>
<totfact> 0.91109613E+04</totfact>
</mgrwt>
</event>
<event>
 7    1  0.3607059E-009  0.8785052E+02  0.7818608E-02  0.1308142E+00
          1   -1    0    0  501    0  0.00000000000E+00  0.00000000000E+00  0.57959978662E+02  0.57959978881E+02  0.50400000000E-02 0. -1.
         -1   -1    0    0    0  501 -0.00000000000E+00 -0.00000000000E+00 -0.33288981157E+02  0.33288981538E+02  0.50400000000E-02 0.  1.
         23    2    1    2    0    0  0.00000000000E+00  0.00000000000E+00  0.24670997505E+02  0.91248960420E+02  0.87850524528E+02 0.  0.
    9000005    2    3    3    0    0 -0.31775834775E+02  0.27244566075E+02  0.25045080708E+02  0.49390747432E+02  0.77601422604E+01 0.  0.
         22    1    3    3    0    0  0.31775834775E+02 -0.27244566075E+02 -0.37408320291E+00  0.41858212988E+02  0.00000000000E+00 0.  1.
         22    1    4    4    0    0 -0.30408153054E+02  0.24489415320E+02  0.21074246256E+02  0.44367906082E+02  0.00000000000E+00 0.  1.
         22    1    4    4    0    0 -0.13676817212E+01  0.27551507551E+01  0.39708344524E+01  0.50228413495E+01  0.00000000000E+00 0.  1.
<mgrwt>
<rscale>  0 0.87850525E+02</rscale>
<asrwt>0</asrwt>
<pdfrwt beam="1">  1        1 0.89169198E-02 0.87850525E+02</pdfrwt>
<pdfrwt beam="2">  1       -1 0.51213818E-02 0.87850525E+02</pdfrwt>
<totfact> 0.10625389E+05</totfact>
</mgrwt>
</event>
<event>
 7    1  0.3607059E-009  0.8930130E+02  0.7818608E-02  0.1304553E+00
          1   -1    0    0  501    0  0.00000000000E+00  0.00000000000E+00  0.99422798548E+02  0.99422798676E+02  0.50400000000E-02 0. -1.
         -1   -1    0    0    0  501 -0.00000000000E+00 -0.00000000000E+00 -0.20052547139E+02  0.20052547772E+02  0.50400000000E-02 0.  1.
         23    2    1    2    0    0  0.49960036108E-15  0.00000000000E+00  0.79370251410E+02  0.11947534645E+03  0.89301296744E+02 0.  0.
    9000005    2    3    3    0    0  0.28422406395E+00 -0.41821224285E+02  0.56914852578E+02  0.72005982426E+02  0.14016614326E+02 0.  0.
         22    1    3    3    0    0 -0.28422406395E+00  0.41821224285E+02  0.22455398831E+02  0.47469364022E+02  0.00000000000E+00 0.  1.
         22    1    4    4    0    0  0.61588533460E+01 -0.11738544426E+02  0.20444698024E+02  0.24366176907E+02  0.00000000000E+00 0. -1.
         22    1    4    4    0    0 -0.58746292820E+01 -0.30082679858E+02  0.36470154555E+02  0.47639805519E+02  0.00000000000E+00 0. -1.
<mgrwt>
<rscale>  0 0.89301297E+02</rscale>
<asrwt>0</asrwt>
<pdfrwt beam="1">  1        1 0.15295815E-01 0.89301297E+02</pdfrwt>
<pdfrwt beam="2">  1       -1 0.30850073E-02 0.89301297E+02</pdfrwt>
<totfact> 0.11042237E+05</totfact>
</mgrwt>
</event>
<event>
 7    1  0.3607059E-009  0.9044098E+02  0.7818608E-02  0.1301787E+00
         -1   -1    0    0    0  501 -0.00000000000E+00  0.00000000000E+00  0.48723295173E+01  0.48723321241E+01  0.50400000000E-02 0.  1.
          1   -1    0    0  501    0  0.00000000000E+00 -0.00000000000E+00 -0.41969497598E+03  0.41969497601E+03  0.50400000000E-02 0. -1.
         23    2    1    2    0    0  0.35527136788E-14  0.00000000000E+00 -0.41482264646E+03  0.42456730814E+03  0.90440981409E+02 0.  0.
    9000005    2    3    3    0    0 -0.25451177794E+02  0.13116659734E+02 -0.37086266483E+03  0.37210504361E+03  0.10160615287E+02 0.  0.
         22    1    3    3    0    0  0.25451177794E+02 -0.13116659734E+02 -0.43959981632E+02  0.52462264522E+02  0.00000000000E+00 0.  1.
         22    1    4    4    0    0 -0.67321341379E+01 -0.94677859279E+00 -0.68136203952E+02  0.68474523064E+02  0.00000000000E+00 0.  1.
         22    1    4    4    0    0 -0.18719043656E+02  0.14063438327E+02 -0.30272646088E+03  0.30363052055E+03  0.00000000000E+00 0.  1.
<mgrwt>
<rscale>  0 0.90440981E+02</rscale>
<asrwt>0</asrwt>
<pdfrwt beam="2">  1        1 0.64568430E-01 0.90440981E+02</pdfrwt>
<pdfrwt beam="1">  1       -1 0.74958969E-03 0.90440981E+02</pdfrwt>
<totfact> 0.13888559E+05</totfact>
</mgrwt>
</event>
<event>
 7    1  0.3607059E-009  0.9071853E+02  0.7818608E-02  0.1301121E+00
          1   -1    0    0  501    0  0.00000000000E+00  0.00000000000E+00  0.40096673318E+02  0.40096673635E+02  0.50400000000E-02 0. -1.
         -1   -1    0    0    0  501 -0.00000000000E+00 -0.00000000000E+00 -0.51312564027E+02  0.51312564275E+02  0.50400000000E-02 0.  1.
         23    2    1    2    0    0  0.00000000000E+00  0.00000000000E+00 -0.11215890709E+02  0.91409237910E+02  0.90718534880E+02 0.  0.
    9000005    2    3    3    0    0 -0.41655767177E+02  0.63746643219E+01 -0.18753163902E+02  0.48599779007E+02  0.15310717776E+02 0.  0.
         22    1    3    3    0    0  0.41655767177E+02 -0.63746643219E+01  0.75372731932E+01  0.42809458903E+02  0.00000000000E+00 0. -1.
         22    1    4    4    0    0 -0.99014484929E+01  0.82453518967E+01 -0.71800122260E+01  0.14750494423E+02  0.00000000000E+00 0.  1.
         22    1    4    4    0    0 -0.31754318685E+02 -0.18706875748E+01 -0.11573151677E+02  0.33849284584E+02  0.00000000000E+00 0.  1.
<mgrwt>
<rscale>  0 0.90718535E+02</rscale>
<asrwt>0</asrwt>
<pdfrwt beam="1">  1        1 0.61687190E-02 0.90718535E+02</pdfrwt>
<pdfrwt beam="2">  1       -1 0.78942407E-02 0.90718535E+02</pdfrwt>
<totfact> 0.91996039E+04</totfact>
</mgrwt>
</event>
<event>
 7    1  0.3607059E-009  0.9111973E+02  0.7818608E-02  0.1300163E+00
          1   -1    0    0  501    0  0.00000000000E+00  0.00000000000E+00  0.13523265647E+03  0.13523265656E+03  0.50400000000E-02 0. -1.
         -1   -1    0    0    0  501 -0.00000000000E+00 -0.00000000000E+00 -0.15349112166E+02  0.15349112993E+02  0.50400000000E-02 0.  1.
         23    2    1    2    0    0  0.00000000000E+00  0.00000000000E+00  0.11988354430E+03  0.15058176956E+03  0.91119729632E+02 0.  0.
    9000005    2    3    3    0    0 -0.20685951526E+02  0.22551232697E+01  0.12676756999E+03  0.12866410588E+03  0.71722498935E+01 0.  0.
         22    1    3    3    0    0  0.20685951526E+02 -0.22551232697E+01 -0.68840256864E+01  0.21917663680E+02  0.00000000000E+00 0.  1.
         22    1    4    4    0    0 -0.13953810681E+02 -0.14587267495E+01  0.71411334543E+02  0.72776475715E+02  0.00000000000E+00 0.  1.
         22    1    4    4    0    0 -0.67321408458E+01  0.37138500192E+01  0.55356235448E+02  0.55887630163E+02  0.00000000000E+00 0.  1.
<mgrwt>
<rscale>  0 0.91119730E+02</rscale>
<asrwt>0</asrwt>
<pdfrwt beam="1">  1        1 0.20805023E-01 0.91119730E+02</pdfrwt>
<pdfrwt beam="2">  1       -1 0.23614020E-02 0.91119730E+02</pdfrwt>
<totfact> 0.11022725E+05</totfact>
</mgrwt>
</event>
<event>
 7    1  0.3607059E-009  0.8948962E+02  0.7818608E-02  0.1304092E+00
         -1   -1    0    0    0  501 -0.00000000000E+00  0.00000000000E+00  0.24728170243E+02  0.24728170756E+02  0.50400000000E-02 0.  1.
          1   -1    0    0  501    0  0.00000000000E+00 -0.00000000000E+00 -0.80964265250E+02  0.80964265407E+02  0.50400000000E-02 0. -1.
         23    2    1    2    0    0  0.00000000000E+00  0.00000000000E+00 -0.56236095007E+02  0.10569243616E+03  0.89489623312E+02 0.  0.
    9000005    2    3    3    0    0 -0.36223051902E+02  0.50100734770E+01 -0.20973369160E+00  0.38788299613E+02  0.12933594754E+02 0.  0.
         22    1    3    3    0    0  0.36223051902E+02 -0.50100734770E+01 -0.56026361316E+02  0.66904136551E+02  0.00000000000E+00 0. -1.
         22    1    4    4    0    0 -0.15300042849E+02  0.84281032697E+01 -0.16093790860E+01  0.17541788306E+02  0.00000000000E+00 0. -1.
         22    1    4    4    0    0 -0.20923009053E+02 -0.34180297927E+01  0.13996453944E+01  0.21246511307E+02  0.00000000000E+00 0. -1.
<mgrwt>
<rscale>  0 0.89489623E+02</rscale>
<asrwt>0</asrwt>
<pdfrwt beam="2">  1        1 0.12456041E-01 0.89489623E+02</pdfrwt>
<pdfrwt beam="1">  1       -1 0.38043340E-02 0.89489623E+02</pdfrwt>
<totfact> 0.10623129E+05</totfact>
</mgrwt>
</event>
<event>
 7    1  0.3607059E-009  0.9199059E+02  0.7818608E-02  0.1298102E+00
          1   -1    0    0  501    0  0.00000000000E+00  0.00000000000E+00  0.10252485797E+04  0.10252485797E+04  0.50400000000E-02 0. -1.
         -1   -1    0    0    0  501 -0.00000000000E+00 -0.00000000000E+00 -0.20634646463E+01  0.20634708013E+01  0.50400000000E-02 0.  1.
         23    2    1    2    0    0  0.17763568394E-14 -0.17763568394E-14  0.10231851150E+04  0.10273120505E+04  0.91990594428E+02 0.  0.
    9000005    2    3    3    0    0  0.92431043109E+01 -0.15954294698E+02  0.98089808677E+03  0.98117998728E+03  0.14599189151E+02 0.  0.
         22    1    3    3    0    0 -0.92431043109E+01  0.15954294698E+02  0.42287028280E+02  0.46132063225E+02  0.00000000000E+00 0.  1.
         22    1    4    4    0    0  0.58728335483E+01 -0.16609314735E+02  0.58068573749E+03  0.58095291138E+03  0.00000000000E+00 0.  1.
         22    1    4    4    0    0  0.33702707626E+01  0.65502003767E+00  0.40021234927E+03  0.40022707590E+03  0.00000000000E+00 0.  1.
<mgrwt>
<rscale>  0 0.91990594E+02</rscale>
<asrwt>0</asrwt>
<pdfrwt beam="1">  1        1 0.15773067E+00 0.91990594E+02</pdfrwt>
<pdfrwt beam="2">  1       -1 0.31745633E-03 0.91990594E+02</pdfrwt>
<totfact> 0.13193851E+05</totfact>
</mgrwt>
</event>
<event>
 7    1  0.3607059E-009  0.9009614E+02  0.7818608E-02  0.1302619E+00
          1   -1    0    0  501    0  0.00000000000E+00  0.00000000000E+00  0.83437174883E+02  0.83437175035E+02  0.50400000000E-02 0. -1.
         -1   -1    0    0    0  501 -0.00000000000E+00 -0.00000000000E+00 -0.24321637756E+02  0.24321638278E+02  0.50400000000E-02 0.  1.
         23    2    1    2    0    0 -0.17763568394E-14  0.00000000000E+00  0.59115537127E+02  0.10775881331E+03  0.90096143740E+02 0.  0.
    9000005    2    3    3    0    0 -0.89018335592E+01  0.37491473962E+02  0.35890910716E+01  0.40171540309E+02  0.10771156645E+02 0.  0.
         22    1    3    3    0    0  0.89018335592E+01 -0.37491473962E+02  0.55526446055E+02  0.67587273004E+02  0.00000000000E+00 0. -1.
         22    1    4    4    0    0 -0.91197681143E+01  0.27481051610E+02  0.66359026998E+01  0.29705446852E+02  0.00000000000E+00 0.  1.
         22    1    4    4    0    0  0.21793455514E+00  0.10010422353E+02 -0.30468116283E+01  0.10466093457E+02  0.00000000000E+00 0.  1.
<mgrwt>
<rscale>  0 0.90096144E+02</rscale>
<asrwt>0</asrwt>
<pdfrwt beam="1">  1        1 0.12836489E-01 0.90096144E+02</pdfrwt>
<pdfrwt beam="2">  1       -1 0.37417905E-02 0.90096144E+02</pdfrwt>
<totfact> 0.10478241E+05</totfact>
</mgrwt>
</event>
<event>
 7    1  0.3607059E-009  0.8944192E+02  0.7818608E-02  0.1304209E+00
         -1   -1    0    0    0  501 -0.00000000000E+00  0.00000000000E+00  0.19271574475E+02  0.19271575134E+02  0.50400000000E-02 0.  1.
          1   -1    0    0  501    0  0.00000000000E+00 -0.00000000000E+00 -0.10377793591E+03  0.10377793603E+03  0.50400000000E-02 0. -1.
         23    2    1    2    0    0  0.71054273576E-14  0.00000000000E+00 -0.84506361433E+02  0.12304951116E+03  0.89441920122E+02 0.  0.
    9000005    2    3    3    0    0  0.37981068322E+02 -0.20751137724E+02 -0.40903134963E+02  0.61613262693E+02  0.15810010187E+02 0.  0.
         22    1    3    3    0    0 -0.37981068322E+02  0.20751137724E+02 -0.43603226470E+02  0.61436248472E+02  0.00000000000E+00 0. -1.
         22    1    4    4    0    0  0.88827749967E+01 -0.95326086958E+01 -0.20685475431E+02  0.24447151449E+02  0.00000000000E+00 0.  1.
         22    1    4    4    0    0  0.29098293325E+02 -0.11218529029E+02 -0.20217659533E+02  0.37166111244E+02  0.00000000000E+00 0.  1.
<mgrwt>
<rscale>  0 0.89441920E+02</rscale>
<asrwt>0</asrwt>
<pdfrwt beam="2">  1        1 0.15965836E-01 0.89441920E+02</pdfrwt>
<pdfrwt beam="1">  1       -1 0.29648577E-02 0.89441920E+02</pdfrwt>
<totfact> 0.11073387E+05</totfact>
</mgrwt>
</event>
<event>
 7    1  0.3607059E-009  0.9108726E+02  0.7818608E-02  0.1300240E+00
         -1   -1    0    0    0  501 -0.00000000000E+00  0.00000000000E+00  0.38307239484E+02  0.38307239816E+02  0.50400000000E-02 0.  1.
          1   -1    0    0  501    0  0.00000000000E+00 -0.00000000000E+00 -0.54147003058E+02  0.54147003293E+02  0.50400000000E-02 0. -1.
         23    2    1    2    0    0  0.00000000000E+00 -0.88817841970E-15 -0.15839763574E+02  0.92454243109E+02  0.91087260134E+02 0.  0.
    9000005    2    3    3    0    0 -0.24484701718E+02  0.51876565872E+01 -0.45698602737E+02  0.53493202629E+02  0.12113960392E+02 0.  0.
         22    1    3    3    0    0  0.24484701718E+02 -0.51876565872E+01  0.29858839162E+02  0.38961040479E+02  0.00000000000E+00 0.  1.
         22    1    4    4    0    0 -0.15356007555E+02  0.75878368796E+01 -0.36472098188E+02  0.40293872769E+02  0.00000000000E+00 0. -1.
         22    1    4    4    0    0 -0.91286941637E+01 -0.24001802924E+01 -0.92265045487E+01  0.13199329860E+02  0.00000000000E+00 0. -1.
<mgrwt>
<rscale>  0 0.91087260E+02</rscale>
<asrwt>0</asrwt>
<pdfrwt beam="2">  1        1 0.83303083E-02 0.91087260E+02</pdfrwt>
<pdfrwt beam="1">  1       -1 0.58934215E-02 0.91087260E+02</pdfrwt>
<totfact> 0.95152460E+04</totfact>
</mgrwt>
</event>
<event>
 7    1  0.3607059E-009  0.1091795E+03  0.7818608E-02  0.1262097E+00
         -1   -1    0    0    0  501 -0.00000000000E+00  0.00000000000E+00  0.74275307840E+01  0.74275324939E+01  0.50400000000E-02 0.  1.
          1   -1    0    0  501    0  0.00000000000E+00 -0.00000000000E+00 -0.40121519923E+03  0.40121519926E+03  0.50400000000E-02 0. -1.
         23    2    1    2    0    0 -0.55511151231E-16  0.00000000000E+00 -0.39378766844E+03  0.40864273175E+03  0.10917945959E+03 0.  0.
    9000005    2    3    3    0    0  0.15875142638E+00  0.51734894149E+02 -0.14223657433E+03  0.15182669365E+03  0.11982376828E+02 0.  0.
         22    1    3    3    0    0 -0.15875142638E+00 -0.51734894149E+02 -0.25155109412E+03  0.25681603810E+03  0.00000000000E+00 0. -1.
         22    1    4    4    0    0  0.30229772958E+01  0.32444760085E+02 -0.10263915719E+03  0.10768749899E+03  0.00000000000E+00 0.  1.
         22    1    4    4    0    0 -0.28642258694E+01  0.19290134063E+02 -0.39597417133E+02  0.44139194664E+02  0.00000000000E+00 0.  1.
<mgrwt>
<rscale>  0 0.10917946E+03</rscale>
<asrwt>0</asrwt>
<pdfrwt beam="2">  1        1 0.61725398E-01 0.10917946E+03</pdfrwt>
<pdfrwt beam="1">  1       -1 0.11426975E-02 0.10917946E+03</pdfrwt>
<totfact> 0.83271167E+04</totfact>
</mgrwt>
</event>
<event>
 7    1  0.3607059E-009  0.9036098E+02  0.7818608E-02  0.1301980E+00
          1   -1    0    0  501    0  0.00000000000E+00  0.00000000000E+00  0.13639130009E+04  0.13639130009E+04  0.50400000000E-02 0. -1.
         -1   -1    0    0    0  501 -0.00000000000E+00 -0.00000000000E+00 -0.14966285151E+01  0.14966370014E+01  0.50400000000E-02 0.  1.
         23    2    1    2    0    0  0.00000000000E+00 -0.35527136788E-14  0.13624163724E+04  0.13654096379E+04  0.90360984707E+02 0.  0.
    9000005    2    3    3    0    0  0.15771363001E+02 -0.21529152922E+02  0.12320389125E+04  0.12323287514E+04  0.14245079828E+01 0.  0.
         22    1    3    3    0    0 -0.15771363001E+02  0.21529152922E+02  0.13037745989E+03  0.13308088655E+03  0.00000000000E+00 0.  1.
         22    1    4    4    0    0  0.13825868894E+02 -0.19272471344E+02  0.10759446731E+04  0.10762060780E+04  0.00000000000E+00 0.  1.
         22    1    4    4    0    0  0.19454941071E+01 -0.22566815780E+01  0.15609423945E+03  0.15612267340E+03  0.00000000000E+00 0.  1.
<mgrwt>
<rscale>  0 0.90360985E+02</rscale>
<asrwt>0</asrwt>
<pdfrwt beam="1">  1        1 0.20983336E+00 0.90360985E+02</pdfrwt>
<pdfrwt beam="2">  1       -1 0.23025054E-03 0.90360985E+02</pdfrwt>
<totfact> 0.12135669E+05</totfact>
</mgrwt>
</event>
<event>
 7    1  0.3607059E-009  0.9365043E+02  0.7818608E-02  0.1294245E+00
          1   -1    0    0  501    0  0.00000000000E+00  0.00000000000E+00  0.19569953873E+02  0.19569954522E+02  0.50400000000E-02 0. -1.
         -1   -1    0    0    0  501 -0.00000000000E+00 -0.00000000000E+00 -0.11203912618E+03  0.11203912629E+03  0.50400000000E-02 0.  1.
         23    2    1    2    0    0  0.00000000000E+00  0.35527136788E-14 -0.92469172302E+02  0.13160908081E+03  0.93650426190E+02 0.  0.
    9000005    2    3    3    0    0  0.94294447251E+01 -0.17084838954E+02 -0.10570447657E+03  0.10802986477E+03  0.10780035574E+02 0.  0.
         22    1    3    3    0    0 -0.94294447251E+01  0.17084838954E+02  0.13235304264E+02  0.23579216036E+02  0.00000000000E+00 0. -1.
         22    1    4    4    0    0  0.40910472614E+01 -0.78566811342E+00 -0.10561944187E+02  0.11353792630E+02  0.00000000000E+00 0.  1.
         22    1    4    4    0    0  0.53383974636E+01 -0.16299170841E+02 -0.95142532379E+02  0.96676072144E+02  0.00000000000E+00 0.  1.
<mgrwt>
<rscale>  0 0.93650426E+02</rscale>
<asrwt>0</asrwt>
<pdfrwt beam="1">  1        1 0.30107623E-02 0.93650426E+02</pdfrwt>
<pdfrwt beam="2">  1       -1 0.17236788E-01 0.93650426E+02</pdfrwt>
<totfact> 0.74296380E+04</totfact>
</mgrwt>
</event>
<event>
 7    1  0.3607059E-009  0.9176706E+02  0.7818608E-02  0.1298628E+00
          1   -1    0    0  501    0  0.00000000000E+00  0.00000000000E+00  0.19980075685E+03  0.19980075691E+03  0.50400000000E-02 0. -1.
         -1   -1    0    0    0  501 -0.00000000000E+00 -0.00000000000E+00 -0.10536987311E+02  0.10536988516E+02  0.50400000000E-02 0.  1.
         23    2    1    2    0    0  0.00000000000E+00  0.00000000000E+00  0.18926376954E+03  0.21033774543E+03  0.91767056683E+02 0.  0.
    9000005    2    3    3    0    0  0.10282543916E+02  0.21691884180E+02  0.18391144704E+03  0.18574270721E+03  0.10033164077E+02 0.  0.
         22    1    3    3    0    0 -0.10282543916E+02 -0.21691884180E+02  0.53523224956E+01  0.24595038214E+02  0.00000000000E+00 0.  1.
         22    1    4    4    0    0  0.11449768515E+02  0.20220799462E+02  0.17867478959E+03  0.18017951705E+03  0.00000000000E+00 0. -1.
         22    1    4    4    0    0 -0.11672245989E+01  0.14710847183E+01  0.52366574535E+01  0.55631901638E+01  0.00000000000E+00 0. -1.
<mgrwt>
<rscale>  0 0.91767057E+02</rscale>
<asrwt>0</asrwt>
<pdfrwt beam="1">  1        1 0.30738576E-01 0.91767057E+02</pdfrwt>
<pdfrwt beam="2">  1       -1 0.16210752E-02 0.91767057E+02</pdfrwt>
<totfact> 0.11634986E+05</totfact>
</mgrwt>
</event>
<event>
 7    1  0.3607059E-009  0.9021249E+02  0.7818608E-02  0.1302338E+00
          1   -1    0    0  501    0  0.00000000000E+00  0.00000000000E+00  0.16220998647E+03  0.16220998655E+03  0.50400000000E-02 0. -1.
         -1   -1    0    0    0  501 -0.00000000000E+00 -0.00000000000E+00 -0.12542836706E+02  0.12542837719E+02  0.50400000000E-02 0.  1.
         23    2    1    2    0    0  0.00000000000E+00  0.00000000000E+00  0.14966714977E+03  0.17475282427E+03  0.90212492877E+02 0.  0.
    9000005    2    3    3    0    0 -0.13834683440E+02 -0.14631525041E+02  0.15279566512E+03  0.15437470858E+03  0.89193820728E+01 0.  0.
         22    1    3    3    0    0  0.13834683440E+02  0.14631525041E+02 -0.31285153559E+01  0.20378115694E+02  0.00000000000E+00 0.  1.
         22    1    4    4    0    0 -0.14766916191E+02 -0.13952622890E+02  0.14968036100E+03  0.15105279861E+03  0.00000000000E+00 0. -1.
         22    1    4    4    0    0  0.93223275101E+00 -0.67890215097E+00  0.31153041269E+01  0.33219099680E+01  0.00000000000E+00 0. -1.
<mgrwt>
<rscale>  0 0.90212493E+02</rscale>
<asrwt>0</asrwt>
<pdfrwt beam="1">  1        1 0.24955381E-01 0.90212493E+02</pdfrwt>
<pdfrwt beam="2">  1       -1 0.19296674E-02 0.90212493E+02</pdfrwt>
<totfact> 0.11707125E+05</totfact>
</mgrwt>
</event>
<event>
 7    1  0.3607059E-009  0.9213556E+02  0.7818608E-02  0.1297761E+00
          1   -1    0    0  501    0  0.00000000000E+00  0.00000000000E+00  0.55238073322E+02  0.55238073552E+02  0.50400000000E-02 0. -1.
         -1   -1    0    0    0  501 -0.00000000000E+00 -0.00000000000E+00 -0.38419887227E+02  0.38419887558E+02  0.50400000000E-02 0.  1.
         23    2    1    2    0    0 -0.71054273576E-14 -0.35527136788E-14  0.16818186095E+02  0.93657961110E+02  0.92135564772E+02 0.  0.
    9000005    2    3    3    0    0  0.38394447640E+02  0.20534447347E+02 -0.48035952214E+01  0.45044191819E+02  0.10493214578E+02 0.  0.
         22    1    3    3    0    0 -0.38394447640E+02 -0.20534447347E+02  0.21621781317E+02  0.48613769291E+02  0.00000000000E+00 0. -1.
         22    1    4    4    0    0  0.16680238705E+02  0.13482367001E+02  0.10556153730E+01  0.21473679401E+02  0.00000000000E+00 0.  1.
         22    1    4    4    0    0  0.21714208935E+02  0.70520803462E+01 -0.58592105943E+01  0.23570512418E+02  0.00000000000E+00 0.  1.
<mgrwt>
<rscale>  0 0.92135565E+02</rscale>
<asrwt>0</asrwt>
<pdfrwt beam="1">  1        1 0.84981651E-02 0.92135565E+02</pdfrwt>
<pdfrwt beam="2">  1       -1 0.59107520E-02 0.92135565E+02</pdfrwt>
<totfact> 0.92441422E+04</totfact>
</mgrwt>
</event>
<event>
 7    1  0.3607059E-009  0.9043798E+02  0.7818608E-02  0.1301795E+00
          1   -1    0    0  501    0  0.00000000000E+00  0.00000000000E+00  0.35171381521E+03  0.35171381525E+03  0.50400000000E-02 0. -1.
         -1   -1    0    0    0  501 -0.00000000000E+00 -0.00000000000E+00 -0.58136950359E+01  0.58136972205E+01  0.50400000000E-02 0.  1.
         23    2    1    2    0    0  0.71054273576E-14  0.35527136788E-14  0.34590012017E+03  0.35752751247E+03  0.90437984465E+02 0.  0.
    9000005    2    3    3    0    0  0.37918407355E+02  0.17489697458E+02  0.23667317347E+03  0.24059068756E+03  0.11224649912E+02 0.  0.
         22    1    3    3    0    0 -0.37918407355E+02 -0.17489697458E+02  0.10922694670E+03  0.11693682491E+03  0.00000000000E+00 0.  1.
         22    1    4    4    0    0  0.38039497545E+02  0.17541365378E+02  0.23675730482E+03  0.24043444898E+03  0.00000000000E+00 0.  1.
         22    1    4    4    0    0 -0.12109019011E+00 -0.51667920312E-01 -0.84131349193E-01  0.15623857414E+00  0.00000000000E+00 0.  1.
<mgrwt>
<rscale>  0 0.90437984E+02</rscale>
<asrwt>0</asrwt>
<pdfrwt beam="1">  1        1 0.54109824E-01 0.90437984E+02</pdfrwt>
<pdfrwt beam="2">  1       -1 0.89441468E-03 0.90437984E+02</pdfrwt>
<totfact> 0.13483096E+05</totfact>
</mgrwt>
</event>
<event>
 7    1  0.3607059E-009  0.9048875E+02  0.7818608E-02  0.1301672E+00
         -1   -1    0    0    0  501 -0.00000000000E+00  0.00000000000E+00  0.13558653382E+02  0.13558654318E+02  0.50400000000E-02 0.  1.
          1   -1    0    0  501    0  0.00000000000E+00 -0.00000000000E+00 -0.15097761588E+03  0.15097761596E+03  0.50400000000E-02 0. -1.
         23    2    1    2    0    0  0.00000000000E+00  0.00000000000E+00 -0.13741896250E+03  0.16453627028E+03  0.90488745070E+02 0.  0.
    9000005    2    3    3    0    0 -0.12130781000E+02  0.35140829405E+02 -0.11341314911E+03  0.12028344195E+03  0.14950928985E+02 0.  0.
         22    1    3    3    0    0  0.12130781000E+02 -0.35140829405E+02 -0.24005813387E+02  0.44252828331E+02  0.00000000000E+00 0.  1.
         22    1    4    4    0    0 -0.54348796617E+00 -0.85099205567E+00 -0.35536706414E+00  0.10704449535E+01  0.00000000000E+00 0.  1.
         22    1    4    4    0    0 -0.11587293034E+02  0.35991821460E+02 -0.11305778205E+03  0.11921299700E+03  0.00000000000E+00 0.  1.
<mgrwt>
<rscale>  0 0.90488745E+02</rscale>
<asrwt>0</asrwt>
<pdfrwt beam="2">  1        1 0.23227324E-01 0.90488745E+02</pdfrwt>
<pdfrwt beam="1">  1       -1 0.20859469E-02 0.90488745E+02</pdfrwt>
<totfact> 0.11458221E+05</totfact>
</mgrwt>
</event>
<event>
 7    1  0.3607059E-009  0.9232279E+02  0.7818608E-02  0.1297322E+00
         -1   -1    0    0    0  501 -0.00000000000E+00  0.00000000000E+00  0.61596552031E+01  0.61596572650E+01  0.50400000000E-02 0.  1.
          1   -1    0    0  501    0  0.00000000000E+00 -0.00000000000E+00 -0.34594050072E+03  0.34594050075E+03  0.50400000000E-02 0. -1.
         23    2    1    2    0    0  0.00000000000E+00  0.00000000000E+00 -0.33978084551E+03  0.35210015802E+03  0.92322794036E+02 0.  0.
    9000005    2    3    3    0    0 -0.45960686467E+02 -0.16859166066E+01 -0.18454010677E+03  0.19018995457E+03  0.13931248827E+01 0.  0.
         22    1    3    3    0    0  0.45960686467E+02  0.16859166066E+01 -0.15524073874E+03  0.16191020344E+03  0.00000000000E+00 0.  1.
         22    1    4    4    0    0 -0.20320667779E+01  0.11489253755E+00 -0.90975927422E+01  0.93224830055E+01  0.00000000000E+00 0. -1.
         22    1    4    4    0    0 -0.43928619689E+02 -0.18008091441E+01 -0.17544251403E+03  0.18086747157E+03  0.00000000000E+00 0. -1.
<mgrwt>
<rscale>  0 0.92322794E+02</rscale>
<asrwt>0</asrwt>
<pdfrwt beam="2">  1        1 0.53221600E-01 0.92322794E+02</pdfrwt>
<pdfrwt beam="1">  1       -1 0.94763969E-03 0.92322794E+02</pdfrwt>
<totfact> 0.12725393E+05</totfact>
</mgrwt>
</event>
<event>
 7    1  0.3607059E-009  0.8994488E+02  0.7818608E-02  0.1302985E+00
         -1   -1    0    0    0  501 -0.00000000000E+00  0.00000000000E+00  0.23794606098E+02  0.23794606632E+02  0.50400000000E-02 0.  1.
          1   -1    0    0  501    0  0.00000000000E+00 -0.00000000000E+00 -0.84999113123E+02  0.84999113273E+02  0.50400000000E-02 0. -1.
         23    2    1    2    0    0 -0.35527136788E-14  0.00000000000E+00 -0.61204507025E+02  0.10879371990E+03  0.89944882070E+02 0.  0.
    9000005    2    3    3    0    0 -0.29619892280E+02  0.28945371397E+02 -0.48284885717E+02  0.65410668390E+02  0.15229996935E+02 0.  0.
         22    1    3    3    0    0  0.29619892280E+02 -0.28945371397E+02 -0.12919621308E+02  0.43383051514E+02  0.00000000000E+00 0.  1.
         22    1    4    4    0    0 -0.11322774819E+02  0.58710450867E+01 -0.24247823501E+02  0.27397652173E+02  0.00000000000E+00 0.  1.
         22    1    4    4    0    0 -0.18297117461E+02  0.23074326310E+02 -0.24037062215E+02  0.38013016218E+02  0.00000000000E+00 0.  1.
<mgrwt>
<rscale>  0 0.89944882E+02</rscale>
<asrwt>0</asrwt>
<pdfrwt beam="2">  1        1 0.13076787E-01 0.89944882E+02</pdfrwt>
<pdfrwt beam="1">  1       -1 0.36607087E-02 0.89944882E+02</pdfrwt>
<totfact> 0.10557479E+05</totfact>
</mgrwt>
</event>
<event>
 7    1  0.3607059E-009  0.8869308E+02  0.7818608E-02  0.1306048E+00
         -1   -1    0    0    0  501 -0.00000000000E+00  0.00000000000E+00  0.53251938584E+03  0.53251938586E+03  0.50400000000E-02 0.  1.
          1   -1    0    0  501    0  0.00000000000E+00 -0.00000000000E+00 -0.36930386069E+01  0.36930420460E+01  0.50400000000E-02 0. -1.
         23    2    1    2    0    0  0.00000000000E+00  0.00000000000E+00  0.52882634723E+03  0.53621242791E+03  0.88693079307E+02 0.  0.
    9000005    2    3    3    0    0  0.35805791989E+02 -0.23579988234E+02  0.32250831693E+03  0.32548701365E+03  0.95974467087E+01 0.  0.
         22    1    3    3    0    0 -0.35805791989E+02  0.23579988234E+02  0.20631803030E+03  0.21072541425E+03  0.00000000000E+00 0.  1.
         22    1    4    4    0    0  0.26610533845E+01 -0.54188490064E+00  0.42200732173E+02  0.42288020056E+02  0.00000000000E+00 0.  1.
         22    1    4    4    0    0  0.33144738605E+02 -0.23038103333E+02  0.28030758475E+03  0.28319899359E+03  0.00000000000E+00 0.  1.
<mgrwt>
<rscale>  0 0.88693079E+02</rscale>
<asrwt>0</asrwt>
<pdfrwt beam="2">  1        1 0.56816023E-03 0.88693079E+02</pdfrwt>
<pdfrwt beam="1">  1       -1 0.81926034E-01 0.88693079E+02</pdfrwt>
<totfact> 0.48589014E+04</totfact>
</mgrwt>
</event>
<event>
 7    1  0.3607059E-009  0.9107756E+02  0.7818608E-02  0.1300263E+00
         -1   -1    0    0    0  501 -0.00000000000E+00  0.00000000000E+00  0.26277126429E+02  0.26277126912E+02  0.50400000000E-02 0.  1.
          1   -1    0    0  501    0  0.00000000000E+00 -0.00000000000E+00 -0.78919601033E+02  0.78919601194E+02  0.50400000000E-02 0. -1.
         23    2    1    2    0    0  0.71054273576E-14 -0.17763568394E-14 -0.52642474604E+02  0.10519672811E+03  0.91077557453E+02 0.  0.
    9000005    2    3    3    0    0  0.41373058235E+02 -0.80786058781E+01 -0.11375377380E+02  0.46205481857E+02  0.15117986719E+02 0.  0.
         22    1    3    3    0    0 -0.41373058235E+02  0.80786058781E+01 -0.41267097224E+02  0.58991246249E+02  0.00000000000E+00 0. -1.
         22    1    4    4    0    0  0.34824653203E+02 -0.12294220902E+02 -0.84443218036E+01  0.37884177555E+02  0.00000000000E+00 0.  1.
         22    1    4    4    0    0  0.65484050322E+01  0.42156150238E+01 -0.29310555764E+01  0.83213043020E+01  0.00000000000E+00 0.  1.
<mgrwt>
<rscale>  0 0.91077557E+02</rscale>
<asrwt>0</asrwt>
<pdfrwt beam="2">  1        1 0.12141477E-01 0.91077557E+02</pdfrwt>
<pdfrwt beam="1">  1       -1 0.40426349E-02 0.91077557E+02</pdfrwt>
<totfact> 0.10082997E+05</totfact>
</mgrwt>
</event>
<event>
 7    1  0.5452398E-009  0.1009519E+03  0.7818608E-02  0.1278307E+00
         -1   -1    0    0    0  501 -0.00000000000E+00  0.00000000000E+00  0.62252395335E+02  0.62252395539E+02  0.50400000000E-02 0.  1.
          1   -1    0    0  501    0  0.00000000000E+00 -0.00000000000E+00 -0.40927271089E+02  0.40927271399E+02  0.50400000000E-02 0. -1.
         23    2    1    2    0    0  0.00000000000E+00 -0.88817841970E-15  0.21325124246E+02  0.10317966694E+03  0.10095188332E+03 0.  0.
    9000005    2    3    3    0    0 -0.40288025656E+02 -0.57030617758E+01  0.39660665203E+02  0.58549609947E+02  0.14122270911E+02 0.  0.
         22    1    3    3    0    0  0.40288025656E+02  0.57030617758E+01 -0.18335540956E+02  0.44630056991E+02  0.00000000000E+00 0. -1.
         22    1    4    4    0    0 -0.39201656385E+02 -0.56411598973E+01  0.40877540092E+02  0.56917183981E+02  0.00000000000E+00 0. -1.
         22    1    4    4    0    0 -0.10863692709E+01 -0.61901878481E-01 -0.12168748897E+01  0.16324259654E+01  0.00000000000E+00 0. -1.
<mgrwt>
<rscale>  0 0.10095188E+03</rscale>
<asrwt>0</asrwt>
<pdfrwt beam="2">  1        1 0.62965033E-02 0.10095188E+03</pdfrwt>
<pdfrwt beam="1">  1       -1 0.95772915E-02 0.10095188E+03</pdfrwt>
<totfact> 0.68068518E+04</totfact>
</mgrwt>
</event>
<event>
 7    1  0.3607059E-009  0.8999495E+02  0.7818608E-02  0.1302864E+00
          1   -1    0    0  501    0  0.00000000000E+00  0.00000000000E+00  0.10719097516E+04  0.10719097516E+04  0.50400000000E-02 0. -1.
         -1   -1    0    0    0  501 -0.00000000000E+00 -0.00000000000E+00 -0.18889362290E+01  0.18889429527E+01  0.50400000000E-02 0.  1.
         23    2    1    2    0    0  0.00000000000E+00  0.00000000000E+00  0.10700208154E+04  0.10737986946E+04  0.89994950531E+02 0.  0.
    9000005    2    3    3    0    0 -0.20196545837E+02  0.12626369268E+02  0.98905635590E+03  0.98940337857E+03  0.10919922651E+02 0.  0.
         22    1    3    3    0    0  0.20196545837E+02 -0.12626369268E+02  0.80964459456E+02  0.84395315981E+02  0.00000000000E+00 0.  1.
         22    1    4    4    0    0 -0.85540209264E+01  0.49129337448E+01  0.62727653844E+03  0.62735409768E+03  0.00000000000E+00 0.  1.
         22    1    4    4    0    0 -0.11642524910E+02  0.77134355233E+01  0.36177981746E+03  0.36204928089E+03  0.00000000000E+00 0.  1.
<mgrwt>
<rscale>  0 0.89994951E+02</rscale>
<asrwt>0</asrwt>
<pdfrwt beam="1">  1        1 0.16490948E+00 0.89994951E+02</pdfrwt>
<pdfrwt beam="2">  1       -1 0.29060558E-03 0.89994951E+02</pdfrwt>
<totfact> 0.13787698E+05</totfact>
</mgrwt>
</event>
<event>
 7    1  0.3607059E-009  0.9052286E+02  0.7818608E-02  0.1301590E+00
         -1   -1    0    0    0  501 -0.00000000000E+00  0.00000000000E+00  0.18149139611E+02  0.18149140311E+02  0.50400000000E-02 0.  1.
          1   -1    0    0  501    0  0.00000000000E+00 -0.00000000000E+00 -0.11287570125E+03  0.11287570136E+03  0.50400000000E-02 0. -1.
         23    2    1    2    0    0  0.00000000000E+00  0.00000000000E+00 -0.94726561634E+02  0.13102484167E+03  0.90522857088E+02 0.  0.
    9000005    2    3    3    0    0  0.21374947763E+02 -0.36333331717E+02 -0.23910096855E+02  0.48611426078E+02  0.37919161605E+01 0.  0.
         22    1    3    3    0    0 -0.21374947763E+02  0.36333331717E+02 -0.70816464779E+02  0.82413415591E+02  0.00000000000E+00 0. -1.
         22    1    4    4    0    0  0.10796837937E+02 -0.15315176137E+02 -0.11849078935E+02  0.22170408231E+02  0.00000000000E+00 0. -1.
         22    1    4    4    0    0  0.10578109826E+02 -0.21018155581E+02 -0.12061017921E+02  0.26441017847E+02  0.00000000000E+00 0. -1.
<mgrwt>
<rscale>  0 0.90522857E+02</rscale>
<asrwt>0</asrwt>
<pdfrwt beam="2">  1        1 0.17365492E-01 0.90522857E+02</pdfrwt>
<pdfrwt beam="1">  1       -1 0.27921755E-02 0.90522857E+02</pdfrwt>
<totfact> 0.10871098E+05</totfact>
</mgrwt>
</event>
<event>
 7    1  0.3607059E-009  0.9203318E+02  0.7818608E-02  0.1298001E+00
          1   -1    0    0  501    0  0.00000000000E+00  0.00000000000E+00  0.62246285963E+02  0.62246286167E+02  0.50400000000E-02 0. -1.
         -1   -1    0    0    0  501 -0.00000000000E+00 -0.00000000000E+00 -0.34018517081E+02  0.34018517454E+02  0.50400000000E-02 0.  1.
         23    2    1    2    0    0  0.17763568394E-14  0.00000000000E+00  0.28227768882E+02  0.96264803621E+02  0.92033175976E+02 0.  0.
    9000005    2    3    3    0    0 -0.13653504402E+02  0.15428993440E+02 -0.28154558806E+02  0.36236152991E+02  0.97932415997E+01 0.  0.
         22    1    3    3    0    0  0.13653504402E+02 -0.15428993440E+02  0.56382327688E+02  0.60028650630E+02  0.00000000000E+00 0. -1.
         22    1    4    4    0    0 -0.37953187988E+01  0.85190844065E+01 -0.18814342170E+02  0.20999017006E+02  0.00000000000E+00 0.  1.
         22    1    4    4    0    0 -0.98581856033E+01  0.69099090332E+01 -0.93402166352E+01  0.15237135985E+02  0.00000000000E+00 0.  1.
<mgrwt>
<rscale>  0 0.92033176E+02</rscale>
<asrwt>0</asrwt>
<pdfrwt beam="1">  1        1 0.95763516E-02 0.92033176E+02</pdfrwt>
<pdfrwt beam="2">  1       -1 0.52336181E-02 0.92033176E+02</pdfrwt>
<totfact> 0.94428632E+04</totfact>
</mgrwt>
</event>
<event>
 7    1  0.3607059E-009  0.9381378E+02  0.7818608E-02  0.1293870E+00
         -1   -1    0    0    0  501 -0.00000000000E+00  0.00000000000E+00  0.23162872920E+03  0.23162872926E+03  0.50400000000E-02 0.  1.
          1   -1    0    0  501    0  0.00000000000E+00 -0.00000000000E+00 -0.94990646306E+01  0.94990659677E+01  0.50400000000E-02 0. -1.
         23    2    1    2    0    0  0.88817841970E-15  0.00000000000E+00  0.22212966457E+03  0.24112779523E+03  0.93813782289E+02 0.  0.
    9000005    2    3    3    0    0 -0.74322549338E+01 -0.40726239751E+02  0.60717518922E+02  0.74491227266E+02  0.12184449844E+02 0.  0.
         22    1    3    3    0    0  0.74322549338E+01  0.40726239751E+02  0.16141214565E+03  0.16663656796E+03  0.00000000000E+00 0.  1.
         22    1    4    4    0    0 -0.45731570763E+01 -0.25645546126E+02  0.27394423177E+02  0.37802939343E+02  0.00000000000E+00 0. -1.
         22    1    4    4    0    0 -0.28590978575E+01 -0.15080693625E+02  0.33323095745E+02  0.36688287924E+02  0.00000000000E+00 0. -1.
<mgrwt>
<rscale>  0 0.93813782E+02</rscale>
<asrwt>0</asrwt>
<pdfrwt beam="2">  1        1 0.14613947E-02 0.93813782E+02</pdfrwt>
<pdfrwt beam="1">  1       -1 0.35635189E-01 0.93813782E+02</pdfrwt>
<totfact> 0.61642574E+04</totfact>
</mgrwt>
</event>
<event>
 7    1  0.3607059E-009  0.8931368E+02  0.7818608E-02  0.1304522E+00
         -1   -1    0    0    0  501 -0.00000000000E+00  0.00000000000E+00  0.13062481620E+01  0.13062578851E+01  0.50400000000E-02 0.  1.
          1   -1    0    0  501    0  0.00000000000E+00 -0.00000000000E+00 -0.15266824084E+04  0.15266824084E+04  0.50400000000E-02 0. -1.
         23    2    1    2    0    0  0.00000000000E+00  0.00000000000E+00 -0.15253761603E+04  0.15279886663E+04  0.89313683714E+02 0.  0.
    9000005    2    3    3    0    0  0.18104040078E+02 -0.21026880511E+02 -0.13601432027E+04  0.13604422064E+04  0.66014461841E+01 0.  0.
         22    1    3    3    0    0 -0.18104040078E+02  0.21026880511E+02 -0.16523295757E+03  0.16754645994E+03  0.00000000000E+00 0.  1.
         22    1    4    4    0    0  0.25967082062E+01 -0.76209446783E+00 -0.82993374146E+02  0.83037484509E+02  0.00000000000E+00 0.  1.
         22    1    4    4    0    0  0.15507331872E+02 -0.20264786043E+02 -0.12771498285E+04  0.12774047219E+04  0.00000000000E+00 0.  1.
<mgrwt>
<rscale>  0 0.89313684E+02</rscale>
<asrwt>0</asrwt>
<pdfrwt beam="2">  1        1 0.23487279E+00 0.89313684E+02</pdfrwt>
<pdfrwt beam="1">  1       -1 0.20096323E-03 0.89313684E+02</pdfrwt>
<totfact> 0.11501191E+05</totfact>
</mgrwt>
</event>
<event>
 7    1  0.3607059E-009  0.9605842E+02  0.7818608E-02  0.1288810E+00
         -1   -1    0    0    0  501 -0.00000000000E+00  0.00000000000E+00  0.22523263895E+02  0.22523264459E+02  0.50400000000E-02 0.  1.
          1   -1    0    0  501    0  0.00000000000E+00 -0.00000000000E+00 -0.10241877208E+03  0.10241877220E+03  0.50400000000E-02 0. -1.
         23    2    1    2    0    0  0.00000000000E+00  0.00000000000E+00 -0.79895508181E+02  0.12494203666E+03  0.96058421270E+02 0.  0.
    9000005    2    3    3    0    0 -0.10352573225E+02  0.42599759938E+02 -0.15187995565E+02  0.46782088423E+02  0.59977719885E+01 0.  0.
         22    1    3    3    0    0  0.10352573225E+02 -0.42599759938E+02 -0.64707512616E+02  0.78159948235E+02  0.00000000000E+00 0. -1.
         22    1    4    4    0    0 -0.67399268483E+01  0.18560546880E+02 -0.46465693833E+01  0.20285736896E+02  0.00000000000E+00 0. -1.
         22    1    4    4    0    0 -0.36126463763E+01  0.24039213058E+02 -0.10541426181E+02  0.26496351527E+02  0.00000000000E+00 0. -1.
<mgrwt>
<rscale>  0 0.96058421E+02</rscale>
<asrwt>0</asrwt>
<pdfrwt beam="2">  1        1 0.15756734E-01 0.96058421E+02</pdfrwt>
<pdfrwt beam="1">  1       -1 0.34651176E-02 0.96058421E+02</pdfrwt>
<totfact> 0.90924934E+04</totfact>
</mgrwt>
</event>
<event>
 7    1  0.3607059E-009  0.9375483E+02  0.7818608E-02  0.1294005E+00
         -1   -1    0    0    0  501 -0.00000000000E+00  0.00000000000E+00  0.53640023444E+01  0.53640047122E+01  0.50400000000E-02 0.  1.
          1   -1    0    0  501    0  0.00000000000E+00 -0.00000000000E+00 -0.40967382971E+03  0.40967382974E+03  0.50400000000E-02 0. -1.
         23    2    1    2    0    0 -0.35527136788E-14  0.00000000000E+00 -0.40430982736E+03  0.41503783445E+03  0.93754826666E+02 0.  0.
    9000005    2    3    3    0    0 -0.18405600515E+02  0.40731038514E+02 -0.14873286554E+03  0.15558192867E+03  0.92998714390E+01 0.  0.
         22    1    3    3    0    0  0.18405600515E+02 -0.40731038514E+02 -0.25557696183E+03  0.25945590578E+03  0.00000000000E+00 0. -1.
         22    1    4    4    0    0 -0.16593052608E+02  0.39901106767E+02 -0.13618834318E+03  0.14287999347E+03  0.00000000000E+00 0.  1.
         22    1    4    4    0    0 -0.18125479065E+01  0.82993174735E+00 -0.12544522356E+02  0.12701935197E+02  0.00000000000E+00 0.  1.
<mgrwt>
<rscale>  0 0.93754827E+02</rscale>
<asrwt>0</asrwt>
<pdfrwt beam="2">  1        1 0.63026719E-01 0.93754827E+02</pdfrwt>
<pdfrwt beam="1">  1       -1 0.82523164E-03 0.93754827E+02</pdfrwt>
<totfact> 0.12573604E+05</totfact>
</mgrwt>
</event>
<event>
 7    1  0.3607059E-009  0.1033933E+03  0.7818608E-02  0.1273318E+00
          1   -1    0    0  501    0  0.00000000000E+00  0.00000000000E+00  0.23277207724E+02  0.23277208270E+02  0.50400000000E-02 0. -1.
         -1   -1    0    0    0  501 -0.00000000000E+00 -0.00000000000E+00 -0.11481384004E+03  0.11481384015E+03  0.50400000000E-02 0.  1.
         23    2    1    2    0    0  0.00000000000E+00  0.00000000000E+00 -0.91536632320E+02  0.13809104842E+03  0.10339333924E+03 0.  0.
    9000005    2    3    3    0    0  0.45462639028E+01  0.38108688982E+02 -0.16352718244E+01  0.40340369090E+02  0.12317896450E+02 0.  0.
         22    1    3    3    0    0 -0.45462639028E+01 -0.38108688982E+02 -0.89901360496E+02  0.97750679335E+02  0.00000000000E+00 0.  1.
         22    1    4    4    0    0  0.82443960288E+01  0.22831660483E+02  0.14671145776E+01  0.24318865341E+02  0.00000000000E+00 0.  1.
         22    1    4    4    0    0 -0.36981321260E+01  0.15277028499E+02 -0.31023864020E+01  0.16021503748E+02  0.00000000000E+00 0.  1.
<mgrwt>
<rscale>  0 0.10339334E+03</rscale>
<asrwt>0</asrwt>
<pdfrwt beam="1">  1        1 0.35811090E-02 0.10339334E+03</pdfrwt>
<pdfrwt beam="2">  1       -1 0.17663667E-01 0.10339334E+03</pdfrwt>
<totfact> 0.57211529E+04</totfact>
</mgrwt>
</event>
<event>
 7    1  0.3607059E-009  0.9233984E+02  0.7818608E-02  0.1297282E+00
         -1   -1    0    0    0  501 -0.00000000000E+00  0.00000000000E+00  0.10039387037E+02  0.10039388302E+02  0.50400000000E-02 0.  1.
          1   -1    0    0  501    0  0.00000000000E+00 -0.00000000000E+00 -0.21232982368E+03  0.21232982374E+03  0.50400000000E-02 0. -1.
         23    2    1    2    0    0  0.00000000000E+00  0.00000000000E+00 -0.20229043664E+03  0.22236921204E+03  0.92339838134E+02 0.  0.
    9000005    2    3    3    0    0  0.21920725403E+02  0.27215095010E+02 -0.30101154202E+02  0.46669671387E+02  0.71273518525E+01 0.  0.
         22    1    3    3    0    0 -0.21920725403E+02 -0.27215095010E+02 -0.17218928244E+03  0.17569954065E+03  0.00000000000E+00 0. -1.
         22    1    4    4    0    0  0.78746364313E+01  0.13859710470E+02 -0.10401962962E+02  0.19034240377E+02  0.00000000000E+00 0.  1.
         22    1    4    4    0    0  0.14046088972E+02  0.13355384540E+02 -0.19699191240E+02  0.27635431010E+02  0.00000000000E+00 0.  1.
<mgrwt>
<rscale>  0 0.92339838E+02</rscale>
<asrwt>0</asrwt>
<pdfrwt beam="2">  1        1 0.32666123E-01 0.92339838E+02</pdfrwt>
<pdfrwt beam="1">  1       -1 0.15445213E-02 0.92339838E+02</pdfrwt>
<totfact> 0.11578635E+05</totfact>
</mgrwt>
</event>
<event>
 7    1  0.3607059E-009  0.8983341E+02  0.7818608E-02  0.1303256E+00
         -1   -1    0    0    0  501 -0.00000000000E+00  0.00000000000E+00  0.77406602744E+01  0.77406619152E+01  0.50400000000E-02 0.  1.
          1   -1    0    0  501    0  0.00000000000E+00 -0.00000000000E+00 -0.26063800261E+03  0.26063800266E+03  0.50400000000E-02 0. -1.
         23    2    1    2    0    0  0.00000000000E+00 -0.17763568394E-14 -0.25289734233E+03  0.26837866457E+03  0.89833411591E+02 0.  0.
    9000005    2    3    3    0    0 -0.85102713224E+01  0.12307961237E+02 -0.25293837418E+03  0.25341496478E+03  0.41728423787E+01 0.  0.
         22    1    3    3    0    0  0.85102713224E+01 -0.12307961237E+02  0.41031849146E-01  0.14963699790E+02  0.00000000000E+00 0.  1.
         22    1    4    4    0    0 -0.64881993859E+01  0.10970667478E+02 -0.22892154219E+03  0.22927608849E+03  0.00000000000E+00 0.  1.
         22    1    4    4    0    0 -0.20220719365E+01  0.13372937586E+01 -0.24016831992E+02  0.24138876288E+02  0.00000000000E+00 0.  1.
<mgrwt>
<rscale>  0 0.89833412E+02</rscale>
<asrwt>0</asrwt>
<pdfrwt beam="2">  1        1 0.40098148E-01 0.89833412E+02</pdfrwt>
<pdfrwt beam="1">  1       -1 0.11908711E-02 0.89833412E+02</pdfrwt>
<totfact> 0.12971309E+05</totfact>
</mgrwt>
</event>
<event>
 7    1  0.3607059E-009  0.9205729E+02  0.7818608E-02  0.1297945E+00
          1   -1    0    0  501    0  0.00000000000E+00  0.00000000000E+00  0.72112195414E+01  0.72112213027E+01  0.50400000000E-02 0. -1.
         -1   -1    0    0    0  501 -0.00000000000E+00 -0.00000000000E+00 -0.29379715240E+03  0.29379715244E+03  0.50400000000E-02 0.  1.
         23    2    1    2    0    0  0.00000000000E+00 -0.71054273576E-14 -0.28658593286E+03  0.30100837374E+03  0.92057287341E+02 0.  0.
    9000005    2    3    3    0    0  0.20964197725E+02 -0.33579762809E+02 -0.21618776220E+03  0.22024327925E+03  0.14242734074E+02 0.  0.
         22    1    3    3    0    0 -0.20964197725E+02  0.33579762809E+02 -0.70398170658E+02  0.80765094494E+02  0.00000000000E+00 0. -1.
         22    1    4    4    0    0  0.11799155322E+02 -0.21229471843E+02 -0.16553018680E+03  0.16730258002E+03  0.00000000000E+00 0. -1.
         22    1    4    4    0    0  0.91650424032E+01 -0.12350290965E+02 -0.50657575403E+02  0.52940699229E+02  0.00000000000E+00 0. -1.
<mgrwt>
<rscale>  0 0.92057287E+02</rscale>
<asrwt>0</asrwt>
<pdfrwt beam="1">  1        1 0.11094188E-02 0.92057287E+02</pdfrwt>
<pdfrwt beam="2">  1       -1 0.45199553E-01 0.92057287E+02</pdfrwt>
<totfact> 0.59565176E+04</totfact>
</mgrwt>
</event>
<event>
 7    1  0.3607059E-009  0.9146218E+02  0.7818608E-02  0.1299349E+00
          1   -1    0    0  501    0  0.00000000000E+00  0.00000000000E+00  0.21101611193E+03  0.21101611199E+03  0.50400000000E-02 0. -1.
         -1   -1    0    0    0  501 -0.00000000000E+00 -0.00000000000E+00 -0.99107705819E+01  0.99107718635E+01  0.50400000000E-02 0.  1.
         23    2    1    2    0    0 -0.35527136788E-14  0.17763568394E-14  0.20110534134E+03  0.22092688385E+03  0.91462176283E+02 0.  0.
    9000005    2    3    3    0    0  0.20731342436E+02 -0.11724060296E+02  0.19431796997E+03  0.19616177615E+03  0.12358269328E+02 0.  0.
         22    1    3    3    0    0 -0.20731342436E+02  0.11724060296E+02  0.67873713721E+01  0.24765107696E+02  0.00000000000E+00 0.  1.
         22    1    4    4    0    0  0.15910700925E+02 -0.13906099032E+02  0.16741731699E+03  0.16874563112E+03  0.00000000000E+00 0.  1.
         22    1    4    4    0    0  0.48206415108E+01  0.21820387356E+01  0.26900652980E+02  0.27416145031E+02  0.00000000000E+00 0.  1.
<mgrwt>
<rscale>  0 0.91462176E+02</rscale>
<asrwt>0</asrwt>
<pdfrwt beam="1">  1        1 0.32464013E-01 0.91462176E+02</pdfrwt>
<pdfrwt beam="2">  1       -1 0.15247342E-02 0.91462176E+02</pdfrwt>
<totfact> 0.11864817E+05</totfact>
</mgrwt>
</event>
<event>
 7    1  0.3607059E-009  0.9078026E+02  0.7818608E-02  0.1300973E+00
         -1   -1    0    0    0  501 -0.00000000000E+00  0.00000000000E+00  0.31059448033E+01  0.31059488925E+01  0.50400000000E-02 0.  1.
          1   -1    0    0  501    0  0.00000000000E+00 -0.00000000000E+00 -0.66332870783E+03  0.66332870785E+03  0.50400000000E-02 0. -1.
         23    2    1    2    0    0  0.00000000000E+00  0.00000000000E+00 -0.66022276302E+03  0.66643465674E+03  0.90780256046E+02 0.  0.
    9000005    2    3    3    0    0 -0.78923546395E+01  0.37499198572E+02 -0.50515184643E+03  0.50669903664E+03  0.98512245082E+01 0.  0.
         22    1    3    3    0    0  0.78923546395E+01 -0.37499198572E+02 -0.15507091659E+03  0.15973562010E+03  0.00000000000E+00 0.  1.
         22    1    4    4    0    0  0.22835190179E+01  0.65512985604E+01 -0.98900339005E+02  0.99143386200E+02  0.00000000000E+00 0. -1.
         22    1    4    4    0    0 -0.10175873657E+02  0.30947900012E+02 -0.40625150743E+03  0.40755565044E+03  0.00000000000E+00 0. -1.
<mgrwt>
<rscale>  0 0.90780256E+02</rscale>
<asrwt>0</asrwt>
<pdfrwt beam="2">  1        1 0.10205046E+00 0.90780256E+02</pdfrwt>
<pdfrwt beam="1">  1       -1 0.47783851E-03 0.90780256E+02</pdfrwt>
<totfact> 0.14379235E+05</totfact>
</mgrwt>
</event>
<event>
 7    1  0.3607059E-009  0.8545262E+02  0.7818608E-02  0.1314253E+00
          1   -1    0    0  501    0  0.00000000000E+00  0.00000000000E+00  0.21145235083E+02  0.21145235683E+02  0.50400000000E-02 0. -1.
         -1   -1    0    0    0  501 -0.00000000000E+00 -0.00000000000E+00 -0.86333281087E+02  0.86333281234E+02  0.50400000000E-02 0.  1.
         23    2    1    2    0    0 -0.35527136788E-14  0.00000000000E+00 -0.65188046004E+02  0.10747851692E+03  0.85452619954E+02 0.  0.
    9000005    2    3    3    0    0 -0.23909876114E+02  0.32101748800E+02 -0.17124642822E+02  0.44930174195E+02  0.11102374054E+02 0.  0.
         22    1    3    3    0    0  0.23909876114E+02 -0.32101748800E+02 -0.48063403182E+02  0.62548342722E+02  0.00000000000E+00 0.  1.
         22    1    4    4    0    0 -0.19645414213E+02  0.17453924086E+02 -0.10539078675E+02  0.28313494043E+02  0.00000000000E+00 0. -1.
         22    1    4    4    0    0 -0.42644619011E+01  0.14647824714E+02 -0.65855641463E+01  0.16616680152E+02  0.00000000000E+00 0. -1.
<mgrwt>
<rscale>  0 0.85452620E+02</rscale>
<asrwt>0</asrwt>
<pdfrwt beam="1">  1        1 0.32531132E-02 0.85452620E+02</pdfrwt>
<pdfrwt beam="2">  1       -1 0.13282043E-01 0.85452620E+02</pdfrwt>
<totfact> 0.98643340E+04</totfact>
</mgrwt>
</event>
<event>
 7    1  0.3607059E-009  0.9851185E+02  0.7818608E-02  0.1283457E+00
         -1   -1    0    0    0  501 -0.00000000000E+00  0.00000000000E+00  0.45112682499E+02  0.45112682780E+02  0.50400000000E-02 0.  1.
          1   -1    0    0  501    0  0.00000000000E+00 -0.00000000000E+00 -0.53779687627E+02  0.53779687864E+02  0.50400000000E-02 0. -1.
         23    2    1    2    0    0  0.00000000000E+00 -0.71054273576E-14 -0.86670051287E+01  0.98892370644E+02  0.98511846971E+02 0.  0.
    9000005    2    3    3    0    0 -0.11393387084E+02 -0.44338096003E+02  0.13089656324E+02  0.48206787447E+02  0.75418318019E+01 0.  0.
         22    1    3    3    0    0  0.11393387084E+02  0.44338096003E+02 -0.21756661453E+02  0.50685583196E+02  0.00000000000E+00 0. -1.
         22    1    4    4    0    0 -0.77670125120E+01 -0.17456210169E+02  0.34227052575E+01  0.19410323751E+02  0.00000000000E+00 0. -1.
         22    1    4    4    0    0 -0.36263745715E+01 -0.26881885834E+02  0.96669510666E+01  0.28796463697E+02  0.00000000000E+00 0. -1.
<mgrwt>
<rscale>  0 0.98511847E+02</rscale>
<asrwt>0</asrwt>
<pdfrwt beam="2">  1        1 0.82737981E-02 0.98511847E+02</pdfrwt>
<pdfrwt beam="1">  1       -1 0.69404128E-02 0.98511847E+02</pdfrwt>
<totfact> 0.76297332E+04</totfact>
</mgrwt>
</event>
<event>
 7    1  0.3607059E-009  0.9104038E+02  0.7818608E-02  0.1300352E+00
         -1   -1    0    0    0  501 -0.00000000000E+00  0.00000000000E+00  0.33776915480E+01  0.33776953082E+01  0.50400000000E-02 0.  1.
          1   -1    0    0  501    0  0.00000000000E+00 -0.00000000000E+00 -0.61346230151E+03  0.61346230153E+03  0.50400000000E-02 0. -1.
         23    2    1    2    0    0  0.00000000000E+00  0.00000000000E+00 -0.61008460996E+03  0.61683999684E+03  0.91040377788E+02 0.  0.
    9000005    2    3    3    0    0 -0.36177651443E+02  0.69863683547E+01 -0.48538190747E+03  0.48680770925E+03  0.53402134483E+01 0.  0.
         22    1    3    3    0    0  0.36177651443E+02 -0.69863683547E+01 -0.12470270249E+03  0.13003228759E+03  0.00000000000E+00 0.  1.
         22    1    4    4    0    0 -0.11144744323E+02 -0.84092593762E-01 -0.16000555575E+03  0.16039323636E+03  0.00000000000E+00 0. -1.
         22    1    4    4    0    0 -0.25032907120E+02  0.70704609485E+01 -0.32537635172E+03  0.32641447289E+03  0.00000000000E+00 0. -1.
<mgrwt>
<rscale>  0 0.91040378E+02</rscale>
<asrwt>0</asrwt>
<pdfrwt beam="2">  1        1 0.94378727E-01 0.91040378E+02</pdfrwt>
<pdfrwt beam="1">  1       -1 0.51964563E-03 0.91040378E+02</pdfrwt>
<totfact> 0.14232469E+05</totfact>
</mgrwt>
</event>
<event>
 7    1  0.3607059E-009  0.9079492E+02  0.7818608E-02  0.1300938E+00
          1   -1    0    0  501    0  0.00000000000E+00  0.00000000000E+00  0.43513732121E+02  0.43513732413E+02  0.50400000000E-02 0. -1.
         -1   -1    0    0    0  501 -0.00000000000E+00 -0.00000000000E+00 -0.47362733873E+02  0.47362734142E+02  0.50400000000E-02 0.  1.
         23    2    1    2    0    0 -0.35527136788E-14  0.17763568394E-14 -0.38490017525E+01  0.90876466554E+02  0.90794919235E+02 0.  0.
    9000005    2    3    3    0    0 -0.27966929471E+02  0.91007111980E+01  0.31322062579E+02  0.45029156333E+02  0.13475207886E+02 0.  0.
         22    1    3    3    0    0  0.27966929471E+02 -0.91007111980E+01 -0.35171064331E+02  0.45847310221E+02  0.00000000000E+00 0.  1.
         22    1    4    4    0    0 -0.28397572493E+02  0.57874178479E+01  0.28633928498E+02  0.40740866339E+02  0.00000000000E+00 0.  1.
         22    1    4    4    0    0  0.43064302235E+00  0.33132933500E+01  0.26881340812E+01  0.42882899943E+01  0.00000000000E+00 0.  1.
<mgrwt>
<rscale>  0 0.90794919E+02</rscale>
<asrwt>0</asrwt>
<pdfrwt beam="1">  1        1 0.66944203E-02 0.90794919E+02</pdfrwt>
<pdfrwt beam="2">  1       -1 0.72865745E-02 0.90794919E+02</pdfrwt>
<totfact> 0.92916212E+04</totfact>
</mgrwt>
</event>
<event>
 7    1  0.3607059E-009  0.8762298E+02  0.7818608E-02  0.1308712E+00
         -1   -1    0    0    0  501 -0.00000000000E+00  0.00000000000E+00  0.67944948276E+01  0.67944966968E+01  0.50400000000E-02 0.  1.
          1   -1    0    0  501    0  0.00000000000E+00 -0.00000000000E+00 -0.28250021190E+03  0.28250021194E+03  0.50400000000E-02 0. -1.
         23    2    1    2    0    0  0.00000000000E+00  0.22204460493E-15 -0.27570571707E+03  0.28929470864E+03  0.87622976562E+02 0.  0.
    9000005    2    3    3    0    0 -0.15917743656E+02 -0.19192018496E+01 -0.27230144182E+03  0.27290425444E+03  0.84616176973E+01 0.  0.
         22    1    3    3    0    0  0.15917743656E+02  0.19192018496E+01 -0.34042752450E+01  0.16390454197E+02  0.00000000000E+00 0.  1.
         22    1    4    4    0    0 -0.88162492844E+01 -0.18702727370E+01 -0.86735731980E+02  0.87202702789E+02  0.00000000000E+00 0.  1.
         22    1    4    4    0    0 -0.71014943714E+01 -0.48929112692E-01 -0.18556570984E+03  0.18570155165E+03  0.00000000000E+00 0.  1.
<mgrwt>
<rscale>  0 0.87622977E+02</rscale>
<asrwt>0</asrwt>
<pdfrwt beam="2">  1        1 0.43461562E-01 0.87622977E+02</pdfrwt>
<pdfrwt beam="1">  1       -1 0.10453073E-02 0.87622977E+02</pdfrwt>
<totfact> 0.14077750E+05</totfact>
</mgrwt>
</event>
<event>
 7    1  0.3607059E-009  0.9062487E+02  0.7818608E-02  0.1301346E+00
         -1   -1    0    0    0  501 -0.00000000000E+00  0.00000000000E+00  0.27385563555E+02  0.27385564019E+02  0.50400000000E-02 0.  1.
          1   -1    0    0  501    0  0.00000000000E+00 -0.00000000000E+00 -0.74974416892E+02  0.74974417062E+02  0.50400000000E-02 0. -1.
         23    2    1    2    0    0 -0.88817841970E-15  0.00000000000E+00 -0.47588853337E+02  0.10235998108E+03  0.90624868358E+02 0.  0.
    9000005    2    3    3    0    0  0.57796473272E+01  0.41294902801E+02 -0.42465148575E+02  0.60348962633E+02  0.10001756187E+02 0.  0.
         22    1    3    3    0    0 -0.57796473272E+01 -0.41294902801E+02 -0.51237047620E+01  0.42011018448E+02  0.00000000000E+00 0.  1.
         22    1    4    4    0    0  0.76586991651E+01  0.37500979252E+02 -0.35532883889E+02  0.52226094581E+02  0.00000000000E+00 0.  1.
         22    1    4    4    0    0 -0.18790518379E+01  0.37939235484E+01 -0.69322646862E+01  0.81228680513E+01  0.00000000000E+00 0.  1.
<mgrwt>
<rscale>  0 0.90624868E+02</rscale>
<asrwt>0</asrwt>
<pdfrwt beam="2">  1        1 0.11534526E-01 0.90624868E+02</pdfrwt>
<pdfrwt beam="1">  1       -1 0.42131637E-02 0.90624868E+02</pdfrwt>
<totfact> 0.10140235E+05</totfact>
</mgrwt>
</event>
<event>
 7    1  0.3607059E-009  0.9038799E+02  0.7818608E-02  0.1301915E+00
          1   -1    0    0  501    0  0.00000000000E+00  0.00000000000E+00  0.73358383507E+02  0.73358383680E+02  0.50400000000E-02 0. -1.
         -1   -1    0    0    0  501 -0.00000000000E+00 -0.00000000000E+00 -0.27842721565E+02  0.27842722021E+02  0.50400000000E-02 0.  1.
         23    2    1    2    0    0  0.00000000000E+00  0.00000000000E+00  0.45515661942E+02  0.10120110570E+03  0.90387987659E+02 0.  0.
    9000005    2    3    3    0    0  0.75433433109E+01  0.34840899680E+02  0.52792800928E+02  0.64817770634E+02  0.11978031613E+02 0.  0.
         22    1    3    3    0    0 -0.75433433109E+01 -0.34840899680E+02 -0.72771389854E+01  0.36383335067E+02  0.00000000000E+00 0.  1.
         22    1    4    4    0    0 -0.74110943338E+00  0.83176213921E+01  0.56076820755E+01  0.10058735859E+02  0.00000000000E+00 0.  1.
         22    1    4    4    0    0  0.82844527443E+01  0.26523278288E+02  0.47185118852E+02  0.54759034775E+02  0.00000000000E+00 0.  1.
<mgrwt>
<rscale>  0 0.90387988E+02</rscale>
<asrwt>0</asrwt>
<pdfrwt beam="1">  1        1 0.11285905E-01 0.90387988E+02</pdfrwt>
<pdfrwt beam="2">  1       -1 0.42834957E-02 0.90387988E+02</pdfrwt>
<totfact> 0.10178936E+05</totfact>
</mgrwt>
</event>
<event>
 7    1  0.3607059E-009  0.8653950E+02  0.7818608E-02  0.1311455E+00
         -1   -1    0    0    0  501 -0.00000000000E+00  0.00000000000E+00  0.13868197920E+02  0.13868198836E+02  0.50400000000E-02 0.  1.
          1   -1    0    0  501    0  0.00000000000E+00 -0.00000000000E+00 -0.13500465377E+03  0.13500465387E+03  0.50400000000E-02 0. -1.
         23    2    1    2    0    0  0.00000000000E+00  0.00000000000E+00 -0.12113645585E+03  0.14887285270E+03  0.86539501589E+02 0.  0.
    9000005    2    3    3    0    0  0.92203663726E+01 -0.11914392483E+02 -0.13025475130E+03  0.13126287780E+03  0.60559845710E+01 0.  0.
         22    1    3    3    0    0 -0.92203663726E+01  0.11914392483E+02  0.91182954427E+01  0.17609974902E+02  0.00000000000E+00 0.  1.
         22    1    4    4    0    0  0.21661021553E+01 -0.23896516036E+00 -0.30799077955E+02  0.30876079832E+02  0.00000000000E+00 0.  1.
         22    1    4    4    0    0  0.70542642172E+01 -0.11675427322E+02 -0.99455673342E+02  0.10038679797E+03  0.00000000000E+00 0.  1.
<mgrwt>
<rscale>  0 0.86539502E+02</rscale>
<asrwt>0</asrwt>
<pdfrwt beam="2">  1        1 0.20769946E-01 0.86539502E+02</pdfrwt>
<pdfrwt beam="1">  1       -1 0.21335691E-02 0.86539502E+02</pdfrwt>
<totfact> 0.12661716E+05</totfact>
</mgrwt>
</event>
<event>
 7    1  0.3607059E-009  0.1018300E+03  0.7818608E-02  0.1276494E+00
          1   -1    0    0  501    0  0.00000000000E+00  0.00000000000E+00  0.95611973848E+01  0.95611987132E+01  0.50400000000E-02 0. -1.
         -1   -1    0    0    0  501 -0.00000000000E+00 -0.00000000000E+00 -0.27113091109E+03  0.27113091113E+03  0.50400000000E-02 0.  1.
         23    2    1    2    0    0  0.00000000000E+00  0.00000000000E+00 -0.26156971370E+03  0.28069210985E+03  0.10182998283E+03 0.  0.
    9000005    2    3    3    0    0 -0.32997576265E+02 -0.19237009805E+02 -0.40925333817E+02  0.56766128861E+02  0.94131743969E+01 0.  0.
         22    1    3    3    0    0  0.32997576265E+02  0.19237009805E+02 -0.22064437988E+03  0.22392598098E+03  0.00000000000E+00 0.  1.
         22    1    4    4    0    0 -0.48054007661E+01 -0.72292780932E+01 -0.83955315088E+01  0.12076393815E+02  0.00000000000E+00 0.  1.
         22    1    4    4    0    0 -0.28192175499E+02 -0.12007731712E+02 -0.32529802308E+02  0.44689735046E+02  0.00000000000E+00 0.  1.
<mgrwt>
<rscale>  0 0.10182998E+03</rscale>
<asrwt>0</asrwt>
<pdfrwt beam="1">  1        1 0.14709538E-02 0.10182998E+03</pdfrwt>
<pdfrwt beam="2">  1       -1 0.41712442E-01 0.10182998E+03</pdfrwt>
<totfact> 0.47106221E+04</totfact>
</mgrwt>
</event>
<event>
 7    1  0.3607059E-009  0.9089578E+02  0.7818608E-02  0.1300697E+00
         -1   -1    0    0    0  501 -0.00000000000E+00  0.00000000000E+00  0.11126303143E+02  0.11126304285E+02  0.50400000000E-02 0.  1.
          1   -1    0    0  501    0  0.00000000000E+00 -0.00000000000E+00 -0.18564213077E+03  0.18564213084E+03  0.50400000000E-02 0. -1.
         23    2    1    2    0    0  0.17763568394E-14 -0.71054273576E-14 -0.17451582763E+03  0.19676843513E+03  0.90895780809E+02 0.  0.
    9000005    2    3    3    0    0  0.94038055817E+01 -0.37034879883E+02 -0.37468700861E+02  0.54494302400E+02  0.10281612837E+02 0.  0.
         22    1    3    3    0    0 -0.94038055817E+01  0.37034879883E+02 -0.13704712677E+03  0.14227413273E+03  0.00000000000E+00 0. -1.
         22    1    4    4    0    0  0.10963832419E+02 -0.34728382773E+02 -0.36460564570E+02  0.51532892021E+02  0.00000000000E+00 0. -1.
         22    1    4    4    0    0 -0.15600268373E+01 -0.23064971099E+01 -0.10081362913E+01  0.29614103790E+01  0.00000000000E+00 0. -1.
<mgrwt>
<rscale>  0 0.90895781E+02</rscale>
<asrwt>0</asrwt>
<pdfrwt beam="2">  1        1 0.28560326E-01 0.90895781E+02</pdfrwt>
<pdfrwt beam="1">  1       -1 0.17117392E-02 0.90895781E+02</pdfrwt>
<totfact> 0.11768639E+05</totfact>
</mgrwt>
</event>
<event>
 7    1  0.3607059E-009  0.9128460E+02  0.7818608E-02  0.1299770E+00
          1   -1    0    0  501    0  0.00000000000E+00  0.00000000000E+00  0.96716829132E+03  0.96716829133E+03  0.50400000000E-02 0. -1.
         -1   -1    0    0    0  501 -0.00000000000E+00 -0.00000000000E+00 -0.21539341461E+01  0.21539400427E+01  0.50400000000E-02 0.  1.
         23    2    1    2    0    0  0.00000000000E+00  0.00000000000E+00  0.96501435717E+03  0.96932223137E+03  0.91284602686E+02 0.  0.
    9000005    2    3    3    0    0  0.17055576440E+02  0.32908864626E+02  0.76335794834E+03  0.76428761654E+03  0.68056915736E+01 0.  0.
         22    1    3    3    0    0 -0.17055576440E+02 -0.32908864626E+02  0.20165640883E+03  0.20503461484E+03  0.00000000000E+00 0. -1.
         22    1    4    4    0    0  0.61114278266E+01  0.19145868520E+02  0.40154222587E+03  0.40204486440E+03  0.00000000000E+00 0.  1.
         22    1    4    4    0    0  0.10944148613E+02  0.13762996107E+02  0.36181572246E+03  0.36224275213E+03  0.00000000000E+00 0.  1.
<mgrwt>
<rscale>  0 0.91284603E+02</rscale>
<asrwt>0</asrwt>
<pdfrwt beam="1">  1        1 0.14879508E+00 0.91284603E+02</pdfrwt>
<pdfrwt beam="2">  1       -1 0.33137502E-03 0.91284603E+02</pdfrwt>
<totfact> 0.13672755E+05</totfact>
</mgrwt>
</event>
<event>
 7    1  0.3607059E-009  0.8980554E+02  0.7818608E-02  0.1303323E+00
          1   -1    0    0  501    0  0.00000000000E+00  0.00000000000E+00  0.16437850645E+02  0.16437851418E+02  0.50400000000E-02 0. -1.
         -1   -1    0    0    0  501 -0.00000000000E+00 -0.00000000000E+00 -0.12265950300E+03  0.12265950310E+03  0.50400000000E-02 0.  1.
         23    2    1    2    0    0  0.00000000000E+00 -0.71054273576E-14 -0.10622165235E+03  0.13909735452E+03  0.89805537722E+02 0.  0.
    9000005    2    3    3    0    0 -0.13905332064E+02 -0.33389460527E+02 -0.93069677680E+02  0.10061113917E+03  0.12345934055E+02 0.  0.
         22    1    3    3    0    0  0.13905332064E+02  0.33389460527E+02 -0.13151974674E+02  0.38486215349E+02  0.00000000000E+00 0. -1.
         22    1    4    4    0    0 -0.15026539538E+02 -0.27480516232E+02 -0.84693819821E+02  0.90299605640E+02  0.00000000000E+00 0. -1.
         22    1    4    4    0    0  0.11212074741E+01 -0.59089442952E+01 -0.83758578589E+01  0.10311533531E+02  0.00000000000E+00 0. -1.
<mgrwt>
<rscale>  0 0.89805538E+02</rscale>
<asrwt>0</asrwt>
<pdfrwt beam="1">  1        1 0.25289002E-02 0.89805538E+02</pdfrwt>
<pdfrwt beam="2">  1       -1 0.18870692E-01 0.89805538E+02</pdfrwt>
<totfact> 0.81298469E+04</totfact>
</mgrwt>
</event>
<event>
 7    1  0.3607059E-009  0.9378925E+02  0.7818608E-02  0.1293927E+00
         -1   -1    0    0    0  501 -0.00000000000E+00  0.00000000000E+00  0.50686859579E+01  0.50686884637E+01  0.50400000000E-02 0.  1.
          1   -1    0    0  501    0  0.00000000000E+00 -0.00000000000E+00 -0.43386101945E+03  0.43386101948E+03  0.50400000000E-02 0. -1.
         23    2    1    2    0    0  0.00000000000E+00  0.17763568394E-14 -0.42879233349E+03  0.43892970794E+03  0.93789249135E+02 0.  0.
    9000005    2    3    3    0    0 -0.45389277118E+02 -0.10277538983E+02 -0.19353450335E+03  0.19911298432E+03  0.49560320989E+01 0.  0.
         22    1    3    3    0    0  0.45389277118E+02  0.10277538983E+02 -0.23525783014E+03  0.23981672362E+03  0.00000000000E+00 0.  1.
         22    1    4    4    0    0 -0.17960530982E+02 -0.25505761520E+01 -0.67301016920E+02  0.69703034298E+02  0.00000000000E+00 0.  1.
         22    1    4    4    0    0 -0.27428746135E+02 -0.77269628308E+01 -0.12623348643E+03  0.12940995003E+03  0.00000000000E+00 0.  1.
<mgrwt>
<rscale>  0 0.93789249E+02</rscale>
<asrwt>0</asrwt>
<pdfrwt beam="2">  1        1 0.66747820E-01 0.93789249E+02</pdfrwt>
<pdfrwt beam="1">  1       -1 0.77979838E-03 0.93789249E+02</pdfrwt>
<totfact> 0.12674142E+05</totfact>
</mgrwt>
</event>
<event>
 7    1  0.3607059E-009  0.1001242E+03  0.7818608E-02  0.1280035E+00
          1   -1    0    0  501    0  0.00000000000E+00  0.00000000000E+00  0.37016022343E+02  0.37016022687E+02  0.50400000000E-02 0. -1.
         -1   -1    0    0    0  501 -0.00000000000E+00 -0.00000000000E+00 -0.67706162249E+02  0.67706162436E+02  0.50400000000E-02 0.  1.
         23    2    1    2    0    0  0.00000000000E+00  0.00000000000E+00 -0.30690139905E+02  0.10472218512E+03  0.10012417974E+03 0.  0.
    9000005    2    3    3    0    0  0.17847853300E+02  0.47629061286E+01  0.32492461437E+02  0.38894590190E+02  0.10760945758E+02 0.  0.
         22    1    3    3    0    0 -0.17847853300E+02 -0.47629061286E+01 -0.63182601342E+02  0.65827594932E+02  0.00000000000E+00 0.  1.
         22    1    4    4    0    0  0.37042696794E+01 -0.34166369600E+01  0.75571056760E+01  0.90832190424E+01  0.00000000000E+00 0. -1.
         22    1    4    4    0    0  0.14143583621E+02  0.81795430886E+01  0.24935355761E+02  0.29811371148E+02  0.00000000000E+00 0. -1.
<mgrwt>
<rscale>  0 0.10012418E+03</rscale>
<asrwt>0</asrwt>
<pdfrwt beam="1">  1        1 0.56947727E-02 0.10012418E+03</pdfrwt>
<pdfrwt beam="2">  1       -1 0.10416333E-01 0.10012418E+03</pdfrwt>
<totfact> 0.68534615E+04</totfact>
</mgrwt>
</event>
<event>
 7    1  0.3607059E-009  0.9136962E+02  0.7818608E-02  0.1299568E+00
          1   -1    0    0  501    0  0.00000000000E+00  0.00000000000E+00  0.56852828573E+02  0.56852828796E+02  0.50400000000E-02 0. -1.
         -1   -1    0    0    0  501 -0.00000000000E+00 -0.00000000000E+00 -0.36710604347E+02  0.36710604693E+02  0.50400000000E-02 0.  1.
         23    2    1    2    0    0  0.00000000000E+00 -0.44408920985E-15  0.20142224226E+02  0.93563433489E+02  0.91369616884E+02 0.  0.
    9000005    2    3    3    0    0  0.23577250017E+02  0.35066170012E+01 -0.28818786035E+02  0.39108281235E+02  0.11434690703E+02 0.  0.
         22    1    3    3    0    0 -0.23577250017E+02 -0.35066170012E+01  0.48961010262E+02  0.54455152254E+02  0.00000000000E+00 0.  1.
         22    1    4    4    0    0  0.17270739940E+02  0.76400683984E+01 -0.20061483411E+02  0.27551991214E+02  0.00000000000E+00 0. -1.
         22    1    4    4    0    0  0.63065100769E+01 -0.41334513972E+01 -0.87573026248E+01  0.11556290022E+02  0.00000000000E+00 0. -1.
<mgrwt>
<rscale>  0 0.91369617E+02</rscale>
<asrwt>0</asrwt>
<pdfrwt beam="1">  1        1 0.87465891E-02 0.91369617E+02</pdfrwt>
<pdfrwt beam="2">  1       -1 0.56477853E-02 0.91369617E+02</pdfrwt>
<totfact> 0.95030300E+04</totfact>
</mgrwt>
</event>
<event>
 7    1  0.3607059E-009  0.9156237E+02  0.7818608E-02  0.1299112E+00
          1   -1    0    0  501    0  0.00000000000E+00  0.00000000000E+00  0.25787207339E+01  0.25787256592E+01  0.50400000000E-02 0. -1.
         -1   -1    0    0    0  501 -0.00000000000E+00 -0.00000000000E+00 -0.81277310469E+03  0.81277310470E+03  0.50400000000E-02 0.  1.
         23    2    1    2    0    0  0.17763568394E-14  0.00000000000E+00 -0.81019438395E+03  0.81535183036E+03  0.91562369373E+02 0.  0.
    9000005    2    3    3    0    0 -0.14727732839E+02  0.11185130577E+02 -0.77734275023E+03  0.77765245240E+03  0.11814064691E+02 0.  0.
         22    1    3    3    0    0  0.14727732839E+02 -0.11185130577E+02 -0.32851633724E+02  0.37699377965E+02  0.00000000000E+00 0. -1.
         22    1    4    4    0    0 -0.67493288644E+01  0.97261919450E+01 -0.60835069075E+03  0.60846587019E+03  0.00000000000E+00 0. -1.
         22    1    4    4    0    0 -0.79784039745E+01  0.14589386325E+01 -0.16899205948E+03  0.16918658220E+03  0.00000000000E+00 0. -1.
<mgrwt>
<rscale>  0 0.91562369E+02</rscale>
<asrwt>0</asrwt>
<pdfrwt beam="1">  1        1 0.39672730E-03 0.91562369E+02</pdfrwt>
<pdfrwt beam="2">  1       -1 0.12504181E+00 0.91562369E+02</pdfrwt>
<totfact> 0.31796702E+04</totfact>
</mgrwt>
</event>
<event>
 7    1  0.3607059E-009  0.9225274E+02  0.7818608E-02  0.1297486E+00
          1   -1    0    0  501    0  0.00000000000E+00  0.00000000000E+00  0.10972350073E+02  0.10972351230E+02  0.50400000000E-02 0. -1.
         -1   -1    0    0    0  501 -0.00000000000E+00 -0.00000000000E+00 -0.19390941694E+03  0.19390941700E+03  0.50400000000E-02 0.  1.
         23    2    1    2    0    0  0.71054273576E-14  0.35527136788E-14 -0.18293706687E+03  0.20488176823E+03  0.92252742621E+02 0.  0.
    9000005    2    3    3    0    0 -0.39915215557E+02 -0.14895784071E+02 -0.12781041831E+03  0.13521071113E+03  0.11459692910E+02 0.  0.
         22    1    3    3    0    0  0.39915215557E+02  0.14895784071E+02 -0.55126648559E+02  0.69671057099E+02  0.00000000000E+00 0. -1.
         22    1    4    4    0    0 -0.93776783358E+01 -0.47270614593E+01 -0.48385462989E+02  0.49512008540E+02  0.00000000000E+00 0. -1.
         22    1    4    4    0    0 -0.30537537221E+02 -0.10168722612E+02 -0.79424955318E+02  0.85698702594E+02  0.00000000000E+00 0. -1.
<mgrwt>
<rscale>  0 0.92252743E+02</rscale>
<asrwt>0</asrwt>
<pdfrwt beam="1">  1        1 0.16880541E-02 0.92252743E+02</pdfrwt>
<pdfrwt beam="2">  1       -1 0.29832216E-01 0.92252743E+02</pdfrwt>
<totfact> 0.67924730E+04</totfact>
</mgrwt>
</event>
<event>
 7    1  0.3607059E-009  0.9219761E+02  0.7818608E-02  0.1297615E+00
          1   -1    0    0  501    0  0.00000000000E+00  0.00000000000E+00  0.41063028759E+02  0.41063029069E+02  0.50400000000E-02 0. -1.
         -1   -1    0    0    0  501 -0.00000000000E+00 -0.00000000000E+00 -0.51752140975E+02  0.51752141220E+02  0.50400000000E-02 0.  1.
         23    2    1    2    0    0  0.00000000000E+00  0.00000000000E+00 -0.10689112216E+02  0.92815170289E+02  0.92197606888E+02 0.  0.
    9000005    2    3    3    0    0  0.28485974812E+02  0.21812689587E+02 -0.34249085348E+02  0.49892955504E+02  0.53910086014E+01 0.  0.
         22    1    3    3    0    0 -0.28485974812E+02 -0.21812689587E+02  0.23559973133E+02  0.42922214785E+02  0.00000000000E+00 0. -1.
         22    1    4    4    0    0  0.21997597857E+02  0.15015169337E+02 -0.22630298306E+02  0.34949678441E+02  0.00000000000E+00 0. -1.
         22    1    4    4    0    0  0.64883769550E+01  0.67975202496E+01 -0.11618787042E+02  0.14943277063E+02  0.00000000000E+00 0. -1.
<mgrwt>
<rscale>  0 0.92197607E+02</rscale>
<asrwt>0</asrwt>
<pdfrwt beam="1">  1        1 0.63173891E-02 0.92197607E+02</pdfrwt>
<pdfrwt beam="2">  1       -1 0.79618678E-02 0.92197607E+02</pdfrwt>
<totfact> 0.88205479E+04</totfact>
</mgrwt>
</event>
<event>
 7    1  0.3607059E-009  0.9690282E+02  0.7818608E-02  0.1286947E+00
          1   -1    0    0  501    0  0.00000000000E+00  0.00000000000E+00  0.32645706034E+02  0.32645706423E+02  0.50400000000E-02 0. -1.
         -1   -1    0    0    0  501 -0.00000000000E+00 -0.00000000000E+00 -0.71909588173E+02  0.71909588350E+02  0.50400000000E-02 0.  1.
         23    2    1    2    0    0  0.17763568394E-14  0.00000000000E+00 -0.39263882140E+02  0.10455529477E+03  0.96902823614E+02 0.  0.
    9000005    2    3    3    0    0  0.14459127897E+02  0.45053425780E+02 -0.14753173232E+02  0.51266905745E+02  0.13105798345E+02 0.  0.
         22    1    3    3    0    0 -0.14459127897E+02 -0.45053425780E+02 -0.24510708908E+02  0.53288389028E+02  0.00000000000E+00 0.  1.
         22    1    4    4    0    0  0.13048462699E+02  0.27118619551E+02 -0.14179141712E+02  0.33267551231E+02  0.00000000000E+00 0. -1.
         22    1    4    4    0    0  0.14106651973E+01  0.17934806229E+02 -0.57403151940E+00  0.17999354515E+02  0.00000000000E+00 0. -1.
<mgrwt>
<rscale>  0 0.96902824E+02</rscale>
<asrwt>0</asrwt>
<pdfrwt beam="1">  1        1 0.50224164E-02 0.96902824E+02</pdfrwt>
<pdfrwt beam="2">  1       -1 0.11063014E-01 0.96902824E+02</pdfrwt>
<totfact> 0.73745936E+04</totfact>
</mgrwt>
</event>
<event>
 7    1  0.3607059E-009  0.9085853E+02  0.7818608E-02  0.1300786E+00
          1   -1    0    0  501    0  0.00000000000E+00  0.00000000000E+00  0.38069968550E+03  0.38069968554E+03  0.50400000000E-02 0. -1.
         -1   -1    0    0    0  501 -0.00000000000E+00 -0.00000000000E+00 -0.54211167332E+01  0.54211190760E+01  0.50400000000E-02 0.  1.
         23    2    1    2    0    0  0.71054273576E-14  0.17763568394E-14  0.37527856877E+03  0.38612080461E+03  0.90858525063E+02 0.  0.
    9000005    2    3    3    0    0  0.38827938961E+02 -0.12458994134E+02  0.26804134600E+03  0.27139217991E+03  0.12029828418E+02 0.  0.
         22    1    3    3    0    0 -0.38827938961E+02  0.12458994134E+02  0.10723722277E+03  0.11472862471E+03  0.00000000000E+00 0.  1.
         22    1    4    4    0    0  0.36053077486E+02 -0.13890132522E+02  0.22996466779E+03  0.23318771110E+03  0.00000000000E+00 0. -1.
         22    1    4    4    0    0  0.27748614754E+01  0.14311383871E+01  0.38076678208E+02  0.38204468805E+02  0.00000000000E+00 0. -1.
<mgrwt>
<rscale>  0 0.90858525E+02</rscale>
<asrwt>0</asrwt>
<pdfrwt beam="1">  1        1 0.58569177E-01 0.90858525E+02</pdfrwt>
<pdfrwt beam="2">  1       -1 0.83401821E-03 0.90858525E+02</pdfrwt>
<totfact> 0.13502862E+05</totfact>
</mgrwt>
</event>
<event>
 7    1  0.3607059E-009  0.9015901E+02  0.7818608E-02  0.1302467E+00
          1   -1    0    0  501    0  0.00000000000E+00  0.00000000000E+00  0.12282569288E+02  0.12282570322E+02  0.50400000000E-02 0. -1.
         -1   -1    0    0    0  501 -0.00000000000E+00 -0.00000000000E+00 -0.16545087357E+03  0.16545087365E+03  0.50400000000E-02 0.  1.
         23    2    1    2    0    0  0.00000000000E+00 -0.35527136788E-14 -0.15316830428E+03  0.17773344397E+03  0.90159013240E+02 0.  0.
    9000005    2    3    3    0    0  0.29062214316E+02  0.28959777119E+02 -0.42464353805E+02  0.59671402469E+02  0.86124292089E+01 0.  0.
         22    1    3    3    0    0 -0.29062214316E+02 -0.28959777119E+02 -0.11070395048E+03  0.11806204150E+03  0.00000000000E+00 0.  1.
         22    1    4    4    0    0  0.19377841301E+02  0.20060483598E+02 -0.34228196094E+02  0.44153064939E+02  0.00000000000E+00 0.  1.
         22    1    4    4    0    0  0.96843730153E+01  0.88992935207E+01 -0.82361577108E+01  0.15518337530E+02  0.00000000000E+00 0.  1.
<mgrwt>
<rscale>  0 0.90159013E+02</rscale>
<asrwt>0</asrwt>
<pdfrwt beam="1">  1        1 0.18896262E-02 0.90159013E+02</pdfrwt>
<pdfrwt beam="2">  1       -1 0.25453979E-01 0.90159013E+02</pdfrwt>
<totfact> 0.75196434E+04</totfact>
</mgrwt>
</event>
<event>
 7    1  0.3607059E-009  0.8919294E+02  0.7818608E-02  0.1304818E+00
         -1   -1    0    0    0  501 -0.00000000000E+00  0.00000000000E+00  0.27221368196E+02  0.27221368663E+02  0.50400000000E-02 0.  1.
          1   -1    0    0  501    0  0.00000000000E+00 -0.00000000000E+00 -0.73061914757E+02  0.73061914931E+02  0.50400000000E-02 0. -1.
         23    2    1    2    0    0  0.00000000000E+00  0.35527136788E-14 -0.45840546561E+02  0.10028328359E+03  0.89192944000E+02 0.  0.
    9000005    2    3    3    0    0 -0.88936064676E+01 -0.30218222899E+02 -0.58076471359E+02  0.66490457627E+02  0.74744363479E+01 0.  0.
         22    1    3    3    0    0  0.88936064676E+01  0.30218222899E+02  0.12235924798E+02  0.33792825967E+02  0.00000000000E+00 0.  1.
         22    1    4    4    0    0 -0.49433491268E+01 -0.18218781791E+02 -0.27003897229E+02  0.32948007164E+02  0.00000000000E+00 0.  1.
         22    1    4    4    0    0 -0.39502573408E+01 -0.11999441108E+02 -0.31072574130E+02  0.33542450463E+02  0.00000000000E+00 0.  1.
<mgrwt>
<rscale>  0 0.89192944E+02</rscale>
<asrwt>0</asrwt>
<pdfrwt beam="2">  1        1 0.11240295E-01 0.89192944E+02</pdfrwt>
<pdfrwt beam="1">  1       -1 0.41879029E-02 0.89192944E+02</pdfrwt>
<totfact> 0.10551079E+05</totfact>
</mgrwt>
</event>
<event>
 7    1  0.3607059E-009  0.9028752E+02  0.7818608E-02  0.1302157E+00
         -1   -1    0    0    0  501 -0.00000000000E+00  0.00000000000E+00  0.62662063318E+01  0.62662083587E+01  0.50400000000E-02 0.  1.
          1   -1    0    0  501    0  0.00000000000E+00 -0.00000000000E+00 -0.32523005566E+03  0.32523005570E+03  0.50400000000E-02 0. -1.
         23    2    1    2    0    0  0.00000000000E+00  0.00000000000E+00 -0.31896384933E+03  0.33149626406E+03  0.90287517997E+02 0.  0.
    9000005    2    3    3    0    0  0.19128728481E+02  0.35274273145E+02 -0.94362355075E+02  0.10333839367E+03  0.12821347502E+02 0.  0.
         22    1    3    3    0    0 -0.19128728481E+02 -0.35274273145E+02 -0.22460149425E+03  0.22815787039E+03  0.00000000000E+00 0. -1.
         22    1    4    4    0    0  0.13340713133E+02  0.11507743061E+02 -0.37137986746E+02  0.41105143678E+02  0.00000000000E+00 0. -1.
         22    1    4    4    0    0  0.57880153484E+01  0.23766530084E+02 -0.57224368329E+02  0.62233249992E+02  0.00000000000E+00 0. -1.
<mgrwt>
<rscale>  0 0.90287518E+02</rscale>
<asrwt>0</asrwt>
<pdfrwt beam="2">  1        1 0.50035380E-01 0.90287518E+02</pdfrwt>
<pdfrwt beam="1">  1       -1 0.96403215E-03 0.90287518E+02</pdfrwt>
<totfact> 0.13351805E+05</totfact>
</mgrwt>
</event>
<event>
 7    1  0.3607059E-009  0.9093839E+02  0.7818608E-02  0.1300595E+00
          1   -1    0    0  501    0  0.00000000000E+00  0.00000000000E+00  0.17450268937E+02  0.17450269665E+02  0.50400000000E-02 0. -1.
         -1   -1    0    0    0  501 -0.00000000000E+00 -0.00000000000E+00 -0.11847653736E+03  0.11847653747E+03  0.50400000000E-02 0.  1.
         23    2    1    2    0    0 -0.71054273576E-14  0.22204460493E-15 -0.10102626843E+03  0.13592680714E+03  0.90938385657E+02 0.  0.
    9000005    2    3    3    0    0  0.38090436995E+02 -0.95659747279E+00 -0.17684283510E+02  0.44287934822E+02  0.14031778873E+02 0.  0.
         22    1    3    3    0    0 -0.38090436995E+02  0.95659747279E+00 -0.83341984916E+02  0.91638872314E+02  0.00000000000E+00 0.  1.
         22    1    4    4    0    0  0.26260410636E+01 -0.40542850895E+01 -0.35072685990E+01  0.59694432136E+01  0.00000000000E+00 0. -1.
         22    1    4    4    0    0  0.35464395931E+02  0.30976876167E+01 -0.14177014911E+02  0.38318491608E+02  0.00000000000E+00 0. -1.
<mgrwt>
<rscale>  0 0.90938386E+02</rscale>
<asrwt>0</asrwt>
<pdfrwt beam="1">  1        1 0.26846569E-02 0.90938386E+02</pdfrwt>
<pdfrwt beam="2">  1       -1 0.18227159E-01 0.90938386E+02</pdfrwt>
<totfact> 0.79270211E+04</totfact>
</mgrwt>
</event>
<event>
 7    1  0.3607059E-009  0.9126221E+02  0.7818608E-02  0.1299824E+00
         -1   -1    0    0    0  501 -0.00000000000E+00  0.00000000000E+00  0.42410634530E+02  0.42410634829E+02  0.50400000000E-02 0.  1.
          1   -1    0    0  501    0  0.00000000000E+00 -0.00000000000E+00 -0.49096127181E+02  0.49096127439E+02  0.50400000000E-02 0. -1.
         23    2    1    2    0    0  0.00000000000E+00  0.00000000000E+00 -0.66854926511E+01  0.91506762268E+02  0.91262214135E+02 0.  0.
    9000005    2    3    3    0    0  0.29825118967E+02 -0.22103612413E+02 -0.29275859021E+02  0.48050668842E+02  0.85839065440E+01 0.  0.
         22    1    3    3    0    0 -0.29825118967E+02  0.22103612413E+02  0.22590366370E+02  0.43456093427E+02  0.00000000000E+00 0.  1.
         22    1    4    4    0    0  0.27776257884E+02 -0.17014531121E+02 -0.24228736563E+02  0.40596138323E+02  0.00000000000E+00 0. -1.
         22    1    4    4    0    0  0.20488610830E+01 -0.50890812929E+01 -0.50471224582E+01  0.74545305185E+01  0.00000000000E+00 0. -1.
<mgrwt>
<rscale>  0 0.91262214E+02</rscale>
<asrwt>0</asrwt>
<pdfrwt beam="2">  1        1 0.75532504E-02 0.91262214E+02</pdfrwt>
<pdfrwt beam="1">  1       -1 0.65247131E-02 0.91262214E+02</pdfrwt>
<totfact> 0.93262753E+04</totfact>
</mgrwt>
</event>
<event>
 7    1  0.3607059E-009  0.9098867E+02  0.7818608E-02  0.1300475E+00
          1   -1    0    0  501    0  0.00000000000E+00  0.00000000000E+00  0.16673534543E+03  0.16673534551E+03  0.50400000000E-02 0. -1.
         -1   -1    0    0    0  501 -0.00000000000E+00 -0.00000000000E+00 -0.12413290341E+02  0.12413291365E+02  0.50400000000E-02 0.  1.
         23    2    1    2    0    0  0.00000000000E+00  0.00000000000E+00  0.15432205509E+03  0.17914863687E+03  0.90988666360E+02 0.  0.
    9000005    2    3    3    0    0 -0.22035028849E+02 -0.39024620778E+02  0.72544952651E+02  0.85896516217E+02  0.10343008263E+02 0.  0.
         22    1    3    3    0    0  0.22035028849E+02  0.39024620778E+02  0.81777102439E+02  0.93252120655E+02  0.00000000000E+00 0.  1.
         22    1    4    4    0    0 -0.14133696970E+01 -0.67027512195E+00  0.72202713320E+01  0.73877737341E+01  0.00000000000E+00 0. -1.
         22    1    4    4    0    0 -0.20621659152E+02 -0.38354345656E+02  0.65324681319E+02  0.78508742483E+02  0.00000000000E+00 0. -1.
<mgrwt>
<rscale>  0 0.90988666E+02</rscale>
<asrwt>0</asrwt>
<pdfrwt beam="1">  1        1 0.25651590E-01 0.90988666E+02</pdfrwt>
<pdfrwt beam="2">  1       -1 0.19097372E-02 0.90988666E+02</pdfrwt>
<totfact> 0.11499580E+05</totfact>
</mgrwt>
</event>
<event>
 7    1  0.3607059E-009  0.9029238E+02  0.7818608E-02  0.1302145E+00
          1   -1    0    0  501    0  0.00000000000E+00  0.00000000000E+00  0.49835271305E+02  0.49835271560E+02  0.50400000000E-02 0. -1.
         -1   -1    0    0    0  501 -0.00000000000E+00 -0.00000000000E+00 -0.40898313867E+02  0.40898314178E+02  0.50400000000E-02 0.  1.
         23    2    1    2    0    0  0.00000000000E+00  0.00000000000E+00  0.89369574377E+01  0.90733585737E+02  0.90292382694E+02 0.  0.
    9000005    2    3    3    0    0 -0.84541684464E+01  0.17771758262E+02 -0.36193343306E+02  0.41498919078E+02  0.49893716230E+01 0.  0.
         22    1    3    3    0    0  0.84541684464E+01 -0.17771758262E+02  0.45130300743E+02  0.49234666659E+02  0.00000000000E+00 0. -1.
         22    1    4    4    0    0 -0.58519253742E+01  0.12433834568E+02 -0.29545199867E+02  0.32584722001E+02  0.00000000000E+00 0.  1.
         22    1    4    4    0    0 -0.26022430722E+01  0.53379236933E+01 -0.66481434384E+01  0.89141970777E+01  0.00000000000E+00 0.  1.
<mgrwt>
<rscale>  0 0.90292383E+02</rscale>
<asrwt>0</asrwt>
<pdfrwt beam="1">  1        1 0.76669648E-02 0.90292383E+02</pdfrwt>
<pdfrwt beam="2">  1       -1 0.62920483E-02 0.90292383E+02</pdfrwt>
<totfact> 0.96302659E+04</totfact>
</mgrwt>
</event>
<event>
 7    1  0.7571195E-009  0.9234841E+02  0.7818608E-02  0.1297262E+00
         -1   -1    0    0    0  501 -0.00000000000E+00  0.00000000000E+00  0.14299708048E+01  0.14299796866E+01  0.50400000000E-02 0.  1.
          1   -1    0    0  501    0  0.00000000000E+00 -0.00000000000E+00 -0.14909749171E+04  0.14909749171E+04  0.50400000000E-02 0. -1.
         23    2    1    2    0    0  0.00000000000E+00 -0.22204460493E-15 -0.14895449463E+04  0.14924048968E+04  0.92348410623E+02 0.  0.
    9000005    2    3    3    0    0 -0.23655801729E+02  0.13971839437E+01 -0.13816716021E+04  0.13819594014E+04  0.15291233519E+02 0.  0.
         22    1    3    3    0    0  0.23655801729E+02 -0.13971839437E+01 -0.10787334416E+03  0.11044549542E+03  0.00000000000E+00 0.  1.
         22    1    4    4    0    0 -0.20893512974E+02  0.43741555746E+01 -0.13092602349E+04  0.13094342422E+04  0.00000000000E+00 0. -1.
         22    1    4    4    0    0 -0.27622887551E+01 -0.29769716310E+01 -0.72411367274E+02  0.72525159150E+02  0.00000000000E+00 0. -1.
<mgrwt>
<rscale>  0 0.92348411E+02</rscale>
<asrwt>0</asrwt>
<pdfrwt beam="2">  1        1 0.22937951E+00 0.92348411E+02</pdfrwt>
<pdfrwt beam="1">  1       -1 0.21999739E-03 0.92348411E+02</pdfrwt>
<totfact> 0.10736176E+05</totfact>
</mgrwt>
</event>
<event>
 7    1  0.3607059E-009  0.9078571E+02  0.7818608E-02  0.1300960E+00
          1   -1    0    0  501    0  0.00000000000E+00  0.00000000000E+00  0.35983435960E+02  0.35983436313E+02  0.50400000000E-02 0. -1.
         -1   -1    0    0    0  501 -0.00000000000E+00 -0.00000000000E+00 -0.57262769317E+02  0.57262769539E+02  0.50400000000E-02 0.  1.
         23    2    1    2    0    0  0.00000000000E+00  0.71054273576E-14 -0.21279333357E+02  0.93246205852E+02  0.90785708555E+02 0.  0.
    9000005    2    3    3    0    0  0.40054893445E+01 -0.38924561806E+02 -0.32033449965E+02  0.52665219163E+02  0.14707750886E+02 0.  0.
         22    1    3    3    0    0 -0.40054893445E+01  0.38924561806E+02  0.10754116608E+02  0.40580986690E+02  0.00000000000E+00 0. -1.
         22    1    4    4    0    0 -0.33114177924E+01 -0.26458047002E+02 -0.25153156336E+02  0.36656172913E+02  0.00000000000E+00 0.  1.
         22    1    4    4    0    0  0.73169071370E+01 -0.12466514804E+02 -0.68802936289E+01  0.16009046250E+02  0.00000000000E+00 0.  1.
<mgrwt>
<rscale>  0 0.90785709E+02</rscale>
<asrwt>0</asrwt>
<pdfrwt beam="1">  1        1 0.55359133E-02 0.90785709E+02</pdfrwt>
<pdfrwt beam="2">  1       -1 0.88096569E-02 0.90785709E+02</pdfrwt>
<totfact> 0.90301612E+04</totfact>
</mgrwt>
</event>
<event>
 7    1  0.3607059E-009  0.9383267E+02  0.7818608E-02  0.1293827E+00
          1   -1    0    0  501    0  0.00000000000E+00  0.00000000000E+00  0.40767434644E+03  0.40767434647E+03  0.50400000000E-02 0. -1.
         -1   -1    0    0    0  501 -0.00000000000E+00 -0.00000000000E+00 -0.53992649292E+01  0.53992672815E+01  0.50400000000E-02 0.  1.
         23    2    1    2    0    0  0.71054273576E-14  0.35527136788E-14  0.40227508151E+03  0.41307361375E+03  0.93832665816E+02 0.  0.
    9000005    2    3    3    0    0 -0.38952523940E+02 -0.22130285346E+02  0.15184893443E+03  0.15867175882E+03  0.10563120237E+02 0.  0.
         22    1    3    3    0    0  0.38952523940E+02  0.22130285346E+02  0.25042614708E+03  0.25440185493E+03  0.00000000000E+00 0. -1.
         22    1    4    4    0    0 -0.49341080224E+01 -0.55356657445E+01  0.37345961650E+02  0.38075055730E+02  0.00000000000E+00 0. -1.
         22    1    4    4    0    0 -0.34018415918E+02 -0.16594619602E+02  0.11450297278E+03  0.12059670310E+03  0.00000000000E+00 0. -1.
<mgrwt>
<rscale>  0 0.93832666E+02</rscale>
<asrwt>0</asrwt>
<pdfrwt beam="1">  1        1 0.62719111E-01 0.93832666E+02</pdfrwt>
<pdfrwt beam="2">  1       -1 0.83065659E-03 0.93832666E+02</pdfrwt>
<totfact> 0.12535954E+05</totfact>
</mgrwt>
</event>
<event>
 7    1  0.3607059E-009  0.9084776E+02  0.7818608E-02  0.1300812E+00
          1   -1    0    0  501    0  0.00000000000E+00  0.00000000000E+00  0.25290364867E+03  0.25290364872E+03  0.50400000000E-02 0. -1.
         -1   -1    0    0    0  501 -0.00000000000E+00 -0.00000000000E+00 -0.81585565609E+01  0.81585581176E+01  0.50400000000E-02 0.  1.
         23    2    1    2    0    0  0.00000000000E+00  0.71054273576E-14  0.24474509211E+03  0.26106220684E+03  0.90847761269E+02 0.  0.
    9000005    2    3    3    0    0 -0.45273241721E+01 -0.40471327168E+02  0.71094566650E+02  0.82700411659E+02  0.11247030481E+02 0.  0.
         22    1    3    3    0    0  0.45273241721E+01  0.40471327168E+02  0.17365052546E+03  0.17836179518E+03  0.00000000000E+00 0. -1.
         22    1    4    4    0    0  0.18602023465E+01 -0.10657827075E+01  0.56305674334E+01  0.60249095572E+01  0.00000000000E+00 0.  1.
         22    1    4    4    0    0 -0.63875265186E+01 -0.39405544461E+02  0.65463999216E+02  0.76675502102E+02  0.00000000000E+00 0.  1.
<mgrwt>
<rscale>  0 0.90847761E+02</rscale>
<asrwt>0</asrwt>
<pdfrwt beam="1">  1        1 0.38908252E-01 0.90847761E+02</pdfrwt>
<pdfrwt beam="2">  1       -1 0.12551627E-02 0.90847761E+02</pdfrwt>
<totfact> 0.12515081E+05</totfact>
</mgrwt>
</event>
<event>
 7    1  0.3607059E-009  0.9705439E+02  0.7818608E-02  0.1286615E+00
          1   -1    0    0  501    0  0.00000000000E+00  0.00000000000E+00  0.24500571999E+03  0.24500572004E+03  0.50400000000E-02 0. -1.
         -1   -1    0    0    0  501 -0.00000000000E+00 -0.00000000000E+00 -0.96115649644E+01  0.96115662858E+01  0.50400000000E-02 0.  1.
         23    2    1    2    0    0  0.00000000000E+00  0.17763568394E-14  0.23539415503E+03  0.25461728633E+03  0.97054388240E+02 0.  0.
    9000005    2    3    3    0    0  0.46355121032E+02  0.78341556675E+01  0.96534799177E+02  0.10801547206E+03  0.11755998919E+02 0.  0.
         22    1    3    3    0    0 -0.46355121032E+02 -0.78341556675E+01  0.13885935585E+03  0.14660181427E+03  0.00000000000E+00 0. -1.
         22    1    4    4    0    0  0.29594727049E+02  0.86423678773E+01  0.71652034944E+02  0.78003541607E+02  0.00000000000E+00 0.  1.
         22    1    4    4    0    0  0.16760393983E+02 -0.80821220982E+00  0.24882764233E+02  0.30011930450E+02  0.00000000000E+00 0.  1.
<mgrwt>
<rscale>  0 0.97054388E+02</rscale>
<asrwt>0</asrwt>
<pdfrwt beam="1">  1        1 0.37693180E-01 0.97054388E+02</pdfrwt>
<pdfrwt beam="2">  1       -1 0.14787027E-02 0.97054388E+02</pdfrwt>
<totfact> 0.10417582E+05</totfact>
</mgrwt>
</event>
<event>
 7    1  0.3607059E-009  0.9085852E+02  0.7818608E-02  0.1300786E+00
         -1   -1    0    0    0  501 -0.00000000000E+00  0.00000000000E+00  0.43319341714E+02  0.43319342007E+02  0.50400000000E-02 0.  1.
          1   -1    0    0  501    0  0.00000000000E+00 -0.00000000000E+00 -0.47641943251E+02  0.47641943518E+02  0.50400000000E-02 0. -1.
         23    2    1    2    0    0 -0.35527136788E-14  0.00000000000E+00 -0.43226015376E+01  0.90961285525E+02  0.90858519580E+02 0.  0.
    9000005    2    3    3    0    0 -0.29449756401E+02  0.36482100159E+01 -0.36315419230E+02  0.47324856108E+02  0.63430862642E+01 0.  0.
         22    1    3    3    0    0  0.29449756401E+02 -0.36482100159E+01  0.31992817692E+02  0.43636429417E+02  0.00000000000E+00 0. -1.
         22    1    4    4    0    0 -0.44893271963E+01 -0.82320896273E+00 -0.87573764949E+01  0.98753923843E+01  0.00000000000E+00 0. -1.
         22    1    4    4    0    0 -0.24960429205E+02  0.44714189786E+01 -0.27558042735E+02  0.37449463723E+02  0.00000000000E+00 0. -1.
<mgrwt>
<rscale>  0 0.90858520E+02</rscale>
<asrwt>0</asrwt>
<pdfrwt beam="2">  1        1 0.73295298E-02 0.90858520E+02</pdfrwt>
<pdfrwt beam="1">  1       -1 0.66645141E-02 0.90858520E+02</pdfrwt>
<totfact> 0.94002545E+04</totfact>
</mgrwt>
</event>
<event>
 7    1  0.3607059E-009  0.9047746E+02  0.7818608E-02  0.1301700E+00
          1   -1    0    0  501    0  0.00000000000E+00  0.00000000000E+00  0.50355657973E+03  0.50355657976E+03  0.50400000000E-02 0. -1.
         -1   -1    0    0    0  501 -0.00000000000E+00 -0.00000000000E+00 -0.40641745526E+01  0.40641776777E+01  0.50400000000E-02 0.  1.
         23    2    1    2    0    0  0.35527136788E-14  0.00000000000E+00  0.49949240518E+03  0.50762075744E+03  0.90477458778E+02 0.  0.
    9000005    2    3    3    0    0  0.24441657807E+02 -0.37421217287E+02  0.22997410658E+03  0.23442146128E+03  0.82212937972E+01 0.  0.
         22    1    3    3    0    0 -0.24441657807E+02  0.37421217287E+02  0.26951829860E+03  0.27319929616E+03  0.00000000000E+00 0.  1.
         22    1    4    4    0    0  0.62873259501E+00 -0.55003976384E+01  0.33100797916E+02  0.33560579577E+02  0.00000000000E+00 0. -1.
         22    1    4    4    0    0  0.23812925212E+02 -0.31920819649E+02  0.19687330866E+03  0.20086088170E+03  0.00000000000E+00 0. -1.
<mgrwt>
<rscale>  0 0.90477459E+02</rscale>
<asrwt>0</asrwt>
<pdfrwt beam="1">  1        1 0.77470192E-01 0.90477459E+02</pdfrwt>
<pdfrwt beam="2">  1       -1 0.62525828E-03 0.90477459E+02</pdfrwt>
<totfact> 0.14225200E+05</totfact>
</mgrwt>
</event>
<event>
 7    1  0.3607059E-009  0.9189517E+02  0.7818608E-02  0.1298326E+00
         -1   -1    0    0    0  501 -0.00000000000E+00  0.00000000000E+00  0.37635096976E+02  0.37635097314E+02  0.50400000000E-02 0.  1.
          1   -1    0    0  501    0  0.00000000000E+00 -0.00000000000E+00 -0.56096059669E+02  0.56096059895E+02  0.50400000000E-02 0. -1.
         23    2    1    2    0    0  0.71054273576E-14  0.00000000000E+00 -0.18460962692E+02  0.93731157209E+02  0.91895172279E+02 0.  0.
    9000005    2    3    3    0    0 -0.43232957531E+02  0.62116486962E+01 -0.18706727232E+02  0.50053547423E+02  0.15739846550E+02 0.  0.
         22    1    3    3    0    0  0.43232957531E+02 -0.62116486962E+01  0.24576454001E+00  0.43677609786E+02  0.00000000000E+00 0.  1.
         22    1    4    4    0    0 -0.41708956019E+02  0.88100805877E+01 -0.14810836636E+02  0.45128875612E+02  0.00000000000E+00 0.  1.
         22    1    4    4    0    0 -0.15240015125E+01 -0.25984318915E+01 -0.38958905960E+01  0.49246718105E+01  0.00000000000E+00 0.  1.
<mgrwt>
<rscale>  0 0.91895172E+02</rscale>
<asrwt>0</asrwt>
<pdfrwt beam="2">  1        1 0.86301631E-02 0.91895172E+02</pdfrwt>
<pdfrwt beam="1">  1       -1 0.57900150E-02 0.91895172E+02</pdfrwt>
<totfact> 0.93335017E+04</totfact>
</mgrwt>
</event>
<event>
 7    1  0.3607059E-009  0.9112696E+02  0.7818608E-02  0.1300145E+00
         -1   -1    0    0    0  501 -0.00000000000E+00  0.00000000000E+00  0.27402690351E+01  0.27402736700E+01  0.50400000000E-02 0.  1.
          1   -1    0    0  501    0  0.00000000000E+00 -0.00000000000E+00 -0.75760032817E+03  0.75760032818E+03  0.50400000000E-02 0. -1.
         23    2    1    2    0    0  0.35527136788E-14  0.00000000000E+00 -0.75486005913E+03  0.76034060185E+03  0.91126955149E+02 0.  0.
    9000005    2    3    3    0    0 -0.24512819646E+02 -0.54177521699E+01 -0.69457199762E+03  0.69503454757E+03  0.35400662936E+01 0.  0.
         22    1    3    3    0    0  0.24512819646E+02  0.54177521699E+01 -0.60288061513E+02  0.65306054288E+02  0.00000000000E+00 0.  1.
         22    1    4    4    0    0 -0.94823512299E+01 -0.38738712241E+01 -0.28143218456E+03  0.28161852987E+03  0.00000000000E+00 0.  1.
         22    1    4    4    0    0 -0.15030468416E+02 -0.15438809458E+01 -0.41313981306E+03  0.41341601769E+03  0.00000000000E+00 0.  1.
<mgrwt>
<rscale>  0 0.91126955E+02</rscale>
<asrwt>0</asrwt>
<pdfrwt beam="2">  1        1 0.11655373E+00 0.91126955E+02</pdfrwt>
<pdfrwt beam="1">  1       -1 0.42158081E-03 0.91126955E+02</pdfrwt>
<totfact> 0.14204182E+05</totfact>
</mgrwt>
</event>
<event>
 6    1  0.3691115E-009  0.5737570E+03  0.7818608E-02  0.9961399E-01
          1   -1    0    0  501    0  0.00000000000E+00  0.00000000000E+00  0.15975228955E+04  0.15975228955E+04  0.50400000000E-02 0. -1.
         -1   -1    0    0    0  501 -0.00000000000E+00 -0.00000000000E+00 -0.51516810107E+02  0.51516810353E+02  0.50400000000E-02 0.  1.
    9000005    2    1    2    0    0  0.40242162498E+01  0.20067588027E+03  0.13618881783E+04  0.13766678884E+04  0.13713551313E+02 0.  0.
         22    1    1    2    0    0 -0.40242162498E+01 -0.20067588027E+03  0.18411790709E+03  0.27237181747E+03  0.00000000000E+00 0.  1.
         22    1    3    3    0    0  0.72901625798E+01  0.17472457303E+03  0.12019265343E+04  0.12145819103E+04  0.00000000000E+00 0.  1.
         22    1    3    3    0    0 -0.32659463299E+01  0.25951307238E+02  0.15996164396E+03  0.16208597808E+03  0.00000000000E+00 0.  1.
<mgrwt>
<rscale>  0 0.57375704E+03</rscale>
<asrwt>0</asrwt>
<pdfrwt beam="1">  1        1 0.24577273E+00 0.57375704E+03</pdfrwt>
<pdfrwt beam="2">  1       -1 0.79256639E-02 0.57375704E+03</pdfrwt>
<totfact> 0.52526555E+02</totfact>
</mgrwt>
</event>
<event>
 7    1  0.3607059E-009  0.9033931E+02  0.7818608E-02  0.1302032E+00
          1   -1    0    0  501    0  0.00000000000E+00  0.00000000000E+00  0.19184331122E+03  0.19184331129E+03  0.50400000000E-02 0. -1.
         -1   -1    0    0    0  501 -0.00000000000E+00 -0.00000000000E+00 -0.10635228921E+02  0.10635230115E+02  0.50400000000E-02 0.  1.
         23    2    1    2    0    0  0.00000000000E+00  0.00000000000E+00  0.18120808230E+03  0.20247854140E+03  0.90339308375E+02 0.  0.
    9000005    2    3    3    0    0 -0.35768640410E+02  0.19512259050E+02  0.13272911215E+03  0.13915134000E+03  0.92711554522E+01 0.  0.
         22    1    3    3    0    0  0.35768640410E+02 -0.19512259050E+02  0.48478970154E+02  0.63327201400E+02  0.00000000000E+00 0.  1.
         22    1    4    4    0    0 -0.28909461698E+02  0.13716787763E+02  0.90853717237E+02  0.96323959522E+02  0.00000000000E+00 0.  1.
         22    1    4    4    0    0 -0.68591787119E+01  0.57954712867E+01  0.41875394910E+02  0.42827380482E+02  0.00000000000E+00 0.  1.
<mgrwt>
<rscale>  0 0.90339308E+02</rscale>
<asrwt>0</asrwt>
<pdfrwt beam="1">  1        1 0.29514355E-01 0.90339308E+02</pdfrwt>
<pdfrwt beam="2">  1       -1 0.16361892E-02 0.90339308E+02</pdfrwt>
<totfact> 0.12039818E+05</totfact>
</mgrwt>
</event>
<event>
 7    1  0.3607059E-009  0.9025300E+02  0.7818608E-02  0.1302240E+00
          1   -1    0    0  501    0  0.00000000000E+00  0.00000000000E+00  0.28592447773E+03  0.28592447777E+03  0.50400000000E-02 0. -1.
         -1   -1    0    0    0  501 -0.00000000000E+00 -0.00000000000E+00 -0.71221628676E+01  0.71221646508E+01  0.50400000000E-02 0.  1.
         23    2    1    2    0    0  0.00000000000E+00 -0.17763568394E-14  0.27880231486E+03  0.29304664242E+03  0.90252999196E+02 0.  0.
    9000005    2    3    3    0    0  0.24978391792E+02  0.12786167957E+02  0.25331665628E+03  0.25513984961E+03  0.11815598437E+02 0.  0.
         22    1    3    3    0    0 -0.24978391792E+02 -0.12786167957E+02  0.25485658581E+02  0.37906792806E+02  0.00000000000E+00 0.  1.
         22    1    4    4    0    0  0.13486660043E+02  0.53629794302E+00  0.10029768942E+03  0.10120179898E+03  0.00000000000E+00 0.  1.
         22    1    4    4    0    0  0.11491731749E+02  0.12249870014E+02  0.15301896686E+03  0.15393805063E+03  0.00000000000E+00 0.  1.
<mgrwt>
<rscale>  0 0.90252999E+02</rscale>
<asrwt>0</asrwt>
<pdfrwt beam="1">  1        1 0.43988380E-01 0.90252999E+02</pdfrwt>
<pdfrwt beam="2">  1       -1 0.10957175E-02 0.90252999E+02</pdfrwt>
<totfact> 0.13043688E+05</totfact>
</mgrwt>
</event>
<event>
 7    1  0.3607059E-009  0.9147718E+02  0.7818608E-02  0.1299313E+00
          1   -1    0    0  501    0  0.00000000000E+00  0.00000000000E+00  0.51639632817E+01  0.51639657412E+01  0.50400000000E-02 0. -1.
         -1   -1    0    0    0  501 -0.00000000000E+00 -0.00000000000E+00 -0.40511867039E+03  0.40511867043E+03  0.50400000000E-02 0.  1.
         23    2    1    2    0    0  0.35527136788E-14  0.00000000000E+00 -0.39995470711E+03  0.41028263617E+03  0.91477176380E+02 0.  0.
    9000005    2    3    3    0    0 -0.20317790780E+02  0.39755335096E+02 -0.22858563921E+03  0.23319323297E+03  0.11592676968E+02 0.  0.
         22    1    3    3    0    0  0.20317790780E+02 -0.39755335096E+02 -0.17136906791E+03  0.17708940320E+03  0.00000000000E+00 0.  1.
         22    1    4    4    0    0 -0.13643500613E+01  0.14424939310E+02 -0.71037481210E+02  0.72500096979E+02  0.00000000000E+00 0.  1.
         22    1    4    4    0    0 -0.18953440719E+02  0.25330395786E+02 -0.15754815800E+03  0.16069313599E+03  0.00000000000E+00 0.  1.
<mgrwt>
<rscale>  0 0.91477176E+02</rscale>
<asrwt>0</asrwt>
<pdfrwt beam="1">  1        1 0.79445640E-03 0.91477176E+02</pdfrwt>
<pdfrwt beam="2">  1       -1 0.62325924E-01 0.91477176E+02</pdfrwt>
<totfact> 0.52492137E+04</totfact>
</mgrwt>
</event>
<event>
 7    1  0.3607059E-009  0.9089898E+02  0.7818608E-02  0.1300689E+00
          1   -1    0    0  501    0  0.00000000000E+00  0.00000000000E+00  0.81575444007E+02  0.81575444163E+02  0.50400000000E-02 0. -1.
         -1   -1    0    0    0  501 -0.00000000000E+00 -0.00000000000E+00 -0.25322035907E+02  0.25322036409E+02  0.50400000000E-02 0.  1.
         23    2    1    2    0    0  0.35527136788E-14 -0.35527136788E-14  0.56253408100E+02  0.10689748057E+03  0.90898984756E+02 0.  0.
    9000005    2    3    3    0    0  0.23946180213E+02  0.25907983496E+02  0.60009972886E+02  0.71418544080E+02  0.15961467260E+02 0.  0.
         22    1    3    3    0    0 -0.23946180213E+02 -0.25907983496E+02 -0.37565647860E+01  0.35478936492E+02  0.00000000000E+00 0. -1.
         22    1    4    4    0    0  0.25351448917E+02  0.19288890357E+02  0.47438147248E+02  0.57141360394E+02  0.00000000000E+00 0. -1.
         22    1    4    4    0    0 -0.14052687045E+01  0.66190931387E+01  0.12571825638E+02  0.14277183685E+02  0.00000000000E+00 0. -1.
<mgrwt>
<rscale>  0 0.90898985E+02</rscale>
<asrwt>0</asrwt>
<pdfrwt beam="1">  1        1 0.12550068E-01 0.90898985E+02</pdfrwt>
<pdfrwt beam="2">  1       -1 0.38956978E-02 0.90898985E+02</pdfrwt>
<totfact> 0.10190481E+05</totfact>
</mgrwt>
</event>
<event>
 7    1  0.3607059E-009  0.9323007E+02  0.7818608E-02  0.1295213E+00
          1   -1    0    0  501    0  0.00000000000E+00  0.00000000000E+00  0.44829333542E+03  0.44829333545E+03  0.50400000000E-02 0. -1.
         -1   -1    0    0    0  501 -0.00000000000E+00 -0.00000000000E+00 -0.48471854163E+01  0.48471880365E+01  0.50400000000E-02 0.  1.
         23    2    1    2    0    0 -0.71054273576E-14  0.00000000000E+00  0.44344615001E+03  0.45314052349E+03  0.93230070638E+02 0.  0.
    9000005    2    3    3    0    0 -0.40308123779E+02  0.18784214381E+02  0.28219618095E+03  0.28587084879E+03  0.10481702772E+02 0.  0.
         22    1    3    3    0    0  0.40308123779E+02 -0.18784214381E+02  0.16124996905E+03  0.16726967469E+03  0.00000000000E+00 0.  1.
         22    1    4    4    0    0 -0.75831064842E+01  0.32526279587E+01  0.82883688595E+02  0.83293390661E+02  0.00000000000E+00 0.  1.
         22    1    4    4    0    0 -0.32725017295E+02  0.15531586422E+02  0.19931249236E+03  0.20257745813E+03  0.00000000000E+00 0.  1.
<mgrwt>
<rscale>  0 0.93230071E+02</rscale>
<asrwt>0</asrwt>
<pdfrwt beam="1">  1        1 0.68968224E-01 0.93230071E+02</pdfrwt>
<pdfrwt beam="2">  1       -1 0.74572084E-03 0.93230071E+02</pdfrwt>
<totfact> 0.12939684E+05</totfact>
</mgrwt>
</event>
<event>
 7    1  0.3607059E-009  0.9114703E+02  0.7818608E-02  0.1300098E+00
         -1   -1    0    0    0  501 -0.00000000000E+00  0.00000000000E+00  0.39383941591E+02  0.39383941913E+02  0.50400000000E-02 0.  1.
          1   -1    0    0  501    0  0.00000000000E+00 -0.00000000000E+00 -0.52735836299E+02  0.52735836540E+02  0.50400000000E-02 0. -1.
         23    2    1    2    0    0  0.00000000000E+00  0.00000000000E+00 -0.13351894708E+02  0.92119778453E+02  0.91147026775E+02 0.  0.
    9000005    2    3    3    0    0  0.20433736656E+02 -0.25038660277E+02 -0.37733143069E+02  0.51636233972E+02  0.14072614211E+02 0.  0.
         22    1    3    3    0    0 -0.20433736656E+02  0.25038660277E+02  0.24381248360E+02  0.40483544482E+02  0.00000000000E+00 0.  1.
         22    1    4    4    0    0  0.20509691185E+02 -0.23042748880E+02 -0.38639239071E+02  0.49442962133E+02  0.00000000000E+00 0. -1.
         22    1    4    4    0    0 -0.75954528578E-01 -0.19959113967E+01  0.90609600251E+00  0.21932718390E+01  0.00000000000E+00 0. -1.
<mgrwt>
<rscale>  0 0.91147027E+02</rscale>
<asrwt>0</asrwt>
<pdfrwt beam="2">  1        1 0.81132056E-02 0.91147027E+02</pdfrwt>
<pdfrwt beam="1">  1       -1 0.60590680E-02 0.91147027E+02</pdfrwt>
<totfact> 0.94602954E+04</totfact>
</mgrwt>
</event>
<event>
 7    1  0.3607059E-009  0.8485523E+02  0.7818608E-02  0.1315812E+00
         -1   -1    0    0    0  501 -0.00000000000E+00  0.00000000000E+00  0.45767653076E+02  0.45767653354E+02  0.50400000000E-02 0.  1.
          1   -1    0    0  501    0  0.00000000000E+00 -0.00000000000E+00 -0.39331322237E+02  0.39331322559E+02  0.50400000000E-02 0. -1.
         23    2    1    2    0    0 -0.35527136788E-14  0.00000000000E+00  0.64363308396E+01  0.85098975913E+02  0.84855225807E+02 0.  0.
    9000005    2    3    3    0    0 -0.29919526672E+02  0.27921991256E+02  0.80945568842E+00  0.43789444374E+02  0.15557780952E+02 0.  0.
         22    1    3    3    0    0  0.29919526672E+02 -0.27921991256E+02  0.56268751512E+01  0.41309531539E+02  0.00000000000E+00 0.  1.
         22    1    4    4    0    0 -0.15826596463E+01  0.92262135205E+01  0.28337977830E+01  0.97805029195E+01  0.00000000000E+00 0. -1.
         22    1    4    4    0    0 -0.28336867026E+02  0.18695777735E+02 -0.20243420946E+01  0.34008941455E+02  0.00000000000E+00 0. -1.
<mgrwt>
<rscale>  0 0.84855226E+02</rscale>
<asrwt>0</asrwt>
<pdfrwt beam="2">  1        1 0.60509727E-02 0.84855226E+02</pdfrwt>
<pdfrwt beam="1">  1       -1 0.70411774E-02 0.84855226E+02</pdfrwt>
<totfact> 0.11064623E+05</totfact>
</mgrwt>
</event>
<event>
 7    1  0.3607059E-009  0.9235837E+02  0.7818608E-02  0.1297239E+00
          1   -1    0    0  501    0  0.00000000000E+00  0.00000000000E+00  0.61800671877E+03  0.61800671879E+03  0.50400000000E-02 0. -1.
         -1   -1    0    0    0  501 -0.00000000000E+00 -0.00000000000E+00 -0.34506358563E+01  0.34506395371E+01  0.50400000000E-02 0.  1.
         23    2    1    2    0    0  0.00000000000E+00  0.00000000000E+00  0.61455608291E+03  0.62145735833E+03  0.92358373596E+02 0.  0.
    9000005    2    3    3    0    0 -0.21614826821E+02 -0.22773107317E+02  0.53353286614E+03  0.53456330323E+03  0.10714044551E+02 0.  0.
         22    1    3    3    0    0  0.21614826821E+02  0.22773107317E+02  0.81023216771E+02  0.86894055097E+02  0.00000000000E+00 0.  1.
         22    1    4    4    0    0 -0.10667543414E+02 -0.14049266425E+02  0.21477017835E+03  0.21549340564E+03  0.00000000000E+00 0. -1.
         22    1    4    4    0    0 -0.10947283407E+02 -0.87238408916E+01  0.31876268780E+03  0.31906989758E+03  0.00000000000E+00 0. -1.
<mgrwt>
<rscale>  0 0.92358374E+02</rscale>
<asrwt>0</asrwt>
<pdfrwt beam="1">  1        1 0.95077957E-01 0.92358374E+02</pdfrwt>
<pdfrwt beam="2">  1       -1 0.53086734E-03 0.92358374E+02</pdfrwt>
<totfact> 0.13705875E+05</totfact>
</mgrwt>
</event>
<event>
 7    1  0.3607059E-009  0.7897614E+02  0.7818608E-02  0.1331982E+00
          1   -1    0    0  501    0  0.00000000000E+00  0.00000000000E+00  0.31116315029E+02  0.31116315437E+02  0.50400000000E-02 0. -1.
         -1   -1    0    0    0  501 -0.00000000000E+00 -0.00000000000E+00 -0.50112215607E+02  0.50112215860E+02  0.50400000000E-02 0.  1.
         23    2    1    2    0    0  0.17763568394E-14  0.35527136788E-14 -0.18995900578E+02  0.81228531298E+02  0.78976136003E+02 0.  0.
    9000005    2    3    3    0    0  0.14374021446E+02  0.26248907067E+02 -0.34528611569E+02  0.47510839717E+02  0.13016806788E+02 0.  0.
         22    1    3    3    0    0 -0.14374021446E+02 -0.26248907067E+02  0.15532710992E+02  0.33717691580E+02  0.00000000000E+00 0. -1.
         22    1    4    4    0    0  0.19432265947E+01 -0.13487175272E+01 -0.26315516859E+01  0.35383941050E+01  0.00000000000E+00 0. -1.
         22    1    4    4    0    0  0.12430794852E+02  0.27597624594E+02 -0.31897059884E+02  0.43972445612E+02  0.00000000000E+00 0. -1.
<mgrwt>
<rscale>  0 0.78976136E+02</rscale>
<asrwt>0</asrwt>
<pdfrwt beam="1">  1        1 0.47871255E-02 0.78976136E+02</pdfrwt>
<pdfrwt beam="2">  1       -1 0.77095717E-02 0.78976136E+02</pdfrwt>
<totfact> 0.13084155E+05</totfact>
</mgrwt>
</event>
<event>
 7    1  0.3607059E-009  0.9068069E+02  0.7818608E-02  0.1301212E+00
          1   -1    0    0  501    0  0.00000000000E+00  0.00000000000E+00  0.46431122597E+03  0.46431122600E+03  0.50400000000E-02 0. -1.
         -1   -1    0    0    0  501 -0.00000000000E+00 -0.00000000000E+00 -0.44275178167E+01  0.44275206853E+01  0.50400000000E-02 0.  1.
         23    2    1    2    0    0  0.00000000000E+00  0.00000000000E+00  0.45988370815E+03  0.46873874668E+03  0.90680690430E+02 0.  0.
    9000005    2    3    3    0    0 -0.11204263887E+02 -0.40710048987E+02  0.30468083893E+03  0.30789480296E+03  0.13636438667E+02 0.  0.
         22    1    3    3    0    0  0.11204263887E+02  0.40710048987E+02  0.15520286922E+03  0.16084394372E+03  0.00000000000E+00 0.  1.
         22    1    4    4    0    0 -0.65909172136E+01 -0.34224941443E+02  0.27360518255E+03  0.27581621186E+03  0.00000000000E+00 0.  1.
         22    1    4    4    0    0 -0.46133466731E+01 -0.64851075447E+01  0.31075656386E+02  0.32078591104E+02  0.00000000000E+00 0.  1.
<mgrwt>
<rscale>  0 0.90680690E+02</rscale>
<asrwt>0</asrwt>
<pdfrwt beam="1">  1        1 0.71432476E-01 0.90680690E+02</pdfrwt>
<pdfrwt beam="2">  1       -1 0.68115700E-03 0.90680690E+02</pdfrwt>
<totfact> 0.13996810E+05</totfact>
</mgrwt>
</event>
<event>
 7    1  0.3607059E-009  0.9563956E+02  0.7818608E-02  0.1289742E+00
         -1   -1    0    0    0  501 -0.00000000000E+00  0.00000000000E+00  0.13884265318E+02  0.13884266233E+02  0.50400000000E-02 0.  1.
          1   -1    0    0  501    0  0.00000000000E+00 -0.00000000000E+00 -0.16469948049E+03  0.16469948057E+03  0.50400000000E-02 0. -1.
         23    2    1    2    0    0  0.35527136788E-14  0.00000000000E+00 -0.15081521517E+03  0.17858374680E+03  0.95639560298E+02 0.  0.
    9000005    2    3    3    0    0 -0.22143128831E+02 -0.27816375442E+02 -0.13473916144E+03  0.13956441312E+03  0.77145892729E+01 0.  0.
         22    1    3    3    0    0  0.22143128831E+02  0.27816375442E+02 -0.16076053733E+02  0.39019333679E+02  0.00000000000E+00 0.  1.
         22    1    4    4    0    0 -0.21984734195E+01 -0.78569331877E+01 -0.29183619099E+02  0.30302612234E+02  0.00000000000E+00 0.  1.
         22    1    4    4    0    0 -0.19944655411E+02 -0.19959442254E+02 -0.10555554234E+03  0.10926180089E+03  0.00000000000E+00 0.  1.
<mgrwt>
<rscale>  0 0.95639560E+02</rscale>
<asrwt>0</asrwt>
<pdfrwt beam="2">  1        1 0.25338380E-01 0.95639560E+02</pdfrwt>
<pdfrwt beam="1">  1       -1 0.21360410E-02 0.95639560E+02</pdfrwt>
<totfact> 0.10027680E+05</totfact>
</mgrwt>
</event>
<event>
 7    1  0.3607059E-009  0.9139335E+02  0.7818608E-02  0.1299512E+00
          1   -1    0    0  501    0  0.00000000000E+00  0.00000000000E+00  0.24137616165E+03  0.24137616170E+03  0.50400000000E-02 0. -1.
         -1   -1    0    0    0  501 -0.00000000000E+00 -0.00000000000E+00 -0.86511695185E+01  0.86511709866E+01  0.50400000000E-02 0.  1.
         23    2    1    2    0    0  0.00000000000E+00  0.00000000000E+00  0.23272499213E+03  0.25002733269E+03  0.91393353857E+02 0.  0.
    9000005    2    3    3    0    0 -0.11214259473E+01 -0.32606630400E+02  0.37134462917E+02  0.51734354849E+02  0.15265162736E+02 0.  0.
         22    1    3    3    0    0  0.11214259473E+01  0.32606630400E+02  0.19559052922E+03  0.19829297784E+03  0.00000000000E+00 0. -1.
         22    1    4    4    0    0  0.57140507410E+00  0.11831966642E+01  0.46486301900E+01  0.48307577820E+01  0.00000000000E+00 0. -1.
         22    1    4    4    0    0 -0.16928310214E+01 -0.33789827064E+02  0.32485832727E+02  0.46903597067E+02  0.00000000000E+00 0. -1.
<mgrwt>
<rscale>  0 0.91393354E+02</rscale>
<asrwt>0</asrwt>
<pdfrwt beam="1">  1        1 0.37134790E-01 0.91393354E+02</pdfrwt>
<pdfrwt beam="2">  1       -1 0.13309494E-02 0.91393354E+02</pdfrwt>
<totfact> 0.12204984E+05</totfact>
</mgrwt>
</event>
<event>
 7    1  0.3607059E-009  0.9156313E+02  0.7818608E-02  0.1299110E+00
          1   -1    0    0  501    0  0.00000000000E+00  0.00000000000E+00  0.11014748414E+04  0.11014748414E+04  0.50400000000E-02 0. -1.
         -1   -1    0    0    0  501 -0.00000000000E+00 -0.00000000000E+00 -0.19028560051E+01  0.19028626797E+01  0.50400000000E-02 0.  1.
         23    2    1    2    0    0  0.00000000000E+00  0.00000000000E+00  0.10995719854E+04  0.11033777041E+04  0.91563130246E+02 0.  0.
    9000005    2    3    3    0    0 -0.13750759028E+02  0.10103406242E+02  0.10611828176E+04  0.10613671054E+04  0.99999025069E+01 0.  0.
         22    1    3    3    0    0  0.13750759028E+02 -0.10103406242E+02  0.38389167862E+02  0.42010598671E+02  0.00000000000E+00 0.  1.
         22    1    4    4    0    0  0.18045197032E+00  0.43325178204E+01  0.16276812730E+03  0.16282587797E+03  0.00000000000E+00 0. -1.
         22    1    4    4    0    0 -0.13931210998E+02  0.57708884219E+01  0.89841469026E+03  0.89854122747E+03  0.00000000000E+00 0. -1.
<mgrwt>
<rscale>  0 0.91563130E+02</rscale>
<asrwt>0</asrwt>
<pdfrwt beam="1">  1        1 0.16945816E+00 0.91563130E+02</pdfrwt>
<pdfrwt beam="2">  1       -1 0.29274675E-03 0.91563130E+02</pdfrwt>
<totfact> 0.13046937E+05</totfact>
</mgrwt>
</event>
<event>
 7    1  0.3607059E-009  0.9003192E+02  0.7818608E-02  0.1302774E+00
         -1   -1    0    0    0  501 -0.00000000000E+00  0.00000000000E+00  0.28938290490E+01  0.28938334379E+01  0.50400000000E-02 0.  1.
          1   -1    0    0  501    0  0.00000000000E+00 -0.00000000000E+00 -0.70026078283E+03  0.70026078285E+03  0.50400000000E-02 0. -1.
         23    2    1    2    0    0  0.00000000000E+00 -0.17763568394E-14 -0.69736695378E+03  0.70315461628E+03  0.90031917555E+02 0.  0.
    9000005    2    3    3    0    0  0.17880532943E+01 -0.12990551136E+02 -0.68448492789E+03  0.68477261029E+03  0.14898313297E+02 0.  0.
         22    1    3    3    0    0 -0.17880532943E+01  0.12990551136E+02 -0.12882025887E+02  0.18382005994E+02  0.00000000000E+00 0.  1.
         22    1    4    4    0    0  0.58134864661E+00  0.31353396424E+01 -0.66832876043E+02  0.66908905544E+02  0.00000000000E+00 0. -1.
         22    1    4    4    0    0  0.12067046477E+01 -0.16125890778E+02 -0.61765205185E+03  0.61786370475E+03  0.00000000000E+00 0. -1.
<mgrwt>
<rscale>  0 0.90031918E+02</rscale>
<asrwt>0</asrwt>
<pdfrwt beam="2">  1        1 0.10773229E+00 0.90031918E+02</pdfrwt>
<pdfrwt beam="1">  1       -1 0.44520537E-03 0.90031918E+02</pdfrwt>
<totfact> 0.14700309E+05</totfact>
</mgrwt>
</event>
<event>
 7    1  0.3607059E-009  0.9354828E+02  0.7818608E-02  0.1294480E+00
          1   -1    0    0  501    0  0.00000000000E+00  0.00000000000E+00  0.16930890675E+02  0.16930891425E+02  0.50400000000E-02 0.  1.
         -1   -1    0    0    0  501 -0.00000000000E+00 -0.00000000000E+00 -0.12922060529E+03  0.12922060539E+03  0.50400000000E-02 0. -1.
         23    2    1    2    0    0  0.00000000000E+00  0.35527136788E-14 -0.11228971462E+03  0.14615149682E+03  0.93548276374E+02 0.  0.
    9000005    2    3    3    0    0 -0.86241894845E+01 -0.25749102523E+02  0.23590710007E+01  0.28330713552E+02  0.77247128992E+01 0.  0.
         22    1    3    3    0    0  0.86241894845E+01  0.25749102523E+02 -0.11464878562E+03  0.11782078326E+03  0.00000000000E+00 0.  1.
         22    1    4    4    0    0 -0.70325262794E+01 -0.91001338429E+01  0.65975312544E+00  0.11519728122E+02  0.00000000000E+00 0. -1.
         22    1    4    4    0    0 -0.15916632051E+01 -0.16648968680E+02  0.16993178752E+01  0.16810985430E+02  0.00000000000E+00 0. -1.
<mgrwt>
<rscale>  0 0.93548276E+02</rscale>
<asrwt>0</asrwt>
<pdfrwt beam="1">  1        1 0.26047526E-02 0.93548276E+02</pdfrwt>
<pdfrwt beam="2">  1       -1 0.19880092E-01 0.93548276E+02</pdfrwt>
<totfact> 0.72344404E+04</totfact>
</mgrwt>
</event>
<event>
 7    1  0.3607059E-009  0.9132845E+02  0.7818608E-02  0.1299666E+00
          1   -1    0    0  501    0  0.00000000000E+00  0.00000000000E+00  0.62933173332E+03  0.62933173334E+03  0.50400000000E-02 0. -1.
         -1   -1    0    0    0  501 -0.00000000000E+00 -0.00000000000E+00 -0.33133880633E+01  0.33133918964E+01  0.50400000000E-02 0.  1.
         23    2    1    2    0    0 -0.35527136788E-14  0.17763568394E-14  0.62601834525E+03  0.63264512523E+03  0.91328450593E+02 0.  0.
    9000005    2    3    3    0    0  0.17380620711E+02 -0.90215588846E+01  0.59760704153E+03  0.59813894201E+03  0.15891613156E+02 0.  0.
         22    1    3    3    0    0 -0.17380620711E+02  0.90215588846E+01  0.28411303726E+02  0.34506183220E+02  0.00000000000E+00 0. -1.
         22    1    4    4    0    0 -0.19498161809E+01 -0.22474516982E+01  0.18488146017E+03  0.18490540051E+03  0.00000000000E+00 0. -1.
         22    1    4    4    0    0  0.19330436892E+02 -0.67741071864E+01  0.41272558136E+03  0.41323354150E+03  0.00000000000E+00 0. -1.
<mgrwt>
<rscale>  0 0.91328451E+02</rscale>
<asrwt>0</asrwt>
<pdfrwt beam="1">  1        1 0.96820238E-01 0.91328451E+02</pdfrwt>
<pdfrwt beam="2">  1       -1 0.50975246E-03 0.91328451E+02</pdfrwt>
<totfact> 0.14130496E+05</totfact>
</mgrwt>
</event>
<event>
 7    1  0.3607059E-009  0.9072368E+02  0.7818608E-02  0.1301109E+00
         -1   -1    0    0    0  501 -0.00000000000E+00  0.00000000000E+00  0.17257033231E+03  0.17257033238E+03  0.50400000000E-02 0.  1.
          1   -1    0    0  501    0  0.00000000000E+00 -0.00000000000E+00 -0.11923812475E+02  0.11923813540E+02  0.50400000000E-02 0. -1.
         23    2    1    2    0    0  0.00000000000E+00  0.00000000000E+00  0.16064651984E+03  0.18449414592E+03  0.90723676872E+02 0.  0.
    9000005    2    3    3    0    0 -0.14549789937E+02  0.12760462952E+02  0.16339039203E+03  0.16494792796E+03  0.11699270452E+02 0.  0.
         22    1    3    3    0    0  0.14549789937E+02 -0.12760462952E+02 -0.27438721969E+01  0.19546217961E+02  0.00000000000E+00 0. -1.
         22    1    4    4    0    0 -0.74481878372E+01  0.56199243094E+01  0.37051130586E+02  0.38207922333E+02  0.00000000000E+00 0. -1.
         22    1    4    4    0    0 -0.71016020995E+01  0.71405386423E+01  0.12633926145E+03  0.12674000563E+03  0.00000000000E+00 0. -1.
<mgrwt>
<rscale>  0 0.90723677E+02</rscale>
<asrwt>0</asrwt>
<pdfrwt beam="2">  1        1 0.18344328E-02 0.90723677E+02</pdfrwt>
<pdfrwt beam="1">  1       -1 0.26549282E-01 0.90723677E+02</pdfrwt>
<totfact> 0.73202393E+04</totfact>
</mgrwt>
</event>
<event>
 7    1  0.3607059E-009  0.9077150E+02  0.7818608E-02  0.1300994E+00
          1   -1    0    0  501    0  0.00000000000E+00  0.00000000000E+00  0.19365392756E+03  0.19365392762E+03  0.50400000000E-02 0. -1.
         -1   -1    0    0    0  501 -0.00000000000E+00 -0.00000000000E+00 -0.10636841733E+02  0.10636842927E+02  0.50400000000E-02 0.  1.
         23    2    1    2    0    0  0.00000000000E+00  0.00000000000E+00  0.18301708582E+03  0.20429077055E+03  0.90771500086E+02 0.  0.
    9000005    2    3    3    0    0 -0.84022445390E+01 -0.40249312478E+02  0.58097628617E+02  0.72778506264E+02  0.15191170296E+02 0.  0.
         22    1    3    3    0    0  0.84022445390E+01  0.40249312478E+02  0.12491945721E+03  0.13151226428E+03  0.00000000000E+00 0. -1.
         22    1    4    4    0    0  0.26233674816E+01 -0.87009205225E+01  0.20800881647E+02  0.22699443874E+02  0.00000000000E+00 0.  1.
         22    1    4    4    0    0 -0.11025612021E+02 -0.31548391955E+02  0.37296746969E+02  0.50079062390E+02  0.00000000000E+00 0.  1.
<mgrwt>
<rscale>  0 0.90771500E+02</rscale>
<asrwt>0</asrwt>
<pdfrwt beam="1">  1        1 0.29792909E-01 0.90771500E+02</pdfrwt>
<pdfrwt beam="2">  1       -1 0.16364375E-02 0.90771500E+02</pdfrwt>
<totfact> 0.11908378E+05</totfact>
</mgrwt>
</event>
<event>
 7    1  0.3607059E-009  0.9141844E+02  0.7818608E-02  0.1299453E+00
         -1   -1    0    0    0  501 -0.00000000000E+00  0.00000000000E+00  0.58464106086E+01  0.58464127811E+01  0.50400000000E-02 0.  1.
          1   -1    0    0  501    0  0.00000000000E+00 -0.00000000000E+00 -0.35737007785E+03  0.35737007788E+03  0.50400000000E-02 0. -1.
         23    2    1    2    0    0  0.35527136788E-14  0.00000000000E+00 -0.35152366724E+03  0.36321649066E+03  0.91418436112E+02 0.  0.
    9000005    2    3    3    0    0  0.31878283281E+02  0.68748283237E+01 -0.30280327610E+03  0.30458915299E+03  0.46086761764E+01 0.  0.
         22    1    3    3    0    0 -0.31878283281E+02 -0.68748283237E+01 -0.48720391138E+02  0.58627337668E+02  0.00000000000E+00 0.  1.
         22    1    4    4    0    0  0.17754381636E+02  0.57063026978E+01 -0.15935599531E+03  0.16044348911E+03  0.00000000000E+00 0. -1.
         22    1    4    4    0    0  0.14123901645E+02  0.11685256259E+01 -0.14344728079E+03  0.14414566388E+03  0.00000000000E+00 0. -1.
<mgrwt>
<rscale>  0 0.91418436E+02</rscale>
<asrwt>0</asrwt>
<pdfrwt beam="2">  1        1 0.54979995E-01 0.91418436E+02</pdfrwt>
<pdfrwt beam="1">  1       -1 0.89944824E-03 0.91418436E+02</pdfrwt>
<totfact> 0.13139274E+05</totfact>
</mgrwt>
</event>
<event>
 7    1  0.3607059E-009  0.8831549E+02  0.7818608E-02  0.1306983E+00
         -1   -1    0    0    0  501 -0.00000000000E+00  0.00000000000E+00  0.11463292772E+02  0.11463293880E+02  0.50400000000E-02 0. -1.
          1   -1    0    0  501    0  0.00000000000E+00 -0.00000000000E+00 -0.17010003639E+03  0.17010003646E+03  0.50400000000E-02 0.  1.
         23    2    1    2    0    0  0.00000000000E+00  0.35527136788E-14 -0.15863674361E+03  0.18156333034E+03  0.88315494109E+02 0.  0.
    9000005    2    3    3    0    0 -0.11783398395E+02 -0.28182145126E+02 -0.14467833615E+03  0.14797882617E+03  0.57297697235E+01 0.  0.
         22    1    3    3    0    0  0.11783398395E+02  0.28182145126E+02 -0.13958407464E+02  0.33584504173E+02  0.00000000000E+00 0. -1.
         22    1    4    4    0    0 -0.90531892381E+01 -0.25348505375E+02 -0.13145572964E+03  0.13418314282E+03  0.00000000000E+00 0.  1.
         22    1    4    4    0    0 -0.27302091565E+01 -0.28336397507E+01 -0.13222606506E+02  0.13795683349E+02  0.00000000000E+00 0.  1.
<mgrwt>
<rscale>  0 0.88315494E+02</rscale>
<asrwt>0</asrwt>
<pdfrwt beam="2">  1        1 0.26169235E-01 0.88315494E+02</pdfrwt>
<pdfrwt beam="1">  1       -1 0.17635837E-02 0.88315494E+02</pdfrwt>
<totfact> 0.12504223E+05</totfact>
</mgrwt>
</event>
<event>
 7    1  0.3607059E-009  0.8633667E+02  0.7818608E-02  0.1311974E+00
          1   -1    0    0  501    0  0.00000000000E+00  0.00000000000E+00  0.29696780841E+03  0.29696780846E+03  0.50400000000E-02 0. -1.
         -1   -1    0    0    0  501 -0.00000000000E+00 -0.00000000000E+00 -0.62751070483E+01  0.62751090723E+01  0.50400000000E-02 0.  1.
         23    2    1    2    0    0 -0.71054273576E-14 -0.35527136788E-14  0.29069270137E+03  0.30324291753E+03  0.86336668943E+02 0.  0.
    9000005    2    3    3    0    0 -0.33006868934E+02 -0.17605303973E+02  0.75379162103E+02  0.84703858515E+02  0.96605094696E+01 0.  0.
         22    1    3    3    0    0  0.33006868934E+02  0.17605303973E+02  0.21531353926E+03  0.21853905901E+03  0.00000000000E+00 0. -1.
         22    1    4    4    0    0 -0.29671762320E+02 -0.18733487107E+02  0.67600223175E+02  0.76165262368E+02  0.00000000000E+00 0. -1.
         22    1    4    4    0    0 -0.33351066141E+01  0.11281831340E+01  0.77789389279E+01  0.85385961467E+01  0.00000000000E+00 0. -1.
<mgrwt>
<rscale>  0 0.86336669E+02</rscale>
<asrwt>0</asrwt>
<pdfrwt beam="1">  1        1 0.45687362E-01 0.86336669E+02</pdfrwt>
<pdfrwt beam="2">  1       -1 0.96540111E-03 0.86336669E+02</pdfrwt>
<totfact> 0.14780907E+05</totfact>
</mgrwt>
</event>
<event>
 7    1  0.3607059E-009  0.9604324E+02  0.7818608E-02  0.1288844E+00
          1   -1    0    0  501    0  0.00000000000E+00  0.00000000000E+00  0.69291758900E+01  0.69291777229E+01  0.50400000000E-02 0. -1.
         -1   -1    0    0    0  501 -0.00000000000E+00 -0.00000000000E+00 -0.33280664703E+03  0.33280664707E+03  0.50400000000E-02 0.  1.
         23    2    1    2    0    0 -0.71054273576E-14  0.00000000000E+00 -0.32587747114E+03  0.33973582479E+03  0.96043242604E+02 0.  0.
    9000005    2    3    3    0    0 -0.41955922415E+02  0.16877358264E+02 -0.10681733654E+03  0.11605639521E+03  0.37415017684E+01 0.  0.
         22    1    3    3    0    0  0.41955922415E+02 -0.16877358264E+02 -0.21906013460E+03  0.22367942959E+03  0.00000000000E+00 0.  1.
         22    1    4    4    0    0 -0.38263830416E+02  0.15634563291E+02 -0.94689799041E+02  0.10331852849E+03  0.00000000000E+00 0. -1.
         22    1    4    4    0    0 -0.36920919990E+01  0.12427949730E+01 -0.12127537497E+02  0.12737866714E+02  0.00000000000E+00 0. -1.
<mgrwt>
<rscale>  0 0.96043243E+02</rscale>
<asrwt>0</asrwt>
<pdfrwt beam="1">  1        1 0.10660275E-02 0.96043243E+02</pdfrwt>
<pdfrwt beam="2">  1       -1 0.51201010E-01 0.96043243E+02</pdfrwt>
<totfact> 0.50652985E+04</totfact>
</mgrwt>
</event>
<event>
 7    1  0.3607059E-009  0.9125954E+02  0.7818608E-02  0.1299830E+00
         -1   -1    0    0    0  501 -0.00000000000E+00  0.00000000000E+00  0.43919096863E+03  0.43919096865E+03  0.50400000000E-02 0.  1.
          1   -1    0    0  501    0  0.00000000000E+00 -0.00000000000E+00 -0.47407057897E+01  0.47407084687E+01  0.50400000000E-02 0. -1.
         23    2    1    2    0    0  0.00000000000E+00  0.00000000000E+00  0.43445026284E+03  0.44393167712E+03  0.91259536900E+02 0.  0.
    9000005    2    3    3    0    0  0.10083069109E+02  0.11800698746E+02  0.42574022989E+03  0.42613309720E+03  0.96823758534E+01 0.  0.
         22    1    3    3    0    0 -0.10083069109E+02 -0.11800698746E+02  0.87100329416E+01  0.17798579927E+02  0.00000000000E+00 0. -1.
         22    1    4    4    0    0  0.47317573662E+01  0.18665208251E+01  0.23782554947E+03  0.23787993906E+03  0.00000000000E+00 0.  1.
         22    1    4    4    0    0  0.53513117433E+01  0.99341779212E+01  0.18791468043E+03  0.18825315814E+03  0.00000000000E+00 0.  1.
<mgrwt>
<rscale>  0 0.91259537E+02</rscale>
<asrwt>0</asrwt>
<pdfrwt beam="2">  1        1 0.72933930E-03 0.91259537E+02</pdfrwt>
<pdfrwt beam="1">  1       -1 0.67567866E-01 0.91259537E+02</pdfrwt>
<totfact> 0.50609817E+04</totfact>
</mgrwt>
</event>
<event>
 7    1  0.3607059E-009  0.8962327E+02  0.7818608E-02  0.1303767E+00
          1   -1    0    0  501    0  0.00000000000E+00  0.00000000000E+00  0.34318984347E+04  0.34318984347E+04  0.50400000000E-02 0. -1.
         -1   -1    0    0    0  501 -0.00000000000E+00 -0.00000000000E+00 -0.58511217440E+00  0.58513388060E+00  0.50400000000E-02 0.  1.
         23    2    1    2    0    0  0.00000000000E+00  0.00000000000E+00  0.34313133226E+04  0.34324835686E+04  0.89623274096E+02 0.  0.
    9000005    2    3    3    0    0 -0.11230573144E+02  0.31432283002E+01  0.33717327877E+04  0.33717724016E+04  0.11451262055E+02 0.  0.
         22    1    3    3    0    0  0.11230573144E+02 -0.31432283002E+01  0.59580534890E+02  0.60711166972E+02  0.00000000000E+00 0.  1.
         22    1    4    4    0    0 -0.40777792045E+01 -0.42532949724E+01  0.14653691582E+04  0.14653810046E+04  0.00000000000E+00 0. -1.
         22    1    4    4    0    0 -0.71527939390E+01  0.73965232726E+01  0.19063636294E+04  0.19063913970E+04  0.00000000000E+00 0. -1.
<mgrwt>
<rscale>  0 0.89623274E+02</rscale>
<asrwt>0</asrwt>
<pdfrwt beam="1">  1        1 0.52800496E+00 0.89623274E+02</pdfrwt>
<pdfrwt beam="2">  1       -1 0.90015418E-04 0.89623274E+02</pdfrwt>
<totfact> 0.19727385E+04</totfact>
</mgrwt>
</event>
<event>
 7    1  0.3607059E-009  0.9329889E+02  0.7818608E-02  0.1295054E+00
          1   -1    0    0  501    0  0.00000000000E+00  0.00000000000E+00  0.22788388254E+02  0.22788388811E+02  0.50400000000E-02 0. -1.
         -1   -1    0    0    0  501 -0.00000000000E+00 -0.00000000000E+00 -0.95494717620E+02  0.95494717753E+02  0.50400000000E-02 0.  1.
         23    2    1    2    0    0  0.00000000000E+00  0.00000000000E+00 -0.72706329366E+02  0.11828310656E+03  0.93298890501E+02 0.  0.
    9000005    2    3    3    0    0  0.10378174384E+02 -0.13380753653E+02  0.18315057346E+02  0.25699933629E+02  0.61882300439E+01 0.  0.
         22    1    3    3    0    0 -0.10378174384E+02  0.13380753653E+02 -0.91021386711E+02  0.92583172935E+02  0.00000000000E+00 0.  1.
         22    1    4    4    0    0  0.12422633484E+01 -0.21794987506E+01  0.67086429224E+01  0.71623545633E+01  0.00000000000E+00 0.  1.
         22    1    4    4    0    0  0.91359110360E+01 -0.11201254902E+02  0.11606414423E+02  0.18537579066E+02  0.00000000000E+00 0.  1.
<mgrwt>
<rscale>  0 0.93298891E+02</rscale>
<asrwt>0</asrwt>
<pdfrwt beam="1">  1        1 0.35059060E-02 0.93298891E+02</pdfrwt>
<pdfrwt beam="2">  1       -1 0.14691495E-01 0.93298891E+02</pdfrwt>
<totfact> 0.77342024E+04</totfact>
</mgrwt>
</event>
<event>
 7    1  0.3607059E-009  0.9967856E+02  0.7818608E-02  0.1280973E+00
          1   -1    0    0  501    0  0.00000000000E+00  0.00000000000E+00  0.22432177938E+02  0.22432178504E+02  0.50400000000E-02 0. -1.
         -1   -1    0    0    0  501 -0.00000000000E+00 -0.00000000000E+00 -0.11073173644E+03  0.11073173656E+03  0.50400000000E-02 0.  1.
         23    2    1    2    0    0  0.00000000000E+00  0.44408920985E-15 -0.88299558503E+02  0.13316391506E+03  0.99678564608E+02 0.  0.
    9000005    2    3    3    0    0  0.25687750157E+02  0.36132997850E+01  0.11456190577E+02  0.30090514427E+02  0.10063712661E+02 0.  0.
         22    1    3    3    0    0 -0.25687750157E+02 -0.36132997850E+01 -0.99755749080E+02  0.10307340063E+03  0.00000000000E+00 0.  1.
         22    1    4    4    0    0  0.18610384033E+02 -0.19165107230E+01  0.63391408659E+01  0.19753584843E+02  0.00000000000E+00 0. -1.
         22    1    4    4    0    0  0.70773661237E+01  0.55298105080E+01  0.51170497107E+01  0.10336929585E+02  0.00000000000E+00 0. -1.
<mgrwt>
<rscale>  0 0.99678565E+02</rscale>
<asrwt>0</asrwt>
<pdfrwt beam="1">  1        1 0.34511044E-02 0.99678565E+02</pdfrwt>
<pdfrwt beam="2">  1       -1 0.17035651E-01 0.99678565E+02</pdfrwt>
<totfact> 0.63368260E+04</totfact>
</mgrwt>
</event>
<event>
 7    1  0.3607059E-009  0.9107746E+02  0.7818608E-02  0.1300263E+00
          1   -1    0    0  501    0  0.00000000000E+00  0.00000000000E+00  0.36482565730E+01  0.36482600543E+01  0.50400000000E-02 0. -1.
         -1   -1    0    0    0  501 -0.00000000000E+00 -0.00000000000E+00 -0.56842897813E+03  0.56842897815E+03  0.50400000000E-02 0.  1.
         23    2    1    2    0    0 -0.88817841970E-15  0.00000000000E+00 -0.56478072155E+03  0.57207723820E+03  0.91077456221E+02 0.  0.
    9000005    2    3    3    0    0 -0.52678134824E+01 -0.43904557270E+02 -0.31085285796E+03  0.31432790277E+03  0.14736727889E+02 0.  0.
         22    1    3    3    0    0  0.52678134824E+01  0.43904557270E+02 -0.25392786359E+03  0.25774933543E+03  0.00000000000E+00 0. -1.
         22    1    4    4    0    0 -0.77978820221E+01 -0.23356681084E+02 -0.13164488423E+03  0.13392802941E+03  0.00000000000E+00 0.  1.
         22    1    4    4    0    0  0.25300685396E+01 -0.20547876186E+02 -0.17920797373E+03  0.18039987337E+03  0.00000000000E+00 0.  1.
<mgrwt>
<rscale>  0 0.91077456E+02</rscale>
<asrwt>0</asrwt>
<pdfrwt beam="1">  1        1 0.56127096E-03 0.91077456E+02</pdfrwt>
<pdfrwt beam="2">  1       -1 0.87450542E-01 0.91077456E+02</pdfrwt>
<totfact> 0.43375176E+04</totfact>
</mgrwt>
</event>
<event>
 7    1  0.3607059E-009  0.9853612E+02  0.7818608E-02  0.1283405E+00
          1   -1    0    0  501    0  0.00000000000E+00  0.00000000000E+00  0.92216372187E+02  0.92216372325E+02  0.50400000000E-02 0. -1.
         -1   -1    0    0    0  501 -0.00000000000E+00 -0.00000000000E+00 -0.26322241197E+02  0.26322241679E+02  0.50400000000E-02 0.  1.
         23    2    1    2    0    0 -0.35527136788E-14 -0.44408920985E-15  0.65894130990E+02  0.11853861400E+03  0.98536117800E+02 0.  0.
    9000005    2    3    3    0    0  0.21044028759E+02  0.31633783687E+01  0.86088417069E+02  0.89201482254E+02  0.96348727888E+01 0.  0.
         22    1    3    3    0    0 -0.21044028759E+02 -0.31633783687E+01 -0.20194286079E+02  0.29337131751E+02  0.00000000000E+00 0.  1.
         22    1    4    4    0    0 -0.89324558158E+00  0.85138768120E+00  0.32500465172E+01  0.34764279105E+01  0.00000000000E+00 0. -1.
         22    1    4    4    0    0  0.21937274341E+02  0.23119906875E+01  0.82838370552E+02  0.85725054343E+02  0.00000000000E+00 0. -1.
<mgrwt>
<rscale>  0 0.98536118E+02</rscale>
<asrwt>0</asrwt>
<pdfrwt beam="1">  1        1 0.14187134E-01 0.98536118E+02</pdfrwt>
<pdfrwt beam="2">  1       -1 0.40495756E-02 0.98536118E+02</pdfrwt>
<totfact> 0.83264427E+04</totfact>
</mgrwt>
</event>
<event>
 7    1  0.3607059E-009  0.8425846E+02  0.7818608E-02  0.1317383E+00
          1   -1    0    0  501    0  0.00000000000E+00  0.00000000000E+00  0.65656332113E+03  0.65656332115E+03  0.50400000000E-02 0. -1.
         -1   -1    0    0    0  501 -0.00000000000E+00 -0.00000000000E+00 -0.27032741608E+01  0.27032788591E+01  0.50400000000E-02 0.  1.
         23    2    1    2    0    0  0.35527136788E-14 -0.35527136788E-14  0.65386004697E+03  0.65926660001E+03  0.84258464644E+02 0.  0.
    9000005    2    3    3    0    0 -0.19229021312E+02  0.30323690306E+02  0.49668034701E+03  0.49803775788E+03  0.78076702810E+01 0.  0.
         22    1    3    3    0    0  0.19229021312E+02 -0.30323690306E+02  0.15717969996E+03  0.16122884213E+03  0.00000000000E+00 0.  1.
         22    1    4    4    0    0 -0.14967480232E+02  0.28100790597E+02  0.41804278949E+03  0.41925344810E+03  0.00000000000E+00 0.  1.
         22    1    4    4    0    0 -0.42615410796E+01  0.22228997084E+01  0.78637557523E+02  0.78784309787E+02  0.00000000000E+00 0.  1.
<mgrwt>
<rscale>  0 0.84258465E+02</rscale>
<asrwt>0</asrwt>
<pdfrwt beam="1">  1        1 0.10100975E+00 0.84258465E+02</pdfrwt>
<pdfrwt beam="2">  1       -1 0.41588868E-03 0.84258465E+02</pdfrwt>
<totfact> 0.17496378E+05</totfact>
</mgrwt>
</event>
<event>
 7    1  0.3607059E-009  0.9181105E+02  0.7818608E-02  0.1298524E+00
          1   -1    0    0  501    0  0.00000000000E+00  0.00000000000E+00  0.14183549643E+02  0.14183550539E+02  0.50400000000E-02 0. -1.
         -1   -1    0    0    0  501 -0.00000000000E+00 -0.00000000000E+00 -0.14857474908E+03  0.14857474917E+03  0.50400000000E-02 0.  1.
         23    2    1    2    0    0  0.00000000000E+00 -0.17763568394E-14 -0.13439119944E+03  0.16275829971E+03  0.91811054002E+02 0.  0.
    9000005    2    3    3    0    0 -0.33361285114E+02  0.14063484801E+02 -0.11678675724E+03  0.12250071242E+03  0.75180401047E+01 0.  0.
         22    1    3    3    0    0  0.33361285114E+02 -0.14063484801E+02 -0.17604442200E+02  0.40257587290E+02  0.00000000000E+00 0. -1.
         22    1    4    4    0    0 -0.95733331889E+01  0.26759154435E+01 -0.43254231944E+02  0.44381728367E+02  0.00000000000E+00 0.  1.
         22    1    4    4    0    0 -0.23787951926E+02  0.11387569357E+02 -0.73532525297E+02  0.78118984052E+02  0.00000000000E+00 0.  1.
<mgrwt>
<rscale>  0 0.91811054E+02</rscale>
<asrwt>0</asrwt>
<pdfrwt beam="1">  1        1 0.21820847E-02 0.91811054E+02</pdfrwt>
<pdfrwt beam="2">  1       -1 0.22857653E-01 0.91811054E+02</pdfrwt>
<totfact> 0.73617583E+04</totfact>
</mgrwt>
</event>
<event>
 7    1  0.3607059E-009  0.9104808E+02  0.7818608E-02  0.1300333E+00
          1   -1    0    0  501    0  0.00000000000E+00  0.00000000000E+00  0.79178305129E+03  0.79178305130E+03  0.50400000000E-02 0. -1.
         -1   -1    0    0    0  501 -0.00000000000E+00 -0.00000000000E+00 -0.26174296636E+01  0.26174345160E+01  0.50400000000E-02 0.  1.
         23    2    1    2    0    0  0.00000000000E+00 -0.35527136788E-14  0.78916562162E+03  0.79440048582E+03  0.91048083545E+02 0.  0.
    9000005    2    3    3    0    0  0.24307739110E+02 -0.30554185344E+02  0.59615399403E+03  0.59747940313E+03  0.75913199977E+01 0.  0.
         22    1    3    3    0    0 -0.24307739110E+02  0.30554185344E+02  0.19301162759E+03  0.19692108269E+03  0.00000000000E+00 0.  1.
         22    1    4    4    0    0  0.97445696188E+01 -0.66968539754E+01  0.17792769859E+03  0.17832013463E+03  0.00000000000E+00 0. -1.
         22    1    4    4    0    0  0.14563169491E+02 -0.23857331369E+02  0.41822629544E+03  0.41915926849E+03  0.00000000000E+00 0. -1.
<mgrwt>
<rscale>  0 0.91048084E+02</rscale>
<asrwt>0</asrwt>
<pdfrwt beam="1">  1        1 0.12181282E+00 0.91048084E+02</pdfrwt>
<pdfrwt beam="2">  1       -1 0.40268172E-03 0.91048084E+02</pdfrwt>
<totfact> 0.14195054E+05</totfact>
</mgrwt>
</event>
<event>
 7    1  0.3607059E-009  0.9117353E+02  0.7818608E-02  0.1300034E+00
          1   -1    0    0  501    0  0.00000000000E+00  0.00000000000E+00  0.57919661601E+01  0.57919683529E+01  0.50400000000E-02 0. -1.
         -1   -1    0    0    0  501 -0.00000000000E+00 -0.00000000000E+00 -0.35879918898E+03  0.35879918902E+03  0.50400000000E-02 0.  1.
         23    2    1    2    0    0 -0.35527136788E-14  0.00000000000E+00 -0.35300722282E+03  0.36459115737E+03  0.91173530524E+02 0.  0.
    9000005    2    3    3    0    0  0.16277998517E+02  0.30578278571E+02 -0.29321436418E+03  0.29548840561E+03  0.11778375646E+02 0.  0.
         22    1    3    3    0    0 -0.16277998517E+02 -0.30578278571E+02 -0.59792858638E+02  0.69102751756E+02  0.00000000000E+00 0. -1.
         22    1    4    4    0    0 -0.53098481734E+00  0.26274577259E+01 -0.53275438421E+02  0.53342832864E+02  0.00000000000E+00 0. -1.
         22    1    4    4    0    0  0.16808983334E+02  0.27950820845E+02 -0.23993892576E+03  0.24214557275E+03  0.00000000000E+00 0. -1.
<mgrwt>
<rscale>  0 0.91173531E+02</rscale>
<asrwt>0</asrwt>
<pdfrwt beam="1">  1        1 0.89107217E-03 0.91173531E+02</pdfrwt>
<pdfrwt beam="2">  1       -1 0.55199858E-01 0.91173531E+02</pdfrwt>
<totfact> 0.56157381E+04</totfact>
</mgrwt>
</event>
<event>
 7    1  0.3823137E-009  0.9003114E+02  0.7818608E-02  0.1302776E+00
         -1   -1    0    0    0  501 -0.00000000000E+00  0.00000000000E+00  0.23772759489E+01  0.23772812915E+01  0.50400000000E-02 0.  1.
          1   -1    0    0  501    0  0.00000000000E+00 -0.00000000000E+00 -0.85240382260E+03  0.85240382262E+03  0.50400000000E-02 0. -1.
         23    2    1    2    0    0  0.00000000000E+00  0.00000000000E+00 -0.85002654665E+03  0.85478110391E+03  0.90031136746E+02 0.  0.
    9000005    2    3    3    0    0 -0.24074752252E+01  0.33615231051E+02 -0.70120314497E+03  0.70218954259E+03  0.15764628701E+02 0.  0.
         22    1    3    3    0    0  0.24074752252E+01 -0.33615231051E+02 -0.14882340168E+03  0.15259156131E+03  0.00000000000E+00 0.  1.
         22    1    4    4    0    0 -0.50432122183E+01  0.28853659786E+02 -0.46379373668E+03  0.46471776150E+03  0.00000000000E+00 0.  1.
         22    1    4    4    0    0  0.26357369931E+01  0.47615712648E+01 -0.23740940829E+03  0.23747178109E+03  0.00000000000E+00 0.  1.
<mgrwt>
<rscale>  0 0.90031137E+02</rscale>
<asrwt>0</asrwt>
<pdfrwt beam="2">  1        1 0.13113881E+00 0.90031137E+02</pdfrwt>
<pdfrwt beam="1">  1       -1 0.36573585E-03 0.90031137E+02</pdfrwt>
<totfact> 0.14509440E+05</totfact>
</mgrwt>
</event>
<event>
 7    1  0.3607059E-009  0.9632888E+02  0.7818608E-02  0.1288211E+00
          1   -1    0    0  501    0  0.00000000000E+00  0.00000000000E+00  0.14067843991E+03  0.14067844000E+03  0.50400000000E-02 0. -1.
         -1   -1    0    0    0  501 -0.00000000000E+00 -0.00000000000E+00 -0.16490181699E+02  0.16490182469E+02  0.50400000000E-02 0.  1.
         23    2    1    2    0    0  0.00000000000E+00 -0.35527136788E-14  0.12418825821E+03  0.15716862247E+03  0.96328876312E+02 0.  0.
    9000005    2    3    3    0    0 -0.23256256196E+02  0.28393250333E+02  0.13619664743E+02  0.40667789948E+02  0.11015614137E+02 0.  0.
         22    1    3    3    0    0  0.23256256196E+02 -0.28393250333E+02  0.11056859347E+03  0.11650083252E+03  0.00000000000E+00 0.  1.
         22    1    4    4    0    0 -0.20543939017E+02  0.24192890262E+02  0.72255178847E+01  0.32550844509E+02  0.00000000000E+00 0.  1.
         22    1    4    4    0    0 -0.27123171786E+01  0.42003600711E+01  0.63941468587E+01  0.81169454387E+01  0.00000000000E+00 0.  1.
<mgrwt>
<rscale>  0 0.96328876E+02</rscale>
<asrwt>0</asrwt>
<pdfrwt beam="1">  1        1 0.21642836E-01 0.96328876E+02</pdfrwt>
<pdfrwt beam="2">  1       -1 0.25369512E-02 0.96328876E+02</pdfrwt>
<totfact> 0.95475456E+04</totfact>
</mgrwt>
</event>
<event>
 6    1  0.3607059E-009  0.3275348E+02  0.7818608E-02  0.1569506E+00
          1   -1    0    0  501    0  0.00000000000E+00  0.00000000000E+00  0.72446799683E+01  0.72446817214E+01  0.50400000000E-02 0.  1.
         -1   -1    0    0    0  501 -0.00000000000E+00 -0.00000000000E+00 -0.37019923095E+02  0.37019923438E+02  0.50400000000E-02 0. -1.
    9000005    2    1    2    0    0 -0.22468739409E+01  0.14649200881E+02 -0.12716003122E+02  0.21666702635E+02  0.93862526459E+01 0.  0.
         22    1    1    2    0    0  0.22468739409E+01 -0.14649200881E+02 -0.17059240005E+02  0.22597902525E+02  0.00000000000E+00 0. -1.
         22    1    3    3    0    0 -0.61880081406E+00  0.10220734913E+02 -0.13436907188E+02  0.16893691467E+02  0.00000000000E+00 0. -1.
         22    1    3    3    0    0 -0.16280731268E+01  0.44284659682E+01  0.72090406635E+00  0.47730111681E+01  0.00000000000E+00 0. -1.
<mgrwt>
<rscale>  0 0.32753476E+02</rscale>
<asrwt>0</asrwt>
<pdfrwt beam="1">  1        1 0.11145663E-02 0.32753476E+02</pdfrwt>
<pdfrwt beam="2">  1       -1 0.56953728E-02 0.32753476E+02</pdfrwt>
<totfact> 0.11651632E+06</totfact>
</mgrwt>
</event>
<event>
 7    1  0.3607059E-009  0.9865336E+02  0.7818608E-02  0.1283153E+00
         -1   -1    0    0    0  501 -0.00000000000E+00  0.00000000000E+00  0.48469005589E+01  0.48469031793E+01  0.50400000000E-02 0.  1.
          1   -1    0    0  501    0  0.00000000000E+00 -0.00000000000E+00 -0.50199518771E+03  0.50199518774E+03  0.50400000000E-02 0. -1.
         23    2    1    2    0    0  0.00000000000E+00  0.00000000000E+00 -0.49714828715E+03  0.50684209092E+03  0.98653361349E+02 0.  0.
    9000005    2    3    3    0    0 -0.20834038379E+02 -0.32253406072E+02 -0.40639164163E+03  0.40829713638E+03  0.88343550647E+01 0.  0.
         22    1    3    3    0    0  0.20834038379E+02  0.32253406072E+02 -0.90756645526E+02  0.98544954541E+02  0.00000000000E+00 0.  1.
         22    1    4    4    0    0 -0.95870340816E+01 -0.20284200212E+02 -0.20047294491E+03  0.20172446961E+03  0.00000000000E+00 0.  1.
         22    1    4    4    0    0 -0.11247004298E+02 -0.11969205860E+02 -0.20591869672E+03  0.20657266677E+03  0.00000000000E+00 0.  1.
<mgrwt>
<rscale>  0 0.98653361E+02</rscale>
<asrwt>0</asrwt>
<pdfrwt beam="2">  1        1 0.77229988E-01 0.98653361E+02</pdfrwt>
<pdfrwt beam="1">  1       -1 0.74567761E-03 0.98653361E+02</pdfrwt>
<totfact> 0.11297161E+05</totfact>
</mgrwt>
</event>
<event>
 7    1  0.3607059E-009  0.9525613E+02  0.7818608E-02  0.1290600E+00
          1   -1    0    0  501    0  0.00000000000E+00  0.00000000000E+00  0.13566701528E+02  0.13566702464E+02  0.50400000000E-02 0. -1.
         -1   -1    0    0    0  501 -0.00000000000E+00 -0.00000000000E+00 -0.16720591139E+03  0.16720591147E+03  0.50400000000E-02 0.  1.
         23    2    1    2    0    0  0.00000000000E+00  0.22204460493E-15 -0.15363920987E+03  0.18077261393E+03  0.95256134398E+02 0.  0.
    9000005    2    3    3    0    0  0.46672531557E+02 -0.81493615158E+00 -0.63363017773E+02  0.79142007414E+02  0.83424213138E+01 0.  0.
         22    1    3    3    0    0 -0.46672531557E+02  0.81493615158E+00 -0.90276192093E+02  0.10163060652E+03  0.00000000000E+00 0. -1.
         22    1    4    4    0    0  0.17188829326E+02 -0.33817719526E+01 -0.19326785922E+02  0.26084801882E+02  0.00000000000E+00 0.  1.
         22    1    4    4    0    0  0.29483702231E+02  0.25668358010E+01 -0.44036231850E+02  0.53057205532E+02  0.00000000000E+00 0.  1.
<mgrwt>
<rscale>  0 0.95256134E+02</rscale>
<asrwt>0</asrwt>
<pdfrwt beam="1">  1        1 0.20871850E-02 0.95256134E+02</pdfrwt>
<pdfrwt beam="2">  1       -1 0.25723985E-01 0.95256134E+02</pdfrwt>
<totfact> 0.64995256E+04</totfact>
</mgrwt>
</event>
<event>
 7    1  0.3607059E-009  0.8975477E+02  0.7818608E-02  0.1303447E+00
         -1   -1    0    0    0  501 -0.00000000000E+00  0.00000000000E+00  0.37620100781E+01  0.37620134542E+01  0.50400000000E-02 0.  1.
          1   -1    0    0  501    0  0.00000000000E+00 -0.00000000000E+00 -0.53534646337E+03  0.53534646340E+03  0.50400000000E-02 0. -1.
         23    2    1    2    0    0  0.00000000000E+00 -0.17763568394E-14 -0.53158445329E+03  0.53910847685E+03  0.89754770501E+02 0.  0.
    9000005    2    3    3    0    0  0.23094026474E+02 -0.13924046566E+02 -0.47951894992E+03  0.48047376210E+03  0.13762253031E+02 0.  0.
         22    1    3    3    0    0 -0.23094026474E+02  0.13924046566E+02 -0.52065503377E+02  0.58634714747E+02  0.00000000000E+00 0.  1.
         22    1    4    4    0    0  0.16924454039E+02 -0.38781778117E+01 -0.21853672723E+03  0.21922540582E+03  0.00000000000E+00 0. -1.
         22    1    4    4    0    0  0.61695724351E+01 -0.10045868754E+02 -0.26098222268E+03  0.26124835628E+03  0.00000000000E+00 0. -1.
<mgrwt>
<rscale>  0 0.89754771E+02</rscale>
<asrwt>0</asrwt>
<pdfrwt beam="2">  1        1 0.82360935E-01 0.89754771E+02</pdfrwt>
<pdfrwt beam="1">  1       -1 0.57877146E-03 0.89754771E+02</pdfrwt>
<totfact> 0.14626028E+05</totfact>
</mgrwt>
</event>
<event>
 7    1  0.3607059E-009  0.9098415E+02  0.7818608E-02  0.1300486E+00
         -1   -1    0    0    0  501 -0.00000000000E+00  0.00000000000E+00  0.18278553891E+02  0.18278554585E+02  0.50400000000E-02 0.  1.
          1   -1    0    0  501    0  0.00000000000E+00 -0.00000000000E+00 -0.11322169120E+03  0.11322169132E+03  0.50400000000E-02 0. -1.
         23    2    1    2    0    0  0.00000000000E+00  0.00000000000E+00 -0.94943137314E+02  0.13150024590E+03  0.90984148891E+02 0.  0.
    9000005    2    3    3    0    0 -0.40940370532E+01  0.43891340714E+02 -0.34914749093E+02  0.57024623572E+02  0.94634592133E+01 0.  0.
         22    1    3    3    0    0  0.40940370532E+01 -0.43891340714E+02 -0.60028388222E+02  0.74475622331E+02  0.00000000000E+00 0. -1.
         22    1    4    4    0    0 -0.62250993900E+01  0.22343136280E+02 -0.20979608262E+02  0.31274775204E+02  0.00000000000E+00 0. -1.
         22    1    4    4    0    0  0.21310623368E+01  0.21548204433E+02 -0.13935140831E+02  0.25749848368E+02  0.00000000000E+00 0. -1.
<mgrwt>
<rscale>  0 0.90984149E+02</rscale>
<asrwt>0</asrwt>
<pdfrwt beam="2">  1        1 0.17418721E-01 0.90984149E+02</pdfrwt>
<pdfrwt beam="1">  1       -1 0.28120853E-02 0.90984149E+02</pdfrwt>
<totfact> 0.10727867E+05</totfact>
</mgrwt>
</event>
<event>
 7    1  0.3607059E-009  0.8931726E+02  0.7818608E-02  0.1304514E+00
         -1   -1    0    0    0  501 -0.00000000000E+00  0.00000000000E+00  0.13784824536E+03  0.13784824545E+03  0.50400000000E-02 0.  1.
          1   -1    0    0  501    0  0.00000000000E+00 -0.00000000000E+00 -0.14468034440E+02  0.14468035318E+02  0.50400000000E-02 0. -1.
         23    2    1    2    0    0 -0.35527136788E-14 -0.17763568394E-14  0.12338021092E+03  0.15231628077E+03  0.89317260040E+02 0.  0.
    9000005    2    3    3    0    0  0.25870605830E+02  0.12547974176E+02  0.78453989369E+01  0.33257334521E+02  0.14756697225E+02 0.  0.
         22    1    3    3    0    0 -0.25870605830E+02 -0.12547974176E+02  0.11553481199E+03  0.11905894625E+03  0.00000000000E+00 0.  1.
         22    1    4    4    0    0  0.46804636159E+01 -0.20661340246E+01  0.53390959453E+01  0.73947004659E+01  0.00000000000E+00 0. -1.
         22    1    4    4    0    0  0.21190142215E+02  0.14614108200E+02  0.25063029916E+01  0.25862634055E+02  0.00000000000E+00 0. -1.
<mgrwt>
<rscale>  0 0.89317260E+02</rscale>
<asrwt>0</asrwt>
<pdfrwt beam="2">  1        1 0.22258515E-02 0.89317260E+02</pdfrwt>
<pdfrwt beam="1">  1       -1 0.21207423E-01 0.89317260E+02</pdfrwt>
<totfact> 0.80420458E+04</totfact>
</mgrwt>
</event>
<event>
 7    1  0.3607059E-009  0.9471405E+02  0.7818608E-02  0.1291821E+00
          1   -1    0    0  501    0  0.00000000000E+00  0.00000000000E+00  0.12954688418E+03  0.12954688428E+03  0.50400000000E-02 0. -1.
         -1   -1    0    0    0  501 -0.00000000000E+00 -0.00000000000E+00 -0.17311786087E+02  0.17311786821E+02  0.50400000000E-02 0.  1.
         23    2    1    2    0    0  0.00000000000E+00  0.00000000000E+00  0.11223509810E+03  0.14685867110E+03  0.94714054043E+02 0.  0.
    9000005    2    3    3    0    0 -0.42264081037E+02 -0.92051167104E+01  0.26908271781E+02  0.51194393503E+02  0.50817434327E+01 0.  0.
         22    1    3    3    0    0  0.42264081037E+02  0.92051167104E+01  0.85326826317E+02  0.95664277601E+02  0.00000000000E+00 0. -1.
         22    1    4    4    0    0 -0.29859440180E+02 -0.75635241773E+01  0.16652592934E+02  0.35015738137E+02  0.00000000000E+00 0.  1.
         22    1    4    4    0    0 -0.12404640857E+02 -0.16415925331E+01  0.10255678847E+02  0.16178655366E+02  0.00000000000E+00 0.  1.
<mgrwt>
<rscale>  0 0.94714054E+02</rscale>
<asrwt>0</asrwt>
<pdfrwt beam="1">  1        1 0.19930290E-01 0.94714054E+02</pdfrwt>
<pdfrwt beam="2">  1       -1 0.26633518E-02 0.94714054E+02</pdfrwt>
<totfact> 0.98477002E+04</totfact>
</mgrwt>
</event>
<event>
 6    1  0.3607059E-009  0.1788053E+03  0.7818608E-02  0.1168964E+00
          1   -1    0    0  501    0  0.00000000000E+00  0.00000000000E+00  0.40353881124E+02  0.40353881439E+02  0.50400000000E-02 0. -1.
         -1   -1    0    0    0  501 -0.00000000000E+00 -0.00000000000E+00 -0.19806862289E+03  0.19806862295E+03  0.50400000000E-02 0.  1.
    9000005    2    1    2    0    0 -0.20527347382E+02  0.51208949174E+02 -0.17264238598E+03  0.18126865038E+03  0.30334320788E+01 0.  0.
         22    1    1    2    0    0  0.20527347382E+02 -0.51208949174E+02  0.14927644214E+02  0.57153854007E+02  0.00000000000E+00 0. -1.
         22    1    3    3    0    0 -0.32398612223E+00  0.84596432238E+00 -0.17949435130E+01  0.20105832131E+01  0.00000000000E+00 0.  1.
         22    1    3    3    0    0 -0.20203361260E+02  0.50362984852E+02 -0.17084744246E+03  0.17925806717E+03  0.00000000000E+00 0.  1.
<mgrwt>
<rscale>  0 0.17880534E+03</rscale>
<asrwt>0</asrwt>
<pdfrwt beam="1">  1        1 0.62082896E-02 0.17880534E+03</pdfrwt>
<pdfrwt beam="2">  1       -1 0.30472095E-01 0.17880534E+03</pdfrwt>
<totfact> 0.11764941E+04</totfact>
</mgrwt>
</event>
<event>
 7    1  0.3607059E-009  0.8998615E+02  0.7818608E-02  0.1302885E+00
         -1   -1    0    0    0  501 -0.00000000000E+00  0.00000000000E+00  0.49270130353E+01  0.49270156130E+01  0.50400000000E-02 0.  1.
          1   -1    0    0  501    0  0.00000000000E+00 -0.00000000000E+00 -0.41087294175E+03  0.41087294178E+03  0.50400000000E-02 0. -1.
         23    2    1    2    0    0  0.00000000000E+00  0.88817841970E-15 -0.40594592871E+03  0.41579995739E+03  0.89986151872E+02 0.  0.
    9000005    2    3    3    0    0  0.43762939256E+02 -0.67649810446E+01 -0.22897211848E+03  0.23337000007E+03  0.85068248941E+01 0.  0.
         22    1    3    3    0    0 -0.43762939256E+02  0.67649810446E+01 -0.17697381023E+03  0.18242995733E+03  0.00000000000E+00 0.  1.
         22    1    4    4    0    0  0.16004965972E+02  0.13896522521E+01 -0.89192695738E+02  0.90627959495E+02  0.00000000000E+00 0.  1.
         22    1    4    4    0    0  0.27757973283E+02 -0.81546332967E+01 -0.13977942274E+03  0.14274204057E+03  0.00000000000E+00 0.  1.
<mgrwt>
<rscale>  0 0.89986152E+02</rscale>
<asrwt>0</asrwt>
<pdfrwt beam="2">  1        1 0.63211195E-01 0.89986152E+02</pdfrwt>
<pdfrwt beam="1">  1       -1 0.75800253E-03 0.89986152E+02</pdfrwt>
<totfact> 0.14028360E+05</totfact>
</mgrwt>
</event>
<event>
 7    1  0.3607059E-009  0.9503649E+02  0.7818608E-02  0.1291094E+00
         -1   -1    0    0    0  501 -0.00000000000E+00  0.00000000000E+00  0.27897636026E+01  0.27897681552E+01  0.50400000000E-02 0.  1.
          1   -1    0    0  501    0  0.00000000000E+00 -0.00000000000E+00 -0.80938104118E+03  0.80938104120E+03  0.50400000000E-02 0. -1.
         23    2    1    2    0    0 -0.17763568394E-14  0.00000000000E+00 -0.80659127758E+03  0.81217080935E+03  0.95036490349E+02 0.  0.
    9000005    2    3    3    0    0  0.12145784087E+02 -0.15421374291E+02 -0.77210154801E+03  0.77248604777E+03  0.14441423167E+02 0.  0.
         22    1    3    3    0    0 -0.12145784087E+02  0.15421374291E+02 -0.34489729566E+02  0.39684761580E+02  0.00000000000E+00 0.  1.
         22    1    4    4    0    0 -0.26871685277E+01 -0.65660599399E+01 -0.22561123580E+03  0.22572275857E+03  0.00000000000E+00 0.  1.
         22    1    4    4    0    0  0.14832952615E+02 -0.88553143512E+01 -0.54649031222E+03  0.54676328921E+03  0.00000000000E+00 0.  1.
<mgrwt>
<rscale>  0 0.95036490E+02</rscale>
<asrwt>0</asrwt>
<pdfrwt beam="2">  1        1 0.12451997E+00 0.95036490E+02</pdfrwt>
<pdfrwt beam="1">  1       -1 0.42919540E-03 0.95036490E+02</pdfrwt>
<totfact> 0.12646675E+05</totfact>
</mgrwt>
</event>
<event>
 7    1  0.3607059E-009  0.9297460E+02  0.7818608E-02  0.1295804E+00
          1   -1    0    0  501    0  0.00000000000E+00  0.00000000000E+00  0.10948117396E+03  0.10948117407E+03  0.50400000000E-02 0. -1.
         -1   -1    0    0    0  501 -0.00000000000E+00 -0.00000000000E+00 -0.19739182113E+02  0.19739182756E+02  0.50400000000E-02 0.  1.
         23    2    1    2    0    0  0.00000000000E+00  0.00000000000E+00  0.89741991845E+02  0.12922035683E+03  0.92974596094E+02 0.  0.
    9000005    2    3    3    0    0 -0.26060298939E+02  0.36688600502E+02  0.51737889509E+02  0.70317857885E+02  0.15575600765E+02 0.  0.
         22    1    3    3    0    0  0.26060298939E+02 -0.36688600502E+02  0.38004102336E+02  0.58902498944E+02  0.00000000000E+00 0.  1.
         22    1    4    4    0    0  0.10141517237E+01  0.79238518102E+01  0.68468261735E+01  0.10521167230E+02  0.00000000000E+00 0. -1.
         22    1    4    4    0    0 -0.27074450662E+02  0.28764748691E+02  0.44891063335E+02  0.59796690655E+02  0.00000000000E+00 0. -1.
<mgrwt>
<rscale>  0 0.92974596E+02</rscale>
<asrwt>0</asrwt>
<pdfrwt beam="1">  1        1 0.16843257E-01 0.92974596E+02</pdfrwt>
<pdfrwt beam="2">  1       -1 0.30367973E-02 0.92974596E+02</pdfrwt>
<totfact> 0.10055932E+05</totfact>
</mgrwt>
</event>
<event>
 7    1  0.3607059E-009  0.1020410E+03  0.7818608E-02  0.1276062E+00
         -1   -1    0    0    0  501 -0.00000000000E+00  0.00000000000E+00  0.15916009181E+02  0.15916009979E+02  0.50400000000E-02 0.  1.
          1   -1    0    0  501    0  0.00000000000E+00 -0.00000000000E+00 -0.16355183191E+03  0.16355183199E+03  0.50400000000E-02 0. -1.
         23    2    1    2    0    0  0.00000000000E+00 -0.71054273576E-14 -0.14763582273E+03  0.17946784197E+03  0.10204102189E+03 0.  0.
    9000005    2    3    3    0    0 -0.12137767631E+02  0.35076858358E+02 -0.13476721086E+03  0.14018282489E+03  0.10550444363E+02 0.  0.
         22    1    3    3    0    0  0.12137767631E+02 -0.35076858358E+02 -0.12868611872E+02  0.39285017079E+02  0.00000000000E+00 0.  1.
         22    1    4    4    0    0 -0.11517934240E+02  0.17420038275E+02 -0.76038119687E+02  0.78853764579E+02  0.00000000000E+00 0. -1.
         22    1    4    4    0    0 -0.61983339081E+00  0.17656820083E+02 -0.58729091173E+02  0.61329060313E+02  0.00000000000E+00 0. -1.
<mgrwt>
<rscale>  0 0.10204102E+03</rscale>
<asrwt>0</asrwt>
<pdfrwt beam="2">  1        1 0.25161819E-01 0.10204102E+03</pdfrwt>
<pdfrwt beam="1">  1       -1 0.24486170E-02 0.10204102E+03</pdfrwt>
<totfact> 0.83969000E+04</totfact>
</mgrwt>
</event>
<event>
 7    1  0.3607059E-009  0.8448608E+02  0.7818608E-02  0.1316782E+00
          1   -1    0    0  501    0  0.00000000000E+00  0.00000000000E+00  0.44976193447E+03  0.44976193450E+03  0.50400000000E-02 0. -1.
         -1   -1    0    0    0  501 -0.00000000000E+00 -0.00000000000E+00 -0.39675961575E+01  0.39675993586E+01  0.50400000000E-02 0.  1.
         23    2    1    2    0    0  0.00000000000E+00  0.00000000000E+00  0.44579433831E+03  0.45372953386E+03  0.84486080643E+02 0.  0.
    9000005    2    3    3    0    0  0.16883526455E+02 -0.57468757385E+01  0.42764579607E+03  0.42828450228E+03  0.15119786758E+02 0.  0.
         22    1    3    3    0    0 -0.16883526455E+02  0.57468757385E+01  0.18148542240E+02  0.25445031573E+02  0.00000000000E+00 0.  1.
         22    1    4    4    0    0  0.39886692153E+01  0.51109509632E+01  0.10777473527E+03  0.10796955527E+03  0.00000000000E+00 0.  1.
         22    1    4    4    0    0  0.12894857240E+02 -0.10857826702E+02  0.31987106080E+03  0.32031494702E+03  0.00000000000E+00 0.  1.
<mgrwt>
<rscale>  0 0.84486081E+02</rscale>
<asrwt>0</asrwt>
<pdfrwt beam="1">  1        1 0.69194128E-01 0.84486081E+02</pdfrwt>
<pdfrwt beam="2">  1       -1 0.61039980E-03 0.84486081E+02</pdfrwt>
<totfact> 0.16797730E+05</totfact>
</mgrwt>
</event>
<event>
 7    1  0.3607059E-009  0.9142117E+02  0.7818608E-02  0.1299446E+00
         -1   -1    0    0    0  501 -0.00000000000E+00  0.00000000000E+00  0.15553495071E+01  0.15553576730E+01  0.50400000000E-02 0.  1.
          1   -1    0    0  501    0  0.00000000000E+00 -0.00000000000E+00 -0.13433970337E+04  0.13433970337E+04  0.50400000000E-02 0. -1.
         23    2    1    2    0    0  0.22204460493E-15  0.00000000000E+00 -0.13418416842E+04  0.13449523914E+04  0.91421166301E+02 0.  0.
    9000005    2    3    3    0    0 -0.18720603994E+01 -0.13269740896E+02 -0.13135004760E+04  0.13136025155E+04  0.94062613712E+01 0.  0.
         22    1    3    3    0    0  0.18720603994E+01  0.13269740896E+02 -0.28341208231E+02  0.31349875878E+02  0.00000000000E+00 0.  1.
         22    1    4    4    0    0 -0.16514326008E+01  0.80812964922E+00 -0.77294462222E+02  0.77316325529E+02  0.00000000000E+00 0. -1.
         22    1    4    4    0    0 -0.22062779865E+00 -0.14077870546E+02 -0.12362060137E+04  0.12362861900E+04  0.00000000000E+00 0. -1.
<mgrwt>
<rscale>  0 0.91421166E+02</rscale>
<asrwt>0</asrwt>
<pdfrwt beam="2">  1        1 0.20667554E+00 0.91421166E+02</pdfrwt>
<pdfrwt beam="1">  1       -1 0.23928624E-03 0.91421166E+02</pdfrwt>
<totfact> 0.11882071E+05</totfact>
</mgrwt>
</event>
<event>
 7    1  0.3607059E-009  0.9103189E+02  0.7818608E-02  0.1300372E+00
         -1   -1    0    0    0  501 -0.00000000000E+00  0.00000000000E+00  0.21788428051E+03  0.21788428057E+03  0.50400000000E-02 0. -1.
          1   -1    0    0  501    0  0.00000000000E+00 -0.00000000000E+00 -0.95082622295E+01  0.95082635653E+01  0.50400000000E-02 0.  1.
         23    2    1    2    0    0  0.00000000000E+00  0.00000000000E+00  0.20837601828E+03  0.22739254414E+03  0.91031885256E+02 0.  0.
    9000005    2    3    3    0    0  0.44502154263E+02  0.48727418909E+01  0.11464381310E+03  0.12351804468E+03  0.10455531234E+02 0.  0.
         22    1    3    3    0    0 -0.44502154263E+02 -0.48727418909E+01  0.93732205187E+02  0.10387449945E+03  0.00000000000E+00 0. -1.
         22    1    4    4    0    0  0.20932791180E+02  0.74840709242E+01  0.57659198985E+02  0.61796248201E+02  0.00000000000E+00 0. -1.
         22    1    4    4    0    0  0.23569363083E+02 -0.26113290333E+01  0.56984614112E+02  0.61721796481E+02  0.00000000000E+00 0. -1.
<mgrwt>
<rscale>  0 0.91031885E+02</rscale>
<asrwt>0</asrwt>
<pdfrwt beam="2">  1        1 0.14628098E-02 0.91031885E+02</pdfrwt>
<pdfrwt beam="1">  1       -1 0.33520656E-01 0.91031885E+02</pdfrwt>
<totfact> 0.67972672E+04</totfact>
</mgrwt>
</event>
<event>
 7    1  0.3607059E-009  0.9230888E+02  0.7818608E-02  0.1297355E+00
         -1   -1    0    0    0  501 -0.00000000000E+00  0.00000000000E+00  0.10246342056E+03  0.10246342068E+03  0.50400000000E-02 0.  1.
          1   -1    0    0  501    0  0.00000000000E+00 -0.00000000000E+00 -0.20790175482E+02  0.20790176092E+02  0.50400000000E-02 0. -1.
         23    2    1    2    0    0  0.35527136788E-14  0.00000000000E+00  0.81673245076E+02  0.12325359677E+03  0.92308884494E+02 0.  0.
    9000005    2    3    3    0    0 -0.30565908782E+02  0.25734536907E+02  0.12468198369E+02  0.43341897635E+02  0.11248242109E+02 0.  0.
         22    1    3    3    0    0  0.30565908782E+02 -0.25734536907E+02  0.69205046707E+02  0.79911699139E+02  0.00000000000E+00 0. -1.
         22    1    4    4    0    0 -0.19024842855E+02  0.22109109936E+02  0.66398598096E+01  0.29913962059E+02  0.00000000000E+00 0. -1.
         22    1    4    4    0    0 -0.11541065928E+02  0.36254269718E+01  0.58283385592E+01  0.13427935576E+02  0.00000000000E+00 0. -1.
<mgrwt>
<rscale>  0 0.92308884E+02</rscale>
<asrwt>0</asrwt>
<pdfrwt beam="2">  1        1 0.31984885E-02 0.92308884E+02</pdfrwt>
<pdfrwt beam="1">  1       -1 0.15763604E-01 0.92308884E+02</pdfrwt>
<totfact> 0.78463127E+04</totfact>
</mgrwt>
</event>
<event>
 7    1  0.3607059E-009  0.9190453E+02  0.7818608E-02  0.1298304E+00
         -1   -1    0    0    0  501 -0.00000000000E+00  0.00000000000E+00  0.39461493579E+01  0.39461525764E+01  0.50400000000E-02 0.  1.
          1   -1    0    0  501    0  0.00000000000E+00 -0.00000000000E+00 -0.53510643676E+03  0.53510643678E+03  0.50400000000E-02 0. -1.
         23    2    1    2    0    0  0.00000000000E+00  0.00000000000E+00 -0.53116028740E+03  0.53905258936E+03  0.91904532982E+02 0.  0.
    9000005    2    3    3    0    0 -0.38791850501E+02 -0.22506738633E+02 -0.30252806388E+03  0.30606320208E+03  0.11836101036E+02 0.  0.
         22    1    3    3    0    0  0.38791850501E+02  0.22506738633E+02 -0.22863222352E+03  0.23298938727E+03  0.00000000000E+00 0. -1.
         22    1    4    4    0    0 -0.27577140207E+02 -0.15096674314E+02 -0.24366871661E+03  0.24568852576E+03  0.00000000000E+00 0. -1.
         22    1    4    4    0    0 -0.11214710294E+02 -0.74100643186E+01 -0.58859347271E+02  0.60374676324E+02  0.00000000000E+00 0. -1.
<mgrwt>
<rscale>  0 0.91904533E+02</rscale>
<asrwt>0</asrwt>
<pdfrwt beam="2">  1        1 0.82324010E-01 0.91904533E+02</pdfrwt>
<pdfrwt beam="1">  1       -1 0.60710057E-03 0.91904533E+02</pdfrwt>
<totfact> 0.13737053E+05</totfact>
</mgrwt>
</event>
<event>
 7    1  0.3607059E-009  0.9184135E+02  0.7818608E-02  0.1298453E+00
          1   -1    0    0  501    0  0.00000000000E+00  0.00000000000E+00  0.17255534290E+03  0.17255534297E+03  0.50400000000E-02 0. -1.
         -1   -1    0    0    0  501 -0.00000000000E+00 -0.00000000000E+00 -0.12220475051E+02  0.12220476090E+02  0.50400000000E-02 0.  1.
         23    2    1    2    0    0  0.35527136788E-14  0.00000000000E+00  0.16033486785E+03  0.18477581906E+03  0.91841349415E+02 0.  0.
    9000005    2    3    3    0    0  0.25201302077E+02  0.93002422573E+01  0.11022541252E+02  0.33066323625E+02  0.15820404861E+02 0.  0.
         22    1    3    3    0    0 -0.25201302077E+02 -0.93002422573E+01  0.14931232660E+03  0.15170949544E+03  0.00000000000E+00 0. -1.
         22    1    4    4    0    0  0.23227383048E+02  0.38649197877E+01  0.13071208379E+02  0.26931494884E+02  0.00000000000E+00 0.  1.
         22    1    4    4    0    0  0.19739190297E+01  0.54353224696E+01 -0.20486671262E+01  0.61348287408E+01  0.00000000000E+00 0.  1.
<mgrwt>
<rscale>  0 0.91841349E+02</rscale>
<asrwt>0</asrwt>
<pdfrwt beam="1">  1        1 0.26546976E-01 0.91841349E+02</pdfrwt>
<pdfrwt beam="2">  1       -1 0.18800732E-02 0.91841349E+02</pdfrwt>
<totfact> 0.11287007E+05</totfact>
</mgrwt>
</event>
<event>
 7    1  0.3607059E-009  0.9293103E+02  0.7818608E-02  0.1295905E+00
         -1   -1    0    0    0  501 -0.00000000000E+00  0.00000000000E+00  0.87395131621E+01  0.87395146153E+01  0.50400000000E-02 0.  1.
          1   -1    0    0  501    0  0.00000000000E+00 -0.00000000000E+00 -0.24704395885E+03  0.24704395890E+03  0.50400000000E-02 0. -1.
         23    2    1    2    0    0  0.00000000000E+00 -0.71054273576E-14 -0.23830444569E+03  0.25578347351E+03  0.92931030822E+02 0.  0.
    9000005    2    3    3    0    0 -0.23630199597E+02  0.32311001865E+02 -0.64649304348E+02  0.77574339945E+02  0.15357685069E+02 0.  0.
         22    1    3    3    0    0  0.23630199597E+02 -0.32311001865E+02 -0.17365514134E+03  0.17820913357E+03  0.00000000000E+00 0. -1.
         22    1    4    4    0    0 -0.22515130180E+02  0.34041044857E+02 -0.61337504097E+02  0.73675051618E+02  0.00000000000E+00 0.  1.
         22    1    4    4    0    0 -0.11150694175E+01 -0.17300429919E+01 -0.33118002504E+01  0.38992883271E+01  0.00000000000E+00 0.  1.
<mgrwt>
<rscale>  0 0.92931031E+02</rscale>
<asrwt>0</asrwt>
<pdfrwt beam="2">  1        1 0.38006758E-01 0.92931031E+02</pdfrwt>
<pdfrwt beam="1">  1       -1 0.13445408E-02 0.92931031E+02</pdfrwt>
<totfact> 0.11724834E+05</totfact>
</mgrwt>
</event>
<event>
 7    1  0.3607059E-009  0.8976881E+02  0.7818608E-02  0.1303413E+00
          1   -1    0    0  501    0  0.00000000000E+00  0.00000000000E+00  0.72655881097E+03  0.72655881099E+03  0.50400000000E-02 0. -1.
         -1   -1    0    0    0  501 -0.00000000000E+00 -0.00000000000E+00 -0.27728081281E+01  0.27728127086E+01  0.50400000000E-02 0.  1.
         23    2    1    2    0    0  0.00000000000E+00 -0.35527136788E-14  0.72378600285E+03  0.72933162370E+03  0.89768810917E+02 0.  0.
    9000005    2    3    3    0    0  0.29998744201E+02 -0.28667329770E+02  0.49853039561E+03  0.50028614996E+03  0.56511985156E+01 0.  0.
         22    1    3    3    0    0 -0.29998744201E+02  0.28667329770E+02  0.22525560724E+03  0.22904547374E+03  0.00000000000E+00 0.  1.
         22    1    4    4    0    0  0.14769137045E+02 -0.15694057377E+02  0.22754009796E+03  0.22855836678E+03  0.00000000000E+00 0.  1.
         22    1    4    4    0    0  0.15229607156E+02 -0.12973272393E+02  0.27099029765E+03  0.27172778318E+03  0.00000000000E+00 0.  1.
<mgrwt>
<rscale>  0 0.89768811E+02</rscale>
<asrwt>0</asrwt>
<pdfrwt beam="1">  1        1 0.11177823E+00 0.89768811E+02</pdfrwt>
<pdfrwt beam="2">  1       -1 0.42658642E-03 0.89768811E+02</pdfrwt>
<totfact> 0.14803985E+05</totfact>
</mgrwt>
</event>
<event>
 7    1  0.3607059E-009  0.9028179E+02  0.7818608E-02  0.1302171E+00
         -1   -1    0    0    0  501 -0.00000000000E+00  0.00000000000E+00  0.25054693162E+02  0.25054693669E+02  0.50400000000E-02 0.  1.
          1   -1    0    0  501    0  0.00000000000E+00 -0.00000000000E+00 -0.81330082943E+02  0.81330083099E+02  0.50400000000E-02 0. -1.
         23    2    1    2    0    0  0.00000000000E+00  0.71054273576E-14 -0.56275389780E+02  0.10638477677E+03  0.90281787937E+02 0.  0.
    9000005    2    3    3    0    0  0.14317505255E+02 -0.38525018131E+02 -0.48843734768E+02  0.64618792104E+02  0.10035431636E+02 0.  0.
         22    1    3    3    0    0 -0.14317505255E+02  0.38525018131E+02 -0.74316550121E+01  0.41765984664E+02  0.00000000000E+00 0.  1.
         22    1    4    4    0    0  0.65222846458E+01 -0.29179511770E+02 -0.31494424541E+02  0.43426753060E+02  0.00000000000E+00 0. -1.
         22    1    4    4    0    0  0.77952206092E+01 -0.93455063614E+01 -0.17349310227E+02  0.21192039044E+02  0.00000000000E+00 0. -1.
<mgrwt>
<rscale>  0 0.90281788E+02</rscale>
<asrwt>0</asrwt>
<pdfrwt beam="2">  1        1 0.12512320E-01 0.90281788E+02</pdfrwt>
<pdfrwt beam="1">  1       -1 0.38545683E-02 0.90281788E+02</pdfrwt>
<totfact> 0.10377426E+05</totfact>
</mgrwt>
</event>
<event>
 7    1  0.3607059E-009  0.8983322E+02  0.7818608E-02  0.1303256E+00
          1   -1    0    0  501    0  0.00000000000E+00  0.00000000000E+00  0.18151561419E+02  0.18151562119E+02  0.50400000000E-02 0. -1.
         -1   -1    0    0    0  501 -0.00000000000E+00 -0.00000000000E+00 -0.11114756767E+03  0.11114756778E+03  0.50400000000E-02 0.  1.
         23    2    1    2    0    0  0.17763568394E-14  0.00000000000E+00 -0.92996006251E+02  0.12929912990E+03  0.89833222224E+02 0.  0.
    9000005    2    3    3    0    0 -0.14862649973E+02  0.11976251037E+02  0.11301009122E+02  0.23269905777E+02  0.70318386363E+01 0.  0.
         22    1    3    3    0    0  0.14862649973E+02 -0.11976251037E+02 -0.10429701537E+03  0.10602922413E+03  0.00000000000E+00 0.  1.
         22    1    4    4    0    0 -0.26144485552E+01  0.32056492775E+00  0.41427802031E+01  0.49092495284E+01  0.00000000000E+00 0.  1.
         22    1    4    4    0    0 -0.12248201418E+02  0.11655686109E+02  0.71582289184E+01  0.18360656249E+02  0.00000000000E+00 0.  1.
<mgrwt>
<rscale>  0 0.89833222E+02</rscale>
<asrwt>0</asrwt>
<pdfrwt beam="1">  1        1 0.27925480E-02 0.89833222E+02</pdfrwt>
<pdfrwt beam="2">  1       -1 0.17099625E-01 0.89833222E+02</pdfrwt>
<totfact> 0.82856859E+04</totfact>
</mgrwt>
</event>
<event>
 7    1  0.3607059E-009  0.9292463E+02  0.7818608E-02  0.1295920E+00
         -1   -1    0    0    0  501 -0.00000000000E+00  0.00000000000E+00  0.34967153399E+01  0.34967189721E+01  0.50400000000E-02 0.  1.
          1   -1    0    0  501    0  0.00000000000E+00 -0.00000000000E+00 -0.61736382807E+03  0.61736382809E+03  0.50400000000E-02 0. -1.
         23    2    1    2    0    0  0.00000000000E+00  0.00000000000E+00 -0.61386711273E+03  0.62086054707E+03  0.92924629714E+02 0.  0.
    9000005    2    3    3    0    0  0.21557846824E+02 -0.60879779625E+01 -0.57856837399E+03  0.57905378694E+03  0.77537444234E+01 0.  0.
         22    1    3    3    0    0 -0.21557846824E+02  0.60879779625E+01 -0.35298738743E+02  0.41806760126E+02  0.00000000000E+00 0.  1.
         22    1    4    4    0    0  0.66066875434E+01  0.70565851532E+00 -0.23397079348E+03  0.23406511589E+03  0.00000000000E+00 0. -1.
         22    1    4    4    0    0  0.14951159281E+02 -0.67936364778E+01 -0.34459758051E+03  0.34498867105E+03  0.00000000000E+00 0. -1.
<mgrwt>
<rscale>  0 0.92924630E+02</rscale>
<asrwt>0</asrwt>
<pdfrwt beam="2">  1        1 0.94978964E-01 0.92924630E+02</pdfrwt>
<pdfrwt beam="1">  1       -1 0.53795698E-03 0.92924630E+02</pdfrwt>
<totfact> 0.13484890E+05</totfact>
</mgrwt>
</event>
<event>
 7    1  0.3607059E-009  0.9143193E+02  0.7818608E-02  0.1299421E+00
         -1   -1    0    0    0  501 -0.00000000000E+00  0.00000000000E+00  0.86222263062E+01  0.86222277793E+01  0.50400000000E-02 0.  1.
          1   -1    0    0  501    0  0.00000000000E+00 -0.00000000000E+00 -0.24239089542E+03  0.24239089547E+03  0.50400000000E-02 0. -1.
         23    2    1    2    0    0  0.00000000000E+00  0.00000000000E+00 -0.23376866911E+03  0.25101312325E+03  0.91431927603E+02 0.  0.
    9000005    2    3    3    0    0 -0.16491526370E+02 -0.27425131094E+02 -0.20551700842E+03  0.20832513209E+03  0.11747836041E+02 0.  0.
         22    1    3    3    0    0  0.16491526370E+02  0.27425131094E+02 -0.28251660687E+02  0.42687991158E+02  0.00000000000E+00 0.  1.
         22    1    4    4    0    0 -0.17394720702E+02 -0.20871393875E+02 -0.17524433669E+03  0.17733800758E+03  0.00000000000E+00 0. -1.
         22    1    4    4    0    0  0.90319433176E+00 -0.65537372186E+01 -0.30272671730E+02  0.30987124506E+02  0.00000000000E+00 0. -1.
<mgrwt>
<rscale>  0 0.91431928E+02</rscale>
<asrwt>0</asrwt>
<pdfrwt beam="2">  1        1 0.37290902E-01 0.91431928E+02</pdfrwt>
<pdfrwt beam="1">  1       -1 0.13264967E-02 0.91431928E+02</pdfrwt>
<totfact> 0.12201197E+05</totfact>
</mgrwt>
</event>
<event>
 7    1  0.3607059E-009  0.8992646E+02  0.7818608E-02  0.1303030E+00
         -1   -1    0    0    0  501 -0.00000000000E+00  0.00000000000E+00  0.66772321835E+01  0.66772340857E+01  0.50400000000E-02 0.  1.
          1   -1    0    0  501    0  0.00000000000E+00 -0.00000000000E+00 -0.30277390825E+03  0.30277390829E+03  0.50400000000E-02 0. -1.
         23    2    1    2    0    0  0.00000000000E+00  0.00000000000E+00 -0.29609667607E+03  0.30945114238E+03  0.89926458516E+02 0.  0.
    9000005    2    3    3    0    0  0.36964358652E+02  0.20770648868E+02 -0.11108204378E+03  0.11964018952E+03  0.13295519276E+02 0.  0.
         22    1    3    3    0    0 -0.36964358652E+02 -0.20770648868E+02 -0.18501463229E+03  0.18981095286E+03  0.00000000000E+00 0.  1.
         22    1    4    4    0    0  0.19552714582E+02  0.62652593424E+01 -0.66980307690E+02  0.70056575283E+02  0.00000000000E+00 0.  1.
         22    1    4    4    0    0  0.17411644070E+02  0.14505389526E+02 -0.44101736088E+02  0.49583614234E+02  0.00000000000E+00 0.  1.
<mgrwt>
<rscale>  0 0.89926459E+02</rscale>
<asrwt>0</asrwt>
<pdfrwt beam="2">  1        1 0.46580591E-01 0.89926459E+02</pdfrwt>
<pdfrwt beam="1">  1       -1 0.10272669E-02 0.89926459E+02</pdfrwt>
<totfact> 0.13315042E+05</totfact>
</mgrwt>
</event>
<event>
 7    1  0.3607059E-009  0.9218283E+02  0.7818608E-02  0.1297650E+00
          1   -1    0    0  501    0  0.00000000000E+00  0.00000000000E+00  0.11325134796E+04  0.11325134796E+04  0.50400000000E-02 0. -1.
         -1   -1    0    0    0  501 -0.00000000000E+00 -0.00000000000E+00 -0.18758404750E+01  0.18758472457E+01  0.50400000000E-02 0.  1.
         23    2    1    2    0    0  0.00000000000E+00  0.88817841970E-15  0.11306376391E+04  0.11343893268E+04  0.92182828557E+02 0.  0.
    9000005    2    3    3    0    0  0.25211918990E+02  0.66206077670E+01  0.10324692224E+04  0.10328190982E+04  0.65666661435E+01 0.  0.
         22    1    3    3    0    0 -0.25211918990E+02 -0.66206077670E+01  0.98168416713E+02  0.10157022864E+03  0.00000000000E+00 0.  1.
         22    1    4    4    0    0  0.56976195807E+01 -0.22236391298E-01  0.32380827626E+03  0.32385839982E+03  0.00000000000E+00 0. -1.
         22    1    4    4    0    0  0.19514299409E+02  0.66428441583E+01  0.70866094615E+03  0.70896069838E+03  0.00000000000E+00 0. -1.
<mgrwt>
<rscale>  0 0.92182829E+02</rscale>
<asrwt>0</asrwt>
<pdfrwt beam="1">  1        1 0.17423293E+00 0.92182829E+02</pdfrwt>
<pdfrwt beam="2">  1       -1 0.28859121E-03 0.92182829E+02</pdfrwt>
<totfact> 0.12680631E+05</totfact>
</mgrwt>
</event>
<event>
 7    1  0.3607059E-009  0.8922532E+02  0.7818608E-02  0.1304739E+00
          1   -1    0    0  501    0  0.00000000000E+00  0.00000000000E+00  0.17148303077E+03  0.17148303085E+03  0.50400000000E-02 0. -1.
         -1   -1    0    0    0  501 -0.00000000000E+00 -0.00000000000E+00 -0.11606332707E+02  0.11606333802E+02  0.50400000000E-02 0.  1.
         23    2    1    2    0    0 -0.35527136788E-14  0.00000000000E+00  0.15987669807E+03  0.18308936465E+03  0.89225315148E+02 0.  0.
    9000005    2    3    3    0    0 -0.22045485633E+02 -0.24096271288E+02  0.14100012718E+03  0.14536724043E+03  0.13563369824E+02 0.  0.
         22    1    3    3    0    0  0.22045485633E+02  0.24096271288E+02  0.18876570891E+02  0.37722124216E+02  0.00000000000E+00 0.  1.
         22    1    4    4    0    0 -0.48621571281E+01  0.82190800163E+00  0.25102823476E+02  0.25582569284E+02  0.00000000000E+00 0.  1.
         22    1    4    4    0    0 -0.17183328505E+02 -0.24918179289E+02  0.11589730370E+03  0.11978467115E+03  0.00000000000E+00 0.  1.
<mgrwt>
<rscale>  0 0.89225315E+02</rscale>
<asrwt>0</asrwt>
<pdfrwt beam="1">  1        1 0.26382007E-01 0.89225315E+02</pdfrwt>
<pdfrwt beam="2">  1       -1 0.17855896E-02 0.89225315E+02</pdfrwt>
<totfact> 0.12183886E+05</totfact>
</mgrwt>
</event>
<event>
 7    1  0.3607059E-009  0.9270785E+02  0.7818608E-02  0.1296424E+00
          1   -1    0    0  501    0  0.00000000000E+00  0.00000000000E+00  0.42556181992E+03  0.42556181995E+03  0.50400000000E-02 0. -1.
         -1   -1    0    0    0  501 -0.00000000000E+00 -0.00000000000E+00 -0.50490567959E+01  0.50490593114E+01  0.50400000000E-02 0.  1.
         23    2    1    2    0    0  0.00000000000E+00  0.00000000000E+00  0.42051276313E+03  0.43061087927E+03  0.92707849657E+02 0.  0.
    9000005    2    3    3    0    0 -0.42500728250E+02 -0.55697479696E+01  0.28673486616E+03  0.29013362234E+03  0.11104114095E+02 0.  0.
         22    1    3    3    0    0  0.42500728250E+02  0.55697479696E+01  0.13377789697E+03  0.14047725692E+03  0.00000000000E+00 0.  1.
         22    1    4    4    0    0 -0.12384791743E+02 -0.67006396541E+01  0.84379060487E+02  0.85545937876E+02  0.00000000000E+00 0. -1.
         22    1    4    4    0    0 -0.30115936507E+02  0.11308916845E+01  0.20235580567E+03  0.20458768447E+03  0.00000000000E+00 0. -1.
<mgrwt>
<rscale>  0 0.92707850E+02</rscale>
<asrwt>0</asrwt>
<pdfrwt beam="1">  1        1 0.65471032E-01 0.92707850E+02</pdfrwt>
<pdfrwt beam="2">  1       -1 0.77677837E-03 0.92707850E+02</pdfrwt>
<totfact> 0.13032873E+05</totfact>
</mgrwt>
</event>
<event>
 7    1  0.3607059E-009  0.9135856E+02  0.7818608E-02  0.1299595E+00
         -1   -1    0    0    0  501 -0.00000000000E+00  0.00000000000E+00  0.33917435962E+01  0.33917473408E+01  0.50400000000E-02 0.  1.
          1   -1    0    0  501    0  0.00000000000E+00 -0.00000000000E+00 -0.61519841057E+03  0.61519841059E+03  0.50400000000E-02 0. -1.
         23    2    1    2    0    0 -0.77715611724E-15  0.00000000000E+00 -0.61180666697E+03  0.61859015793E+03  0.91358555899E+02 0.  0.
    9000005    2    3    3    0    0 -0.79985295702E+00 -0.33041369529E+02 -0.51694510987E+03  0.51813575593E+03  0.11833980318E+02 0.  0.
         22    1    3    3    0    0  0.79985295702E+00  0.33041369529E+02 -0.94861557100E+02  0.10045440200E+03  0.00000000000E+00 0.  1.
         22    1    4    4    0    0 -0.55907272926E+01 -0.25817455714E+02 -0.38119826396E+03  0.38211243594E+03  0.00000000000E+00 0.  1.
         22    1    4    4    0    0  0.47908743356E+01 -0.72239138151E+01 -0.13574684590E+03  0.13602331999E+03  0.00000000000E+00 0.  1.
<mgrwt>
<rscale>  0 0.91358556E+02</rscale>
<asrwt>0</asrwt>
<pdfrwt beam="2">  1        1 0.94645821E-01 0.91358556E+02</pdfrwt>
<pdfrwt beam="1">  1       -1 0.52180748E-03 0.91358556E+02</pdfrwt>
<totfact> 0.14103642E+05</totfact>
</mgrwt>
</event>
<event>
 7    1  0.3607059E-009  0.9121253E+02  0.7818608E-02  0.1299942E+00
         -1   -1    0    0    0  501 -0.00000000000E+00  0.00000000000E+00  0.89070294490E+03  0.89070294491E+03  0.50400000000E-02 0.  1.
          1   -1    0    0  501    0  0.00000000000E+00 -0.00000000000E+00 -0.23351544407E+01  0.23351598797E+01  0.50400000000E-02 0. -1.
         23    2    1    2    0    0 -0.88817841970E-15  0.00000000000E+00  0.88836779045E+03  0.89303810479E+03  0.91212529230E+02 0.  0.
    9000005    2    3    3    0    0 -0.72088158287E+01 -0.18787437191E+02  0.84388006933E+03  0.84421093866E+03  0.12393656041E+02 0.  0.
         22    1    3    3    0    0  0.72088158287E+01  0.18787437191E+02  0.44487721122E+02  0.48827166132E+02  0.00000000000E+00 0. -1.
         22    1    4    4    0    0 -0.10761414216E+02 -0.13526660872E+02  0.61880526553E+03  0.61904663414E+03  0.00000000000E+00 0.  1.
         22    1    4    4    0    0  0.35525983870E+01 -0.52607763186E+01  0.22507480381E+03  0.22516430452E+03  0.00000000000E+00 0.  1.
<mgrwt>
<rscale>  0 0.91212529E+02</rscale>
<asrwt>0</asrwt>
<pdfrwt beam="2">  1        1 0.35925492E-03 0.91212529E+02</pdfrwt>
<pdfrwt beam="1">  1       -1 0.13703124E+00 0.91212529E+02</pdfrwt>
<totfact> 0.29239166E+04</totfact>
</mgrwt>
</event>
<event>
 7    1  0.3607059E-009  0.9107793E+02  0.7818608E-02  0.1300262E+00
          1   -1    0    0  501    0  0.00000000000E+00  0.00000000000E+00  0.35390062567E+02  0.35390062926E+02  0.50400000000E-02 0. -1.
         -1   -1    0    0    0  501 -0.00000000000E+00 -0.00000000000E+00 -0.58598293470E+02  0.58598293686E+02  0.50400000000E-02 0.  1.
         23    2    1    2    0    0  0.00000000000E+00  0.00000000000E+00 -0.23208230902E+02  0.93988356612E+02  0.91077929253E+02 0.  0.
    9000005    2    3    3    0    0 -0.33468328813E+02 -0.78938652461E+01  0.17508956001E+02  0.40693596538E+02  0.12921420854E+02 0.  0.
         22    1    3    3    0    0  0.33468328813E+02  0.78938652461E+01 -0.40717186904E+02  0.53294760074E+02  0.00000000000E+00 0.  1.
         22    1    4    4    0    0 -0.32533419380E+02 -0.75602203071E+01  0.12620135361E+02  0.35705015393E+02  0.00000000000E+00 0. -1.
         22    1    4    4    0    0 -0.93490943260E+00 -0.33364493908E+00  0.48888206400E+01  0.49885811453E+01  0.00000000000E+00 0. -1.
<mgrwt>
<rscale>  0 0.91077929E+02</rscale>
<asrwt>0</asrwt>
<pdfrwt beam="1">  1        1 0.54446251E-02 0.91077929E+02</pdfrwt>
<pdfrwt beam="2">  1       -1 0.90151221E-02 0.91077929E+02</pdfrwt>
<totfact> 0.89252230E+04</totfact>
</mgrwt>
</event>
<event>
 7    1  0.3607059E-009  0.9052893E+02  0.7818608E-02  0.1301576E+00
         -1   -1    0    0    0  501 -0.00000000000E+00  0.00000000000E+00  0.47659759370E+02  0.47659759636E+02  0.50400000000E-02 0.  1.
          1   -1    0    0  501    0  0.00000000000E+00 -0.00000000000E+00 -0.42989548656E+02  0.42989548951E+02  0.50400000000E-02 0. -1.
         23    2    1    2    0    0  0.00000000000E+00  0.00000000000E+00  0.46702107139E+01  0.90649308588E+02  0.90528925098E+02 0.  0.
    9000005    2    3    3    0    0  0.37746240516E+01 -0.38985411708E+02  0.22543258073E+02  0.47596365197E+02  0.14936712579E+02 0.  0.
         22    1    3    3    0    0 -0.37746240516E+01  0.38985411708E+02 -0.17873047359E+02  0.43052943391E+02  0.00000000000E+00 0. -1.
         22    1    4    4    0    0 -0.41136865294E+01 -0.13962513547E+02  0.13477940224E+02  0.19837567243E+02  0.00000000000E+00 0.  1.
         22    1    4    4    0    0  0.78883105810E+01 -0.25022898161E+02  0.90653178483E+01  0.27758797954E+02  0.00000000000E+00 0.  1.
<mgrwt>
<rscale>  0 0.90528925E+02</rscale>
<asrwt>0</asrwt>
<pdfrwt beam="2">  1        1 0.66137768E-02 0.90528925E+02</pdfrwt>
<pdfrwt beam="1">  1       -1 0.73322707E-02 0.90528925E+02</pdfrwt>
<totfact> 0.93514725E+04</totfact>
</mgrwt>
</event>
<event>
 7    1  0.3607059E-009  0.9409624E+02  0.7818608E-02  0.1293225E+00
         -1   -1    0    0    0  501 -0.00000000000E+00  0.00000000000E+00  0.51449895589E+01  0.51449920275E+01  0.50400000000E-02 0.  1.
          1   -1    0    0  501    0  0.00000000000E+00 -0.00000000000E+00 -0.43022924523E+03  0.43022924526E+03  0.50400000000E-02 0. -1.
         23    2    1    2    0    0  0.71054273576E-14  0.00000000000E+00 -0.42508425567E+03  0.43537423728E+03  0.94096238361E+02 0.  0.
    9000005    2    3    3    0    0 -0.33311758530E+02  0.29935403518E+02 -0.27078763791E+03  0.27470921965E+03  0.11550275965E+02 0.  0.
         22    1    3    3    0    0  0.33311758530E+02 -0.29935403518E+02 -0.15429661775E+03  0.16066501763E+03  0.00000000000E+00 0.  1.
         22    1    4    4    0    0 -0.25757205186E+02  0.18834144170E+02 -0.21334514938E+03  0.21571812944E+03  0.00000000000E+00 0.  1.
         22    1    4    4    0    0 -0.75545533440E+01  0.11101259349E+02 -0.57442488537E+02  0.58991090214E+02  0.00000000000E+00 0.  1.
<mgrwt>
<rscale>  0 0.94096238E+02</rscale>
<asrwt>0</asrwt>
<pdfrwt beam="2">  1        1 0.66189087E-01 0.94096238E+02</pdfrwt>
<pdfrwt beam="1">  1       -1 0.79153738E-03 0.94096238E+02</pdfrwt>
<totfact> 0.12548364E+05</totfact>
</mgrwt>
</event>
<event>
 7    1  0.3607059E-009  0.9075322E+02  0.7818608E-02  0.1301038E+00
         -1   -1    0    0    0  501 -0.00000000000E+00  0.00000000000E+00  0.93152447581E+01  0.93152461215E+01  0.50400000000E-02 0.  1.
          1   -1    0    0  501    0  0.00000000000E+00 -0.00000000000E+00 -0.22103943895E+03  0.22103943900E+03  0.50400000000E-02 0. -1.
         23    2    1    2    0    0 -0.71054273576E-14  0.00000000000E+00 -0.21172419419E+03  0.23035468513E+03  0.90753217874E+02 0.  0.
    9000005    2    3    3    0    0 -0.37317895088E+02 -0.23734298562E+02 -0.93301714105E+02  0.10394334856E+03  0.11961088322E+02 0.  0.
         22    1    3    3    0    0  0.37317895088E+02  0.23734298562E+02 -0.11842248008E+03  0.12641133656E+03  0.00000000000E+00 0. -1.
         22    1    4    4    0    0 -0.36020453894E+02 -0.19353051420E+02 -0.87285457517E+02  0.96388613394E+02  0.00000000000E+00 0.  1.
         22    1    4    4    0    0 -0.12974411944E+01 -0.43812471419E+01 -0.60162565877E+01  0.75547351708E+01  0.00000000000E+00 0.  1.
<mgrwt>
<rscale>  0 0.90753218E+02</rscale>
<asrwt>0</asrwt>
<pdfrwt beam="2">  1        1 0.34006064E-01 0.90753218E+02</pdfrwt>
<pdfrwt beam="1">  1       -1 0.14331149E-02 0.90753218E+02</pdfrwt>
<totfact> 0.12224824E+05</totfact>
</mgrwt>
</event>
<event>
 7    1  0.3607059E-009  0.8844798E+02  0.7818608E-02  0.1306654E+00
         -1   -1    0    0    0  501 -0.00000000000E+00  0.00000000000E+00  0.44982186318E+02  0.44982186600E+02  0.50400000000E-02 0.  1.
          1   -1    0    0  501    0  0.00000000000E+00 -0.00000000000E+00 -0.43478575315E+02  0.43478575608E+02  0.50400000000E-02 0. -1.
         23    2    1    2    0    0  0.00000000000E+00 -0.35527136788E-14  0.15036110022E+01  0.88460762207E+02  0.88447982477E+02 0.  0.
    9000005    2    3    3    0    0 -0.55423207561E+01  0.30781493759E+02 -0.30405798369E+02  0.43779355741E+02  0.37285033482E+01 0.  0.
         22    1    3    3    0    0  0.55423207561E+01 -0.30781493759E+02  0.31909409371E+02  0.44681406467E+02  0.00000000000E+00 0.  1.
         22    1    4    4    0    0 -0.41371391752E+01  0.22439377668E+02 -0.19781927710E+02  0.30198779025E+02  0.00000000000E+00 0.  1.
         22    1    4    4    0    0 -0.14051815809E+01  0.83421160910E+01 -0.10623870659E+02  0.13580576716E+02  0.00000000000E+00 0.  1.
<mgrwt>
<rscale>  0 0.88447982E+02</rscale>
<asrwt>0</asrwt>
<pdfrwt beam="2">  1        1 0.66890116E-02 0.88447982E+02</pdfrwt>
<pdfrwt beam="1">  1       -1 0.69203364E-02 0.88447982E+02</pdfrwt>
<totfact> 0.99979943E+04</totfact>
</mgrwt>
</event>
<event>
 7    1  0.3607059E-009  0.8753025E+02  0.7818608E-02  0.1308945E+00
         -1   -1    0    0    0  501 -0.00000000000E+00  0.00000000000E+00  0.31624193707E+02  0.31624194108E+02  0.50400000000E-02 0.  1.
          1   -1    0    0  501    0  0.00000000000E+00 -0.00000000000E+00 -0.60567117799E+02  0.60567118009E+02  0.50400000000E-02 0. -1.
         23    2    1    2    0    0  0.00000000000E+00  0.35527136788E-14 -0.28942924093E+02  0.92191312117E+02  0.87530252912E+02 0.  0.
    9000005    2    3    3    0    0  0.25807141452E+02 -0.30929865451E+02 -0.30158463381E+02  0.51890658741E+02  0.12666586924E+02 0.  0.
         22    1    3    3    0    0 -0.25807141452E+02  0.30929865451E+02  0.12155392885E+01  0.40300653376E+02  0.00000000000E+00 0.  1.
         22    1    4    4    0    0  0.13887501349E+02 -0.12988020849E+02 -0.69973129660E+01  0.20261139357E+02  0.00000000000E+00 0.  1.
         22    1    4    4    0    0  0.11919640103E+02 -0.17941844602E+02 -0.23161150415E+02  0.31629519384E+02  0.00000000000E+00 0.  1.
<mgrwt>
<rscale>  0 0.87530253E+02</rscale>
<asrwt>0</asrwt>
<pdfrwt beam="2">  1        1 0.93180182E-02 0.87530253E+02</pdfrwt>
<pdfrwt beam="1">  1       -1 0.48652606E-02 0.87530253E+02</pdfrwt>
<totfact> 0.10802575E+05</totfact>
</mgrwt>
</event>
<event>
 7    1  0.3607059E-009  0.8979522E+02  0.7818608E-02  0.1303348E+00
          1   -1    0    0  501    0  0.00000000000E+00  0.00000000000E+00  0.44565653797E+01  0.44565682296E+01  0.50400000000E-02 0. -1.
         -1   -1    0    0    0  501 -0.00000000000E+00 -0.00000000000E+00 -0.45232023253E+03  0.45232023256E+03  0.50400000000E-02 0.  1.
         23    2    1    2    0    0  0.00000000000E+00  0.00000000000E+00 -0.44786366715E+03  0.45677680079E+03  0.89795219163E+02 0.  0.
    9000005    2    3    3    0    0 -0.28666920816E+01 -0.44116681208E+02 -0.21252061710E+03  0.21731730382E+03  0.10358492159E+02 0.  0.
         22    1    3    3    0    0  0.28666920816E+01  0.44116681208E+02 -0.23534305005E+03  0.23945949698E+03  0.00000000000E+00 0. -1.
         22    1    4    4    0    0  0.38797238597E+01 -0.12957898116E+02 -0.63300505462E+02  0.64729540185E+02  0.00000000000E+00 0.  1.
         22    1    4    4    0    0 -0.67464159413E+01 -0.31158783092E+02 -0.14922011164E+03  0.15258776363E+03  0.00000000000E+00 0.  1.
<mgrwt>
<rscale>  0 0.89795219E+02</rscale>
<asrwt>0</asrwt>
<pdfrwt beam="1">  1        1 0.68562602E-03 0.89795219E+02</pdfrwt>
<pdfrwt beam="2">  1       -1 0.69587692E-01 0.89795219E+02</pdfrwt>
<totfact> 0.51942641E+04</totfact>
</mgrwt>
</event>
<event>
 7    1  0.3607059E-009  0.9036641E+02  0.7818608E-02  0.1301967E+00
         -1   -1    0    0    0  501 -0.00000000000E+00  0.00000000000E+00  0.60864040006E+01  0.60864060873E+01  0.50400000000E-02 0.  1.
          1   -1    0    0  501    0  0.00000000000E+00 -0.00000000000E+00 -0.33542327903E+03  0.33542327907E+03  0.50400000000E-02 0. -1.
         23    2    1    2    0    0  0.00000000000E+00  0.00000000000E+00 -0.32933687503E+03  0.34150968516E+03  0.90366408585E+02 0.  0.
    9000005    2    3    3    0    0 -0.13113094395E+02 -0.40147117334E+02 -0.11614015203E+03  0.12416988905E+03  0.12078168628E+02 0.  0.
         22    1    3    3    0    0  0.13113094395E+02  0.40147117334E+02 -0.21319672300E+03  0.21733979611E+03  0.00000000000E+00 0. -1.
         22    1    4    4    0    0 -0.12319850860E+02 -0.26774023710E+02 -0.66202629127E+02  0.72466648702E+02  0.00000000000E+00 0.  1.
         22    1    4    4    0    0 -0.79324353524E+00 -0.13373093625E+02 -0.49937522904E+02  0.51703240346E+02  0.00000000000E+00 0.  1.
<mgrwt>
<rscale>  0 0.90366409E+02</rscale>
<asrwt>0</asrwt>
<pdfrwt beam="2">  1        1 0.51603567E-01 0.90366409E+02</pdfrwt>
<pdfrwt beam="1">  1       -1 0.93637027E-03 0.90366409E+02</pdfrwt>
<totfact> 0.13396553E+05</totfact>
</mgrwt>
</event>
<event>
 7    1  0.3607059E-009  0.9007505E+02  0.7818608E-02  0.1302670E+00
          1   -1    0    0  501    0  0.00000000000E+00  0.00000000000E+00  0.90003681142E+02  0.90003681283E+02  0.50400000000E-02 0. -1.
         -1   -1    0    0    0  501 -0.00000000000E+00 -0.00000000000E+00 -0.22536618801E+02  0.22536619364E+02  0.50400000000E-02 0.  1.
         23    2    1    2    0    0  0.00000000000E+00  0.00000000000E+00  0.67467062341E+02  0.11254030065E+03  0.90075050757E+02 0.  0.
    9000005    2    3    3    0    0  0.13916722471E+02 -0.33003149981E+02  0.66471991661E+02  0.76709123739E+02  0.13523347087E+02 0.  0.
         22    1    3    3    0    0 -0.13916722471E+02  0.33003149981E+02  0.99507068099E+00  0.35831176909E+02  0.00000000000E+00 0.  1.
         22    1    4    4    0    0  0.12877451791E+02 -0.22079282679E+02  0.34715299201E+02  0.43110039282E+02  0.00000000000E+00 0. -1.
         22    1    4    4    0    0  0.10392706793E+01 -0.10923867303E+02  0.31756692459E+02  0.33599084457E+02  0.00000000000E+00 0. -1.
<mgrwt>
<rscale>  0 0.90075051E+02</rscale>
<asrwt>0</asrwt>
<pdfrwt beam="1">  1        1 0.13846720E-01 0.90075051E+02</pdfrwt>
<pdfrwt beam="2">  1       -1 0.34671722E-02 0.90075051E+02</pdfrwt>
<totfact> 0.10612612E+05</totfact>
</mgrwt>
</event>
<event>
 7    1  0.3607059E-009  0.9242413E+02  0.7818608E-02  0.1297085E+00
         -1   -1    0    0    0  501 -0.00000000000E+00  0.00000000000E+00  0.51233039407E+01  0.51233064197E+01  0.50400000000E-02 0.  1.
          1   -1    0    0  501    0  0.00000000000E+00 -0.00000000000E+00 -0.41683150108E+03  0.41683150111E+03  0.50400000000E-02 0. -1.
         23    2    1    2    0    0  0.00000000000E+00  0.00000000000E+00 -0.41170819714E+03  0.42195480753E+03  0.92424131081E+02 0.  0.
    9000005    2    3    3    0    0  0.42632639031E+02 -0.17764521247E+02 -0.20998198561E+03  0.21500895822E+03  0.18159600979E+01 0.  0.
         22    1    3    3    0    0 -0.42632639031E+02  0.17764521247E+02 -0.20172621153E+03  0.20694584930E+03  0.00000000000E+00 0. -1.
         22    1    4    4    0    0  0.18300502540E+02 -0.73496087910E+01 -0.85671127082E+02  0.87911700917E+02  0.00000000000E+00 0.  1.
         22    1    4    4    0    0  0.24332136491E+02 -0.10414912456E+02 -0.12431085852E+03  0.12709725731E+03  0.00000000000E+00 0.  1.
<mgrwt>
<rscale>  0 0.92424131E+02</rscale>
<asrwt>0</asrwt>
<pdfrwt beam="2">  1        1 0.64127897E-01 0.92424131E+02</pdfrwt>
<pdfrwt beam="1">  1       -1 0.78820113E-03 0.92424131E+02</pdfrwt>
<totfact> 0.13097175E+05</totfact>
</mgrwt>
</event>
<event>
 7    1  0.3607059E-009  0.8772481E+02  0.7818608E-02  0.1308457E+00
         -1   -1    0    0    0  501 -0.00000000000E+00  0.00000000000E+00  0.29175190838E+02  0.29175191274E+02  0.50400000000E-02 0.  1.
          1   -1    0    0  501    0  0.00000000000E+00 -0.00000000000E+00 -0.65943372654E+02  0.65943372846E+02  0.50400000000E-02 0. -1.
         23    2    1    2    0    0 -0.22204460493E-15  0.71054273576E-14 -0.36768181815E+02  0.95118564120E+02  0.87724808614E+02 0.  0.
    9000005    2    3    3    0    0 -0.16479734463E+01  0.42324575709E+02 -0.26652999888E+02  0.51570861186E+02  0.12453344728E+02 0.  0.
         22    1    3    3    0    0  0.16479734463E+01 -0.42324575709E+02 -0.10115181927E+02  0.43547702935E+02  0.00000000000E+00 0.  1.
         22    1    4    4    0    0  0.11625352092E+00  0.42122682050E+02 -0.26550429829E+02  0.49792159845E+02  0.00000000000E+00 0. -1.
         22    1    4    4    0    0 -0.17642269672E+01  0.20189365990E+00 -0.10257005919E+00  0.17787013406E+01  0.00000000000E+00 0. -1.
<mgrwt>
<rscale>  0 0.87724809E+02</rscale>
<asrwt>0</asrwt>
<pdfrwt beam="2">  1        1 0.10145134E-01 0.87724809E+02</pdfrwt>
<pdfrwt beam="1">  1       -1 0.44884910E-02 0.87724809E+02</pdfrwt>
<totfact> 0.10872957E+05</totfact>
</mgrwt>
</event>
<event>
 7    1  0.3607059E-009  0.9263524E+02  0.7818608E-02  0.1296593E+00
          1   -1    0    0  501    0  0.00000000000E+00  0.00000000000E+00  0.36872576763E+02  0.36872577107E+02  0.50400000000E-02 0. -1.
         -1   -1    0    0    0  501 -0.00000000000E+00 -0.00000000000E+00 -0.58182045395E+02  0.58182045613E+02  0.50400000000E-02 0.  1.
         23    2    1    2    0    0  0.22204460493E-15  0.00000000000E+00 -0.21309468632E+02  0.95054622721E+02  0.92635240849E+02 0.  0.
    9000005    2    3    3    0    0 -0.70614652009E+00  0.13803101822E+02  0.33704665908E+02  0.38330912846E+02  0.11926026699E+02 0.  0.
         22    1    3    3    0    0  0.70614652009E+00 -0.13803101822E+02 -0.55014134540E+02  0.56723709875E+02  0.00000000000E+00 0.  1.
         22    1    4    4    0    0  0.33841109007E+01  0.60042505109E+01  0.25060445828E+02  0.25990944113E+02  0.00000000000E+00 0. -1.
         22    1    4    4    0    0 -0.40902574208E+01  0.77988513112E+01  0.86442200797E+01  0.12339968733E+02  0.00000000000E+00 0. -1.
<mgrwt>
<rscale>  0 0.92635241E+02</rscale>
<asrwt>0</asrwt>
<pdfrwt beam="1">  1        1 0.56727041E-02 0.92635241E+02</pdfrwt>
<pdfrwt beam="2">  1       -1 0.89510840E-02 0.92635241E+02</pdfrwt>
<totfact> 0.85591845E+04</totfact>
</mgrwt>
</event>
<event>
 7    1  0.3607059E-009  0.9264612E+02  0.7818608E-02  0.1296567E+00
          1   -1    0    0  501    0  0.00000000000E+00  0.00000000000E+00  0.25500624931E+03  0.25500624936E+03  0.50400000000E-02 0.  1.
         -1   -1    0    0    0  501 -0.00000000000E+00 -0.00000000000E+00 -0.84147965054E+01  0.84147980148E+01  0.50400000000E-02 0. -1.
         23    2    1    2    0    0  0.00000000000E+00  0.00000000000E+00  0.24659145281E+03  0.26342104738E+03  0.92646120285E+02 0.  0.
    9000005    2    3    3    0    0 -0.43699309888E+02 -0.48716181907E+01  0.15907881642E+03  0.16548319016E+03  0.12052138571E+02 0.  0.
         22    1    3    3    0    0  0.43699309888E+02  0.48716181907E+01  0.87512636387E+02  0.97937857215E+02  0.00000000000E+00 0. -1.
         22    1    4    4    0    0 -0.40306091541E+02 -0.89477022309E+00  0.13826399283E+03  0.14402191966E+03  0.00000000000E+00 0.  1.
         22    1    4    4    0    0 -0.33932183471E+01 -0.39768479676E+01  0.20814823589E+02  0.21461270502E+02  0.00000000000E+00 0.  1.
<mgrwt>
<rscale>  0 0.92646120E+02</rscale>
<asrwt>0</asrwt>
<pdfrwt beam="1">  1        1 0.39231729E-01 0.92646120E+02</pdfrwt>
<pdfrwt beam="2">  1       -1 0.12945843E-02 0.92646120E+02</pdfrwt>
<totfact> 0.11895151E+05</totfact>
</mgrwt>
</event>
<event>
 7    1  0.3607059E-009  0.9082343E+02  0.7818608E-02  0.1300870E+00
         -1   -1    0    0    0  501 -0.00000000000E+00  0.00000000000E+00  0.12200546629E+02  0.12200547670E+02  0.50400000000E-02 0.  1.
          1   -1    0    0  501    0  0.00000000000E+00 -0.00000000000E+00 -0.16902714693E+03  0.16902714700E+03  0.50400000000E-02 0. -1.
         23    2    1    2    0    0  0.00000000000E+00  0.00000000000E+00 -0.15682660030E+03  0.18122769467E+03  0.90823426248E+02 0.  0.
    9000005    2    3    3    0    0 -0.10557495527E+01  0.39133723482E+02 -0.39792294816E+02  0.57819463261E+02  0.15069860130E+02 0.  0.
         22    1    3    3    0    0  0.10557495527E+01 -0.39133723482E+02 -0.11703430548E+03  0.12340823141E+03  0.00000000000E+00 0. -1.
         22    1    4    4    0    0 -0.42214796960E+00 -0.93691342286E+00 -0.38582914638E+01  0.39927971010E+01  0.00000000000E+00 0. -1.
         22    1    4    4    0    0 -0.63360158313E+00  0.40070636905E+02 -0.35934003353E+02  0.53826666160E+02  0.00000000000E+00 0. -1.
<mgrwt>
<rscale>  0 0.90823426E+02</rscale>
<asrwt>0</asrwt>
<pdfrwt beam="2">  1        1 0.26004175E-01 0.90823426E+02</pdfrwt>
<pdfrwt beam="1">  1       -1 0.18770074E-02 0.90823426E+02</pdfrwt>
<totfact> 0.11585545E+05</totfact>
</mgrwt>
</event>
<event>
 7    1  0.3607059E-009  0.8942451E+02  0.7818608E-02  0.1304251E+00
         -1   -1    0    0    0  501 -0.00000000000E+00  0.00000000000E+00  0.21583971988E+02  0.21583972576E+02  0.50400000000E-02 0.  1.
          1   -1    0    0  501    0  0.00000000000E+00 -0.00000000000E+00 -0.92623622177E+02  0.92623622314E+02  0.50400000000E-02 0. -1.
         23    2    1    2    0    0  0.00000000000E+00  0.00000000000E+00 -0.71039650189E+02  0.11420759489E+03  0.89424509122E+02 0.  0.
    9000005    2    3    3    0    0  0.36897708275E+02 -0.87432594891E+01 -0.64087528397E+02  0.75656103871E+02  0.13369715569E+02 0.  0.
         22    1    3    3    0    0 -0.36897708275E+02  0.87432594891E+01 -0.69521217917E+01  0.38551491020E+02  0.00000000000E+00 0.  1.
         22    1    4    4    0    0  0.11037574990E+02 -0.91251312632E+01 -0.24083325843E+02  0.28019683544E+02  0.00000000000E+00 0. -1.
         22    1    4    4    0    0  0.25860133285E+02  0.38187177403E+00 -0.40004202554E+02  0.47636420327E+02  0.00000000000E+00 0. -1.
<mgrwt>
<rscale>  0 0.89424509E+02</rscale>
<asrwt>0</asrwt>
<pdfrwt beam="2">  1        1 0.14249788E-01 0.89424509E+02</pdfrwt>
<pdfrwt beam="1">  1       -1 0.33206112E-02 0.89424509E+02</pdfrwt>
<totfact> 0.10874582E+05</totfact>
</mgrwt>
</event>
<event>
 6    1  0.5498655E-009  0.1697685E+03  0.7818608E-02  0.1178089E+00
          1   -1    0    0  501    0  0.00000000000E+00  0.00000000000E+00  0.21540357614E+03  0.21540357619E+03  0.50400000000E-02 0. -1.
         -1   -1    0    0    0  501 -0.00000000000E+00 -0.00000000000E+00 -0.33450397057E+02  0.33450397436E+02  0.50400000000E-02 0.  1.
    9000005    2    1    2    0    0 -0.17809846503E+00 -0.77197784424E+02  0.14117654819E+03  0.16154839955E+03  0.14406179195E+02 0.  0.
         22    1    1    2    0    0  0.17809846503E+00  0.77197784424E+02  0.40776630888E+02  0.87305574081E+02  0.00000000000E+00 0.  1.
         22    1    3    3    0    0  0.35719148972E+01 -0.52527035931E+02  0.83600484042E+02  0.98797211559E+02  0.00000000000E+00 0. -1.
         22    1    3    3    0    0 -0.37500133622E+01 -0.24670748493E+02  0.57576064149E+02  0.62751187991E+02  0.00000000000E+00 0. -1.
<mgrwt>
<rscale>  0 0.16976849E+03</rscale>
<asrwt>0</asrwt>
<pdfrwt beam="1">  1        1 0.33139012E-01 0.16976849E+03</pdfrwt>
<pdfrwt beam="2">  1       -1 0.51462149E-02 0.16976849E+03</pdfrwt>
<totfact> 0.21354868E+04</totfact>
</mgrwt>
</event>
<event>
 7    1  0.3607059E-009  0.9164130E+02  0.7818608E-02  0.1298925E+00
         -1   -1    0    0    0  501 -0.00000000000E+00  0.00000000000E+00  0.12168904376E+03  0.12168904386E+03  0.50400000000E-02 0.  1.
          1   -1    0    0  501    0  0.00000000000E+00 -0.00000000000E+00 -0.17253252410E+02  0.17253253146E+02  0.50400000000E-02 0. -1.
         23    2    1    2    0    0  0.00000000000E+00  0.00000000000E+00  0.10443579135E+03  0.13894229701E+03  0.91641297369E+02 0.  0.
    9000005    2    3    3    0    0 -0.19352679301E+02 -0.95039094636E+01 -0.69150193280E+01  0.25523367683E+02  0.11780251032E+02 0.  0.
         22    1    3    3    0    0  0.19352679301E+02  0.95039094636E+01  0.11135081067E+03  0.11341892932E+03  0.00000000000E+00 0.  1.
         22    1    4    4    0    0 -0.89077218622E+01  0.17808978870E+00  0.14193557244E+01  0.90218509974E+01  0.00000000000E+00 0.  1.
         22    1    4    4    0    0 -0.10444957439E+02 -0.96819992523E+01 -0.83343750524E+01  0.16501516686E+02  0.00000000000E+00 0.  1.
<mgrwt>
<rscale>  0 0.91641297E+02</rscale>
<asrwt>0</asrwt>
<pdfrwt beam="2">  1        1 0.26543466E-02 0.91641297E+02</pdfrwt>
<pdfrwt beam="1">  1       -1 0.18721391E-01 0.91641297E+02</pdfrwt>
<totfact> 0.77282428E+04</totfact>
</mgrwt>
</event>
<event>
 7    1  0.3607059E-009  0.9187439E+02  0.7818608E-02  0.1298375E+00
         -1   -1    0    0    0  501 -0.00000000000E+00  0.00000000000E+00  0.22611437936E+01  0.22611494105E+01  0.50400000000E-02 0.  1.
          1   -1    0    0  501    0  0.00000000000E+00 -0.00000000000E+00 -0.93325478911E+03  0.93325478912E+03  0.50400000000E-02 0. -1.
         23    2    1    2    0    0  0.35527136788E-14  0.00000000000E+00 -0.93099364532E+03  0.93551593854E+03  0.91874390511E+02 0.  0.
    9000005    2    3    3    0    0  0.22260930540E+02 -0.15159304268E+02 -0.84440606376E+03  0.84483648764E+03  0.13178776697E+01 0.  0.
         22    1    3    3    0    0 -0.22260930540E+02  0.15159304268E+02 -0.86587581559E+02  0.90679450895E+02  0.00000000000E+00 0. -1.
         22    1    4    4    0    0  0.13337744371E+02 -0.83300392214E+01 -0.49834349718E+03  0.49859154241E+03  0.00000000000E+00 0. -1.
         22    1    4    4    0    0  0.89231861690E+01 -0.68292650462E+01 -0.34606256658E+03  0.34624494523E+03  0.00000000000E+00 0. -1.
<mgrwt>
<rscale>  0 0.91874391E+02</rscale>
<asrwt>0</asrwt>
<pdfrwt beam="2">  1        1 0.14357735E+00 0.91874391E+02</pdfrwt>
<pdfrwt beam="1">  1       -1 0.34786945E-03 0.91874391E+02</pdfrwt>
<totfact> 0.13547230E+05</totfact>
</mgrwt>
</event>
<event>
 7    1  0.3607059E-009  0.9365377E+02  0.7818608E-02  0.1294237E+00
         -1   -1    0    0    0  501 -0.00000000000E+00  0.00000000000E+00  0.25336937837E+02  0.25336938339E+02  0.50400000000E-02 0.  1.
          1   -1    0    0  501    0  0.00000000000E+00 -0.00000000000E+00 -0.86543888449E+02  0.86543888596E+02  0.50400000000E-02 0. -1.
         23    2    1    2    0    0 -0.44408920985E-15  0.00000000000E+00 -0.61206950612E+02  0.11188082693E+03  0.93653769984E+02 0.  0.
    9000005    2    3    3    0    0  0.20316004542E+01 -0.43875659807E+02 -0.15888855130E+02  0.48770362652E+02  0.14031807865E+02 0.  0.
         22    1    3    3    0    0 -0.20316004542E+01  0.43875659807E+02 -0.45318095482E+02  0.63110464282E+02  0.00000000000E+00 0. -1.
         22    1    4    4    0    0 -0.40043139527E+01 -0.17432191877E+02 -0.11577638572E+02  0.21306279796E+02  0.00000000000E+00 0. -1.
         22    1    4    4    0    0  0.60359144069E+01 -0.26443467929E+02 -0.43112165585E+01  0.27464082855E+02  0.00000000000E+00 0. -1.
<mgrwt>
<rscale>  0 0.93653770E+02</rscale>
<asrwt>0</asrwt>
<pdfrwt beam="2">  1        1 0.13314444E-01 0.93653770E+02</pdfrwt>
<pdfrwt beam="1">  1       -1 0.38979905E-02 0.93653770E+02</pdfrwt>
<totfact> 0.94776380E+04</totfact>
</mgrwt>
</event>
<event>
 7    1  0.3607059E-009  0.8782811E+02  0.7818608E-02  0.1308198E+00
          1   -1    0    0  501    0  0.00000000000E+00  0.00000000000E+00  0.83036989119E+02  0.83036989272E+02  0.50400000000E-02 0. -1.
         -1   -1    0    0    0  501 -0.00000000000E+00 -0.00000000000E+00 -0.23223916461E+02  0.23223917008E+02  0.50400000000E-02 0.  1.
         23    2    1    2    0    0  0.88817841970E-15  0.71054273576E-14  0.59813072658E+02  0.10626090628E+03  0.87828107931E+02 0.  0.
    9000005    2    3    3    0    0  0.70848592934E+01  0.37266415809E+02  0.51388105942E+01  0.39715764379E+02  0.10580812228E+02 0.  0.
         22    1    3    3    0    0 -0.70848592934E+01 -0.37266415809E+02  0.54674262064E+02  0.66545141901E+02  0.00000000000E+00 0. -1.
         22    1    4    4    0    0  0.68945694927E+01  0.10539445420E+02  0.26715719172E+01  0.12874482311E+02  0.00000000000E+00 0. -1.
         22    1    4    4    0    0  0.19028980073E+00  0.26726970389E+02  0.24672386770E+01  0.26841282068E+02  0.00000000000E+00 0. -1.
<mgrwt>
<rscale>  0 0.87828108E+02</rscale>
<asrwt>0</asrwt>
<pdfrwt beam="1">  1        1 0.12774921E-01 0.87828108E+02</pdfrwt>
<pdfrwt beam="2">  1       -1 0.35729103E-02 0.87828108E+02</pdfrwt>
<totfact> 0.11224987E+05</totfact>
</mgrwt>
</event>
<event>
 7    1  0.3607059E-009  0.9167960E+02  0.7818608E-02  0.1298835E+00
          1   -1    0    0  501    0  0.00000000000E+00  0.00000000000E+00  0.57906783033E+01  0.57906804966E+01  0.50400000000E-02 0. -1.
         -1   -1    0    0    0  501 -0.00000000000E+00 -0.00000000000E+00 -0.36287406207E+03  0.36287406211E+03  0.50400000000E-02 0.  1.
         23    2    1    2    0    0  0.17763568394E-14  0.00000000000E+00 -0.35708338377E+03  0.36866474260E+03  0.91679602286E+02 0.  0.
    9000005    2    3    3    0    0  0.13618216894E+02 -0.37533424804E+02 -0.26459359162E+03  0.26792460432E+03  0.13401905347E+02 0.  0.
         22    1    3    3    0    0 -0.13618216894E+02  0.37533424804E+02 -0.92489792152E+02  0.10074013828E+03  0.00000000000E+00 0. -1.
         22    1    4    4    0    0  0.72698386686E+01 -0.31481506770E+02 -0.17993213788E+03  0.18281003820E+03  0.00000000000E+00 0. -1.
         22    1    4    4    0    0  0.63483782256E+01 -0.60519180347E+01 -0.84661453737E+02  0.85114566127E+02  0.00000000000E+00 0. -1.
<mgrwt>
<rscale>  0 0.91679602E+02</rscale>
<asrwt>0</asrwt>
<pdfrwt beam="1">  1        1 0.89087404E-03 0.91679602E+02</pdfrwt>
<pdfrwt beam="2">  1       -1 0.55826761E-01 0.91679602E+02</pdfrwt>
<totfact> 0.55061917E+04</totfact>
</mgrwt>
</event>
<event>
 7    1  0.3607059E-009  0.9042360E+02  0.7818608E-02  0.1301829E+00
          1   -1    0    0  501    0  0.00000000000E+00  0.00000000000E+00  0.29998967312E+02  0.29998967735E+02  0.50400000000E-02 0. -1.
         -1   -1    0    0    0  501 -0.00000000000E+00 -0.00000000000E+00 -0.68139244449E+02  0.68139244636E+02  0.50400000000E-02 0.  1.
         23    2    1    2    0    0 -0.35527136788E-14  0.88817841970E-15 -0.38140277138E+02  0.98138212371E+02  0.90423603042E+02 0.  0.
    9000005    2    3    3    0    0 -0.28937306880E+02  0.33784832412E+01 -0.56521850835E+02  0.63690220701E+02  0.35975981656E+01 0.  0.
         22    1    3    3    0    0  0.28937306880E+02 -0.33784832412E+01  0.18381573698E+02  0.34447991670E+02  0.00000000000E+00 0. -1.
         22    1    4    4    0    0 -0.35751574299E+01 -0.76323214100E+00 -0.72410513994E+01  0.81115411186E+01  0.00000000000E+00 0.  1.
         22    1    4    4    0    0 -0.25362149450E+02  0.41417153822E+01 -0.49280799436E+02  0.55578679582E+02  0.00000000000E+00 0.  1.
<mgrwt>
<rscale>  0 0.90423603E+02</rscale>
<asrwt>0</asrwt>
<pdfrwt beam="1">  1        1 0.46152258E-02 0.90423603E+02</pdfrwt>
<pdfrwt beam="2">  1       -1 0.10482961E-01 0.90423603E+02</pdfrwt>
<totfact> 0.88770408E+04</totfact>
</mgrwt>
</event>
<event>
 7    1  0.3607059E-009  0.9012257E+02  0.7818608E-02  0.1302555E+00
          1   -1    0    0  501    0  0.00000000000E+00  0.00000000000E+00  0.45879382055E+02  0.45879382332E+02  0.50400000000E-02 0.  1.
         -1   -1    0    0    0  501 -0.00000000000E+00 -0.00000000000E+00 -0.44257772587E+02  0.44257772874E+02  0.50400000000E-02 0. -1.
         23    2    1    2    0    0  0.00000000000E+00  0.00000000000E+00  0.16216094678E+01  0.90137155206E+02  0.90122567270E+02 0.  0.
    9000005    2    3    3    0    0  0.16977264813E+02  0.16088832065E+02  0.39031761934E+02  0.46016892907E+02  0.68555054838E+01 0.  0.
         22    1    3    3    0    0 -0.16977264813E+02 -0.16088832065E+02 -0.37410152466E+02  0.44120262298E+02  0.00000000000E+00 0. -1.
         22    1    4    4    0    0 -0.54650582604E+00  0.42943459838E+00  0.41005206921E+00  0.80698537264E+00  0.00000000000E+00 0. -1.
         22    1    4    4    0    0  0.17523770639E+02  0.15659397467E+02  0.38621709865E+02  0.45209907535E+02  0.00000000000E+00 0. -1.
<mgrwt>
<rscale>  0 0.90122567E+02</rscale>
<asrwt>0</asrwt>
<pdfrwt beam="1">  1        1 0.70583665E-02 0.90122567E+02</pdfrwt>
<pdfrwt beam="2">  1       -1 0.68088882E-02 0.90122567E+02</pdfrwt>
<totfact> 0.95626126E+04</totfact>
</mgrwt>
</event>
<event>
 7    1  0.3607059E-009  0.9182047E+02  0.7818608E-02  0.1298502E+00
         -1   -1    0    0    0  501 -0.00000000000E+00  0.00000000000E+00  0.37184508046E+01  0.37184542202E+01  0.50400000000E-02 0.  1.
          1   -1    0    0  501    0  0.00000000000E+00 -0.00000000000E+00 -0.56683519457E+03  0.56683519459E+03  0.50400000000E-02 0. -1.
         23    2    1    2    0    0  0.00000000000E+00  0.00000000000E+00 -0.56311674377E+03  0.57055364881E+03  0.91820471924E+02 0.  0.
    9000005    2    3    3    0    0 -0.38662605727E+02 -0.17855467420E+02 -0.38236377168E+03  0.38485159789E+03  0.97510875445E+01 0.  0.
         22    1    3    3    0    0  0.38662605727E+02  0.17855467420E+02 -0.18075297209E+03  0.18570205092E+03  0.00000000000E+00 0.  1.
         22    1    4    4    0    0 -0.29672567527E+02 -0.90430023417E+01 -0.26114837596E+03  0.26298424177E+03  0.00000000000E+00 0.  1.
         22    1    4    4    0    0 -0.89900381999E+01 -0.88124650784E+01 -0.12121539572E+03  0.12186735611E+03  0.00000000000E+00 0.  1.
<mgrwt>
<rscale>  0 0.91820472E+02</rscale>
<asrwt>0</asrwt>
<pdfrwt beam="2">  1        1 0.87205346E-01 0.91820472E+02</pdfrwt>
<pdfrwt beam="1">  1       -1 0.57207007E-03 0.91820472E+02</pdfrwt>
<totfact> 0.13841923E+05</totfact>
</mgrwt>
</event>
<event>
 7    1  0.3607059E-009  0.7055452E+02  0.7818608E-02  0.1358217E+00
          1   -1    0    0  501    0  0.00000000000E+00  0.00000000000E+00  0.89750605479E+02  0.89750605621E+02  0.50400000000E-02 0. -1.
         -1   -1    0    0    0  501 -0.00000000000E+00 -0.00000000000E+00 -0.13866035905E+02  0.13866036821E+02  0.50400000000E-02 0.  1.
         23    2    1    2    0    0  0.17763568394E-14  0.00000000000E+00  0.75884569574E+02  0.10361664244E+03  0.70554522828E+02 0.  0.
    9000005    2    3    3    0    0 -0.10801714081E+02  0.16307067907E+02  0.80951078847E+02  0.83411024237E+02  0.46609341282E+01 0.  0.
         22    1    3    3    0    0  0.10801714081E+02 -0.16307067907E+02 -0.50665092733E+01  0.20205618205E+02  0.00000000000E+00 0.  1.
         22    1    4    4    0    0 -0.37217432159E+01  0.27872952936E+01  0.14382455547E+02  0.15115403243E+02  0.00000000000E+00 0.  1.
         22    1    4    4    0    0 -0.70799708647E+01  0.13519772614E+02  0.66568623300E+02  0.68295620994E+02  0.00000000000E+00 0.  1.
<mgrwt>
<rscale>  0 0.70554523E+02</rscale>
<asrwt>0</asrwt>
<pdfrwt beam="1">  1        1 0.13807786E-01 0.70554523E+02</pdfrwt>
<pdfrwt beam="2">  1       -1 0.21332363E-02 0.70554523E+02</pdfrwt>
<totfact> 0.20440387E+05</totfact>
</mgrwt>
</event>
<event>
 7    1  0.3607059E-009  0.9192362E+02  0.7818608E-02  0.1298259E+00
         -1   -1    0    0    0  501 -0.00000000000E+00  0.00000000000E+00  0.30214201822E+01  0.30214243858E+01  0.50400000000E-02 0.  1.
          1   -1    0    0  501    0  0.00000000000E+00 -0.00000000000E+00 -0.69916998138E+03  0.69916998140E+03  0.50400000000E-02 0. -1.
         23    2    1    2    0    0  0.00000000000E+00  0.00000000000E+00 -0.69614856120E+03  0.70219140578E+03  0.91923615568E+02 0.  0.
    9000005    2    3    3    0    0 -0.28108435999E+02  0.94382124587E+01 -0.61548236382E+03  0.61624840474E+03  0.80244715906E+01 0.  0.
         22    1    3    3    0    0  0.28108435999E+02 -0.94382124587E+01 -0.80666197372E+02  0.85943001037E+02  0.00000000000E+00 0.  1.
         22    1    4    4    0    0 -0.15986356661E+02  0.14567431488E+01 -0.35356104115E+03  0.35392526827E+03  0.00000000000E+00 0.  1.
         22    1    4    4    0    0 -0.12122079338E+02  0.79814693099E+01 -0.26192132267E+03  0.26232313647E+03  0.00000000000E+00 0.  1.
<mgrwt>
<rscale>  0 0.91923616E+02</rscale>
<asrwt>0</asrwt>
<pdfrwt beam="2">  1        1 0.10756448E+00 0.91923616E+02</pdfrwt>
<pdfrwt beam="1">  1       -1 0.46483476E-03 0.91923616E+02</pdfrwt>
<totfact> 0.13914043E+05</totfact>
</mgrwt>
</event>
<event>
 7    1  0.3607059E-009  0.8997405E+02  0.7818608E-02  0.1302915E+00
          1   -1    0    0  501    0  0.00000000000E+00  0.00000000000E+00  0.26851576358E+02  0.26851576831E+02  0.50400000000E-02 0. -1.
         -1   -1    0    0    0  501 -0.00000000000E+00 -0.00000000000E+00 -0.75371078052E+02  0.75371078221E+02  0.50400000000E-02 0.  1.
         23    2    1    2    0    0  0.00000000000E+00  0.00000000000E+00 -0.48519501694E+02  0.10222265505E+03  0.89974047154E+02 0.  0.
    9000005    2    3    3    0    0  0.88967248931E+01 -0.21569518207E+02 -0.67182777976E+02  0.72344339987E+02  0.13258282018E+02 0.  0.
         22    1    3    3    0    0 -0.88967248931E+01  0.21569518207E+02  0.18663276282E+02  0.29878315065E+02  0.00000000000E+00 0. -1.
         22    1    4    4    0    0  0.57137725554E+01 -0.72010829387E+01 -0.43505689547E+02  0.44466254792E+02  0.00000000000E+00 0. -1.
         22    1    4    4    0    0  0.31829523377E+01 -0.14368435268E+02 -0.23677088430E+02  0.27878085195E+02  0.00000000000E+00 0. -1.
<mgrwt>
<rscale>  0 0.89974047E+02</rscale>
<asrwt>0</asrwt>
<pdfrwt beam="1">  1        1 0.41310118E-02 0.89974047E+02</pdfrwt>
<pdfrwt beam="2">  1       -1 0.11595550E-01 0.89974047E+02</pdfrwt>
<totfact> 0.88447142E+04</totfact>
</mgrwt>
</event>
<event>
 7    1  0.3607059E-009  0.9262013E+02  0.7818608E-02  0.1296628E+00
         -1   -1    0    0    0  501 -0.00000000000E+00  0.00000000000E+00  0.19152772924E+03  0.19152772930E+03  0.50400000000E-02 0.  1.
          1   -1    0    0  501    0  0.00000000000E+00 -0.00000000000E+00 -0.11197449891E+02  0.11197451025E+02  0.50400000000E-02 0. -1.
         23    2    1    2    0    0  0.00000000000E+00 -0.17763568394E-14  0.18033027935E+03  0.20272518033E+03  0.92620133287E+02 0.  0.
    9000005    2    3    3    0    0  0.43909820470E+02  0.94575293199E+01  0.10109386223E+03  0.11164320081E+03  0.15057161532E+02 0.  0.
         22    1    3    3    0    0 -0.43909820470E+02 -0.94575293199E+01  0.79236417118E+02  0.91081979515E+02  0.00000000000E+00 0. -1.
         22    1    4    4    0    0  0.30088532102E+02  0.67407438916E+00  0.75279339728E+02  0.81072517725E+02  0.00000000000E+00 0. -1.
         22    1    4    4    0    0  0.13821288367E+02  0.87834549307E+01  0.25814522498E+02  0.30570683088E+02  0.00000000000E+00 0. -1.
<mgrwt>
<rscale>  0 0.92620133E+02</rscale>
<asrwt>0</asrwt>
<pdfrwt beam="2">  1        1 0.17226847E-02 0.92620133E+02</pdfrwt>
<pdfrwt beam="1">  1       -1 0.29465804E-01 0.92620133E+02</pdfrwt>
<totfact> 0.67456324E+04</totfact>
</mgrwt>
</event>
<event>
 7    1  0.3607059E-009  0.8518518E+02  0.7818608E-02  0.1314949E+00
         -1   -1    0    0    0  501 -0.00000000000E+00  0.00000000000E+00  0.18722726643E+02  0.18722727321E+02  0.50400000000E-02 0.  1.
          1   -1    0    0  501    0  0.00000000000E+00 -0.00000000000E+00 -0.96894461552E+02  0.96894461683E+02  0.50400000000E-02 0. -1.
         23    2    1    2    0    0  0.00000000000E+00  0.35527136788E-14 -0.78171734909E+02  0.11561718900E+03  0.85185176260E+02 0.  0.
    9000005    2    3    3    0    0  0.35189714403E+02  0.22137533445E+02 -0.27411364954E+02  0.50004678423E+02  0.45495657684E+01 0.  0.
         22    1    3    3    0    0 -0.35189714403E+02 -0.22137533445E+02 -0.50760369954E+02  0.65612510581E+02  0.00000000000E+00 0. -1.
         22    1    4    4    0    0  0.38005715970E+01  0.18910939632E+01 -0.13328991617E+01  0.44494045688E+01  0.00000000000E+00 0.  1.
         22    1    4    4    0    0  0.31389142806E+02  0.20246439482E+02 -0.26078465793E+02  0.45555273854E+02  0.00000000000E+00 0.  1.
<mgrwt>
<rscale>  0 0.85185176E+02</rscale>
<asrwt>0</asrwt>
<pdfrwt beam="2">  1        1 0.14906840E-01 0.85185176E+02</pdfrwt>
<pdfrwt beam="1">  1       -1 0.28804196E-02 0.85185176E+02</pdfrwt>
<totfact> 0.12496236E+05</totfact>
</mgrwt>
</event>
<event>
 7    1  0.3607059E-009  0.9559775E+02  0.7818608E-02  0.1289835E+00
          1   -1    0    0  501    0  0.00000000000E+00  0.00000000000E+00  0.14114200698E+02  0.14114201598E+02  0.50400000000E-02 0.  1.
         -1   -1    0    0    0  501 -0.00000000000E+00 -0.00000000000E+00 -0.16187472109E+03  0.16187472116E+03  0.50400000000E-02 0. -1.
         23    2    1    2    0    0  0.00000000000E+00  0.00000000000E+00 -0.14776052039E+03  0.17598892276E+03  0.95597748665E+02 0.  0.
    9000005    2    3    3    0    0  0.44673168545E+02  0.12420077081E+02 -0.64373710418E+02  0.80577653095E+02  0.14100825607E+02 0.  0.
         22    1    3    3    0    0 -0.44673168545E+02 -0.12420077081E+02 -0.83386809969E+02  0.95411269667E+02  0.00000000000E+00 0. -1.
         22    1    4    4    0    0  0.36409385309E+02  0.15502822184E+02 -0.50887034605E+02  0.64462943814E+02  0.00000000000E+00 0.  1.
         22    1    4    4    0    0  0.82637832363E+01 -0.30827451030E+01 -0.13486675813E+02  0.16114709282E+02  0.00000000000E+00 0.  1.
<mgrwt>
<rscale>  0 0.95597749E+02</rscale>
<asrwt>0</asrwt>
<pdfrwt beam="1">  1        1 0.21714157E-02 0.95597749E+02</pdfrwt>
<pdfrwt beam="2">  1       -1 0.24903802E-01 0.95597749E+02</pdfrwt>
<totfact> 0.64916413E+04</totfact>
</mgrwt>
</event>
<event>
 7    1  0.3607059E-009  0.9060195E+02  0.7818608E-02  0.1301401E+00
          1   -1    0    0  501    0  0.00000000000E+00  0.00000000000E+00  0.13380908932E+02  0.13380909881E+02  0.50400000000E-02 0. -1.
         -1   -1    0    0    0  501 -0.00000000000E+00 -0.00000000000E+00 -0.15336613120E+03  0.15336613128E+03  0.50400000000E-02 0.  1.
         23    2    1    2    0    0  0.00000000000E+00  0.00000000000E+00 -0.13998522227E+03  0.16674704117E+03  0.90601949668E+02 0.  0.
    9000005    2    3    3    0    0 -0.28917685042E+02 -0.19435871779E+02 -0.12216807255E+03  0.12761346934E+03  0.12090243389E+02 0.  0.
         22    1    3    3    0    0  0.28917685042E+02  0.19435871779E+02 -0.17817149717E+02  0.39133571828E+02  0.00000000000E+00 0. -1.
         22    1    4    4    0    0 -0.20748718250E+02 -0.14804962794E+02 -0.67649637388E+02  0.72292251806E+02  0.00000000000E+00 0. -1.
         22    1    4    4    0    0 -0.81689667923E+01 -0.46309089842E+01 -0.54518435164E+02  0.55321217532E+02  0.00000000000E+00 0. -1.
<mgrwt>
<rscale>  0 0.90601950E+02</rscale>
<asrwt>0</asrwt>
<pdfrwt beam="1">  1        1 0.20586016E-02 0.90601950E+02</pdfrwt>
<pdfrwt beam="2">  1       -1 0.23594788E-01 0.90601950E+02</pdfrwt>
<totfact> 0.75629253E+04</totfact>
</mgrwt>
</event>
<event>
 7    1  0.3607059E-009  0.9089496E+02  0.7818608E-02  0.1300699E+00
          1   -1    0    0  501    0  0.00000000000E+00  0.00000000000E+00  0.30752870486E+03  0.30752870491E+03  0.50400000000E-02 0. -1.
         -1   -1    0    0    0  501 -0.00000000000E+00 -0.00000000000E+00 -0.67163582627E+01  0.67163601538E+01  0.50400000000E-02 0.  1.
         23    2    1    2    0    0  0.00000000000E+00  0.00000000000E+00  0.30081234660E+03  0.31424506506E+03  0.90894956110E+02 0.  0.
    9000005    2    3    3    0    0 -0.10958651468E+02  0.42700069558E+02  0.17010487125E+03  0.17630365687E+03  0.14280203715E+02 0.  0.
         22    1    3    3    0    0  0.10958651468E+02 -0.42700069558E+02  0.13070747535E+03  0.13794140819E+03  0.00000000000E+00 0. -1.
         22    1    4    4    0    0  0.20196720302E+00  0.24031280398E+02  0.75585893002E+02  0.79314377317E+02  0.00000000000E+00 0.  1.
         22    1    4    4    0    0 -0.11160618671E+02  0.18668789161E+02  0.94518978252E+02  0.96989279550E+02  0.00000000000E+00 0.  1.
<mgrwt>
<rscale>  0 0.90894956E+02</rscale>
<asrwt>0</asrwt>
<pdfrwt beam="1">  1        1 0.47312102E-01 0.90894956E+02</pdfrwt>
<pdfrwt beam="2">  1       -1 0.10332862E-02 0.90894956E+02</pdfrwt>
<totfact> 0.12979237E+05</totfact>
</mgrwt>
</event>
<event>
 7    1  0.3607059E-009  0.9542973E+02  0.7818608E-02  0.1290211E+00
          1   -1    0    0  501    0  0.00000000000E+00  0.00000000000E+00  0.72637061854E+02  0.72637062029E+02  0.50400000000E-02 0.  1.
         -1   -1    0    0    0  501 -0.00000000000E+00 -0.00000000000E+00 -0.31343615867E+02  0.31343616272E+02  0.50400000000E-02 0. -1.
         23    2    1    2    0    0  0.00000000000E+00  0.00000000000E+00  0.41293445987E+02  0.10398067830E+03  0.95429726912E+02 0.  0.
    9000005    2    3    3    0    0  0.37602049020E+02 -0.84105585703E+00 -0.94511512663E+01  0.40817115895E+02  0.12731505186E+02 0.  0.
         22    1    3    3    0    0 -0.37602049020E+02  0.84105585703E+00  0.50744597254E+02  0.63163562406E+02  0.00000000000E+00 0. -1.
         22    1    4    4    0    0  0.37142463717E+01 -0.71737160370E+00 -0.55340809238E+01  0.67034543184E+01  0.00000000000E+00 0.  1.
         22    1    4    4    0    0  0.33887802648E+02 -0.12368425333E+00 -0.39170703425E+01  0.34113661577E+02  0.00000000000E+00 0.  1.
<mgrwt>
<rscale>  0 0.95429727E+02</rscale>
<asrwt>0</asrwt>
<pdfrwt beam="1">  1        1 0.11174933E-01 0.95429727E+02</pdfrwt>
<pdfrwt beam="2">  1       -1 0.48220948E-02 0.95429727E+02</pdfrwt>
<totfact> 0.87478601E+04</totfact>
</mgrwt>
</event>
<event>
 7    1  0.3607059E-009  0.9494608E+02  0.7818608E-02  0.1291298E+00
          1   -1    0    0  501    0  0.00000000000E+00  0.00000000000E+00  0.10472452801E+02  0.10472454013E+02  0.50400000000E-02 0. -1.
         -1   -1    0    0    0  501 -0.00000000000E+00 -0.00000000000E+00 -0.21520169250E+03  0.21520169256E+03  0.50400000000E-02 0.  1.
         23    2    1    2    0    0  0.00000000000E+00  0.00000000000E+00 -0.20472923970E+03  0.22567414657E+03  0.94946083876E+02 0.  0.
    9000005    2    3    3    0    0 -0.37189821058E+02  0.55621671617E+00 -0.17143989645E+03  0.17575849230E+03  0.10771135227E+02 0.  0.
         22    1    3    3    0    0  0.37189821058E+02 -0.55621671617E+00 -0.33289343252E+02  0.49915654273E+02  0.00000000000E+00 0. -1.
         22    1    4    4    0    0 -0.98119973890E+01  0.14991754651E+01 -0.69365975357E+02  0.70072543532E+02  0.00000000000E+00 0. -1.
         22    1    4    4    0    0 -0.27377823669E+02 -0.94295874889E+00 -0.10207392109E+03  0.10568594877E+03  0.00000000000E+00 0. -1.
<mgrwt>
<rscale>  0 0.94946084E+02</rscale>
<asrwt>0</asrwt>
<pdfrwt beam="1">  1        1 0.16111468E-02 0.94946084E+02</pdfrwt>
<pdfrwt beam="2">  1       -1 0.33107950E-01 0.94946084E+02</pdfrwt>
<totfact> 0.61122448E+04</totfact>
</mgrwt>
</event>
<event>
 7    1  0.3607059E-009  0.9316448E+02  0.7818608E-02  0.1295364E+00
         -1   -1    0    0    0  501 -0.00000000000E+00  0.00000000000E+00  0.90492223866E+02  0.90492224007E+02  0.50400000000E-02 0.  1.
          1   -1    0    0  501    0  0.00000000000E+00 -0.00000000000E+00 -0.23978912618E+02  0.23978913148E+02  0.50400000000E-02 0. -1.
         23    2    1    2    0    0  0.00000000000E+00  0.00000000000E+00  0.66513311248E+02  0.11447113715E+03  0.93164481796E+02 0.  0.
    9000005    2    3    3    0    0  0.23670489869E+02 -0.12064677850E+02 -0.11807047838E+02  0.31767284828E+02  0.12802556948E+02 0.  0.
         22    1    3    3    0    0 -0.23670489869E+02  0.12064677850E+02  0.78320359087E+02  0.82703852327E+02  0.00000000000E+00 0.  1.
         22    1    4    4    0    0  0.23619267834E+02 -0.73234259232E+01 -0.10347330091E+02  0.26806148927E+02  0.00000000000E+00 0.  1.
         22    1    4    4    0    0  0.51222035104E-01 -0.47412519264E+01 -0.14597177474E+01  0.49611359010E+01  0.00000000000E+00 0.  1.
<mgrwt>
<rscale>  0 0.93164482E+02</rscale>
<asrwt>0</asrwt>
<pdfrwt beam="2">  1        1 0.36890636E-02 0.93164482E+02</pdfrwt>
<pdfrwt beam="1">  1       -1 0.13921880E-01 0.93164482E+02</pdfrwt>
<totfact> 0.78390954E+04</totfact>
</mgrwt>
</event>
<event>
 7    1  0.3607059E-009  0.9156020E+02  0.7818608E-02  0.1299117E+00
          1   -1    0    0  501    0  0.00000000000E+00  0.00000000000E+00  0.37329293951E+03  0.37329293954E+03  0.50400000000E-02 0. -1.
         -1   -1    0    0    0  501 -0.00000000000E+00 -0.00000000000E+00 -0.56144029208E+01  0.56144051830E+01  0.50400000000E-02 0.  1.
         23    2    1    2    0    0  0.00000000000E+00  0.17763568394E-14  0.36767853659E+03  0.37890734473E+03  0.91560196700E+02 0.  0.
    9000005    2    3    3    0    0 -0.42776172773E+02 -0.88469597490E+01  0.14330088108E+03  0.15031731445E+03  0.12332187512E+02 0.  0.
         22    1    3    3    0    0  0.42776172773E+02  0.88469597490E+01  0.22437765550E+03  0.22859003028E+03  0.00000000000E+00 0. -1.
         22    1    4    4    0    0 -0.18233404259E+02 -0.95942959222E+01  0.57898662840E+02  0.61455371643E+02  0.00000000000E+00 0. -1.
         22    1    4    4    0    0 -0.24542768514E+02  0.74733617325E+00  0.85402218244E+02  0.88861942803E+02  0.00000000000E+00 0. -1.
<mgrwt>
<rscale>  0 0.91560197E+02</rscale>
<asrwt>0</asrwt>
<pdfrwt beam="1">  1        1 0.57429676E-01 0.91560197E+02</pdfrwt>
<pdfrwt beam="2">  1       -1 0.86375457E-03 0.91560197E+02</pdfrwt>
<totfact> 0.13184969E+05</totfact>
</mgrwt>
</event>
<event>
 7    1  0.3607059E-009  0.9053638E+02  0.7818608E-02  0.1301558E+00
         -1   -1    0    0    0  501 -0.00000000000E+00  0.00000000000E+00  0.18616483435E+03  0.18616483442E+03  0.50400000000E-02 0.  1.
          1   -1    0    0  501    0  0.00000000000E+00 -0.00000000000E+00 -0.11007496540E+02  0.11007497694E+02  0.50400000000E-02 0. -1.
         23    2    1    2    0    0  0.00000000000E+00  0.00000000000E+00  0.17515733781E+03  0.19717233211E+03  0.90536377009E+02 0.  0.
    9000005    2    3    3    0    0 -0.24881750550E+02 -0.22197846194E+02  0.25814882285E+02  0.44152676811E+02  0.13084526593E+02 0.  0.
         22    1    3    3    0    0  0.24881750550E+02  0.22197846194E+02  0.14934245552E+03  0.15301965530E+03  0.00000000000E+00 0.  1.
         22    1    4    4    0    0  0.10608758752E+01 -0.27208102728E+01  0.41092971825E+00  0.29490895877E+01  0.00000000000E+00 0. -1.
         22    1    4    4    0    0 -0.25942626425E+02 -0.19477035922E+02  0.25403952566E+02  0.41203587224E+02  0.00000000000E+00 0. -1.
<mgrwt>
<rscale>  0 0.90536377E+02</rscale>
<asrwt>0</asrwt>
<pdfrwt beam="2">  1        1 0.16934612E-02 0.90536377E+02</pdfrwt>
<pdfrwt beam="1">  1       -1 0.28640742E-01 0.90536377E+02</pdfrwt>
<totfact> 0.72136781E+04</totfact>
</mgrwt>
</event>
<event>
 7    1  0.3607059E-009  0.9015018E+02  0.7818608E-02  0.1302488E+00
         -1   -1    0    0    0  501 -0.00000000000E+00  0.00000000000E+00  0.82813839588E+02  0.82813839741E+02  0.50400000000E-02 0.  1.
          1   -1    0    0  501    0  0.00000000000E+00 -0.00000000000E+00 -0.24534110870E+02  0.24534111388E+02  0.50400000000E-02 0. -1.
         23    2    1    2    0    0  0.00000000000E+00 -0.35527136788E-14  0.58279728718E+02  0.10734795113E+03  0.90150184871E+02 0.  0.
    9000005    2    3    3    0    0  0.47338613053E+01 -0.19897443845E+02  0.76413446572E+02  0.80013916709E+02  0.12037206308E+02 0.  0.
         22    1    3    3    0    0 -0.47338613053E+01  0.19897443845E+02 -0.18133717855E+02  0.27334034420E+02  0.00000000000E+00 0. -1.
         22    1    4    4    0    0 -0.31277840517E+01 -0.11322473618E+02  0.45252600083E+02  0.46752318190E+02  0.00000000000E+00 0.  1.
         22    1    4    4    0    0  0.78616453570E+01 -0.85749702268E+01  0.31160846490E+02  0.33261598519E+02  0.00000000000E+00 0.  1.
<mgrwt>
<rscale>  0 0.90150185E+02</rscale>
<asrwt>0</asrwt>
<pdfrwt beam="2">  1        1 0.37744787E-02 0.90150185E+02</pdfrwt>
<pdfrwt beam="1">  1       -1 0.12740591E-01 0.90150185E+02</pdfrwt>
<totfact> 0.86629459E+04</totfact>
</mgrwt>
</event>
<event>
 7    1  0.3607059E-009  0.9359275E+02  0.7818608E-02  0.1294377E+00
          1   -1    0    0  501    0  0.00000000000E+00  0.00000000000E+00  0.89206954873E+03  0.89206954874E+03  0.50400000000E-02 0. -1.
         -1   -1    0    0    0  501 -0.00000000000E+00 -0.00000000000E+00 -0.24548514982E+01  0.24548566720E+01  0.50400000000E-02 0.  1.
         23    2    1    2    0    0  0.00000000000E+00  0.00000000000E+00  0.88961469723E+03  0.89452440541E+03  0.93592747339E+02 0.  0.
    9000005    2    3    3    0    0 -0.20082569858E+02 -0.34465505626E+02  0.67695162544E+03  0.67815258933E+03  0.60208426537E+01 0.  0.
         22    1    3    3    0    0  0.20082569858E+02  0.34465505626E+02  0.21266307179E+03  0.21637181608E+03  0.00000000000E+00 0.  1.
         22    1    4    4    0    0 -0.87644254927E+01 -0.14798390973E+02  0.24281673776E+03  0.24342509251E+03  0.00000000000E+00 0. -1.
         22    1    4    4    0    0 -0.11318144365E+02 -0.19667114654E+02  0.43413488768E+03  0.43472749682E+03  0.00000000000E+00 0. -1.
<mgrwt>
<rscale>  0 0.93592747E+02</rscale>
<asrwt>0</asrwt>
<pdfrwt beam="1">  1        1 0.13724127E+00 0.93592747E+02</pdfrwt>
<pdfrwt beam="2">  1       -1 0.37767041E-03 0.93592747E+02</pdfrwt>
<totfact> 0.13006367E+05</totfact>
</mgrwt>
</event>
<event>
 7    1  0.3607059E-009  0.9187109E+02  0.7818608E-02  0.1298383E+00
         -1   -1    0    0    0  501 -0.00000000000E+00  0.00000000000E+00  0.14054786004E+02  0.14054786907E+02  0.50400000000E-02 0.  1.
          1   -1    0    0  501    0  0.00000000000E+00 -0.00000000000E+00 -0.15013208109E+03  0.15013208117E+03  0.50400000000E-02 0. -1.
         23    2    1    2    0    0  0.00000000000E+00  0.00000000000E+00 -0.13607729508E+03  0.16418686808E+03  0.91871091277E+02 0.  0.
    9000005    2    3    3    0    0 -0.27128307749E+02 -0.24350532301E+02 -0.11601338222E+03  0.12257612302E+03  0.15391802251E+02 0.  0.
         22    1    3    3    0    0  0.27128307749E+02  0.24350532301E+02 -0.20063912861E+02  0.41610745054E+02  0.00000000000E+00 0.  1.
         22    1    4    4    0    0 -0.13400471471E+02 -0.21822533645E+02 -0.74357669033E+02  0.78643871690E+02  0.00000000000E+00 0.  1.
         22    1    4    4    0    0 -0.13727836278E+02 -0.25279986557E+01 -0.41655713189E+02  0.43932251335E+02  0.00000000000E+00 0.  1.
<mgrwt>
<rscale>  0 0.91871091E+02</rscale>
<asrwt>0</asrwt>
<pdfrwt beam="2">  1        1 0.23097242E-01 0.91871091E+02</pdfrwt>
<pdfrwt beam="1">  1       -1 0.21622749E-02 0.91871091E+02</pdfrwt>
<totfact> 0.10987622E+05</totfact>
</mgrwt>
</event>
<event>
 7    1  0.3607059E-009  0.9532727E+02  0.7818608E-02  0.1290441E+00
          1   -1    0    0  501    0  0.00000000000E+00  0.00000000000E+00  0.52467571539E+01  0.52467595745E+01  0.50400000000E-02 0. -1.
         -1   -1    0    0    0  501 -0.00000000000E+00 -0.00000000000E+00 -0.43299536250E+03  0.43299536253E+03  0.50400000000E-02 0.  1.
         23    2    1    2    0    0  0.00000000000E+00 -0.35527136788E-14 -0.42774860534E+03  0.43824212210E+03  0.95327268976E+02 0.  0.
    9000005    2    3    3    0    0 -0.30933056703E+02  0.17773045512E+02 -0.35904331007E+03  0.36082666665E+03  0.33241115685E+01 0.  0.
         22    1    3    3    0    0  0.30933056703E+02 -0.17773045512E+02 -0.68705295278E+02  0.77415455453E+02  0.00000000000E+00 0. -1.
         22    1    4    4    0    0 -0.15962042878E+01  0.76626297467E+00 -0.11887005533E+02  0.12018149924E+02  0.00000000000E+00 0.  1.
         22    1    4    4    0    0 -0.29336852416E+02  0.17006782538E+02 -0.34715630453E+03  0.34880851672E+03  0.00000000000E+00 0.  1.
<mgrwt>
<rscale>  0 0.95327269E+02</rscale>
<asrwt>0</asrwt>
<pdfrwt beam="1">  1        1 0.80719394E-03 0.95327269E+02</pdfrwt>
<pdfrwt beam="2">  1       -1 0.66614643E-01 0.95327269E+02</pdfrwt>
<totfact> 0.45483383E+04</totfact>
</mgrwt>
</event>
<event>
 7    1  0.3607059E-009  0.8773862E+02  0.7818608E-02  0.1308422E+00
          1   -1    0    0  501    0  0.00000000000E+00  0.00000000000E+00  0.24806839967E+02  0.24806840479E+02  0.50400000000E-02 0. -1.
         -1   -1    0    0    0  501 -0.00000000000E+00 -0.00000000000E+00 -0.77580070991E+02  0.77580071154E+02  0.50400000000E-02 0.  1.
         23    2    1    2    0    0  0.00000000000E+00  0.00000000000E+00 -0.52773231024E+02  0.10238691163E+03  0.87738621833E+02 0.  0.
    9000005    2    3    3    0    0 -0.39088357125E+02  0.11140064601E+02 -0.45621072061E+02  0.61117624266E+02  0.14425941563E+01 0.  0.
         22    1    3    3    0    0  0.39088357125E+02 -0.11140064601E+02 -0.71521589629E+01  0.41269287368E+02  0.00000000000E+00 0. -1.
         22    1    4    4    0    0 -0.25292709634E+02  0.79229103493E+01 -0.29744174202E+02  0.39839798794E+02  0.00000000000E+00 0.  1.
         22    1    4    4    0    0 -0.13795647490E+02  0.32171542518E+01 -0.15876897859E+02  0.21277825471E+02  0.00000000000E+00 0.  1.
<mgrwt>
<rscale>  0 0.87738622E+02</rscale>
<asrwt>0</asrwt>
<pdfrwt beam="1">  1        1 0.38164370E-02 0.87738622E+02</pdfrwt>
<pdfrwt beam="2">  1       -1 0.11935395E-01 0.87738622E+02</pdfrwt>
<totfact> 0.93866639E+04</totfact>
</mgrwt>
</event>
<event>
 7    1  0.3607059E-009  0.6800928E+02  0.7818608E-02  0.1366996E+00
         -1   -1    0    0    0  501 -0.00000000000E+00  0.00000000000E+00  0.98770472643E+02  0.98770472771E+02  0.50400000000E-02 0.  1.
          1   -1    0    0  501    0  0.00000000000E+00 -0.00000000000E+00 -0.11707097635E+02  0.11707098720E+02  0.50400000000E-02 0. -1.
         23    2    1    2    0    0  0.00000000000E+00 -0.17763568394E-14  0.87063375008E+02  0.11047757149E+03  0.68009282711E+02 0.  0.
    9000005    2    3    3    0    0  0.28710779542E+02 -0.14156307083E+02  0.30305760574E+02  0.45315184424E+02  0.10503186338E+02 0.  0.
         22    1    3    3    0    0 -0.28710779542E+02  0.14156307083E+02  0.56757614434E+02  0.65162387067E+02  0.00000000000E+00 0.  1.
         22    1    4    4    0    0  0.44817266131E+01 -0.29221546338E+01  0.11402670188E+02  0.12595465396E+02  0.00000000000E+00 0. -1.
         22    1    4    4    0    0  0.24229052929E+02 -0.11234152449E+02  0.18903090386E+02  0.32719719027E+02  0.00000000000E+00 0. -1.
<mgrwt>
<rscale>  0 0.68009283E+02</rscale>
<asrwt>0</asrwt>
<pdfrwt beam="2">  1        1 0.18010919E-02 0.68009283E+02</pdfrwt>
<pdfrwt beam="1">  1       -1 0.15195458E-01 0.68009283E+02</pdfrwt>
<totfact> 0.17254953E+05</totfact>
</mgrwt>
</event>
<event>
 7    1  0.3607059E-009  0.9141635E+02  0.7818608E-02  0.1299458E+00
         -1   -1    0    0    0  501 -0.00000000000E+00  0.00000000000E+00  0.20528627463E+02  0.20528628082E+02  0.50400000000E-02 0.  1.
          1   -1    0    0  501    0  0.00000000000E+00 -0.00000000000E+00 -0.10177189993E+03  0.10177190005E+03  0.50400000000E-02 0. -1.
         23    2    1    2    0    0  0.88817841970E-15  0.35527136788E-14 -0.81243272466E+02  0.12230052814E+03  0.91416354452E+02 0.  0.
    9000005    2    3    3    0    0 -0.49605468923E+01  0.30007102779E+02  0.21367424317E+01  0.33546597930E+02  0.13991973478E+02 0.  0.
         22    1    3    3    0    0  0.49605468923E+01 -0.30007102779E+02 -0.83380014898E+02  0.88753930206E+02  0.00000000000E+00 0. -1.
         22    1    4    4    0    0  0.30628303255E+01  0.17890019471E+02  0.47945644552E+01  0.18772894678E+02  0.00000000000E+00 0. -1.
         22    1    4    4    0    0 -0.80233772179E+01  0.12117083308E+02 -0.26578220235E+01  0.14773703252E+02  0.00000000000E+00 0. -1.
<mgrwt>
<rscale>  0 0.91416354E+02</rscale>
<asrwt>0</asrwt>
<pdfrwt beam="2">  1        1 0.15657215E-01 0.91416354E+02</pdfrwt>
<pdfrwt beam="1">  1       -1 0.31582505E-02 0.91416354E+02</pdfrwt>
<totfact> 0.10401085E+05</totfact>
</mgrwt>
</event>
<event>
 7    1  0.3607059E-009  0.8723263E+02  0.7818608E-02  0.1309695E+00
          1   -1    0    0  501    0  0.00000000000E+00  0.00000000000E+00  0.24708441172E+02  0.24708441686E+02  0.50400000000E-02 0. -1.
         -1   -1    0    0    0  501 -0.00000000000E+00 -0.00000000000E+00 -0.76993244719E+02  0.76993244884E+02  0.50400000000E-02 0.  1.
         23    2    1    2    0    0 -0.17763568394E-14  0.00000000000E+00 -0.52284803547E+02  0.10170168657E+03  0.87232633625E+02 0.  0.
    9000005    2    3    3    0    0  0.14547619218E+02  0.28156276575E+02  0.86407158828E+01  0.33026159245E+02  0.34141013540E+01 0.  0.
         22    1    3    3    0    0 -0.14547619218E+02 -0.28156276575E+02 -0.60925519430E+02  0.68675527324E+02  0.00000000000E+00 0.  1.
         22    1    4    4    0    0  0.10684988031E+02  0.23086587120E+02  0.77305663903E+01  0.26587988468E+02  0.00000000000E+00 0. -1.
         22    1    4    4    0    0  0.38626311870E+01  0.50696894548E+01  0.91014949243E+00  0.64381707770E+01  0.00000000000E+00 0. -1.
<mgrwt>
<rscale>  0 0.87232634E+02</rscale>
<asrwt>0</asrwt>
<pdfrwt beam="1">  1        1 0.38012987E-02 0.87232634E+02</pdfrwt>
<pdfrwt beam="2">  1       -1 0.11845115E-01 0.87232634E+02</pdfrwt>
<totfact> 0.95381454E+04</totfact>
</mgrwt>
</event>
<event>
 7    1  0.3607059E-009  0.9108417E+02  0.7818608E-02  0.1300247E+00
         -1   -1    0    0    0  501 -0.00000000000E+00  0.00000000000E+00  0.12763387540E+02  0.12763388535E+02  0.50400000000E-02 0.  1.
          1   -1    0    0  501    0  0.00000000000E+00 -0.00000000000E+00 -0.16250243471E+03  0.16250243479E+03  0.50400000000E-02 0. -1.
         23    2    1    2    0    0  0.00000000000E+00  0.00000000000E+00 -0.14973904717E+03  0.17526582332E+03  0.91084173038E+02 0.  0.
    9000005    2    3    3    0    0 -0.14102184539E+02 -0.42348377673E+02 -0.85832322589E+02  0.97315030210E+02  0.10524770950E+02 0.  0.
         22    1    3    3    0    0  0.14102184539E+02  0.42348377673E+02 -0.63906724579E+02  0.77950793112E+02  0.00000000000E+00 0. -1.
         22    1    4    4    0    0 -0.43616076616E+01 -0.28887159276E+02 -0.53051610661E+02  0.60563726653E+02  0.00000000000E+00 0.  1.
         22    1    4    4    0    0 -0.97405768772E+01 -0.13461218397E+02 -0.32780711928E+02  0.36751303557E+02  0.00000000000E+00 0.  1.
<mgrwt>
<rscale>  0 0.91084173E+02</rscale>
<asrwt>0</asrwt>
<pdfrwt beam="2">  1        1 0.25000373E-01 0.91084173E+02</pdfrwt>
<pdfrwt beam="1">  1       -1 0.19635983E-02 0.91084173E+02</pdfrwt>
<totfact> 0.11412120E+05</totfact>
</mgrwt>
</event>
<event>
 7    1  0.3607059E-009  0.8876213E+02  0.7818608E-02  0.1305877E+00
          1   -1    0    0  501    0  0.00000000000E+00  0.00000000000E+00  0.44601250358E+01  0.44601278835E+01  0.50400000000E-02 0. -1.
         -1   -1    0    0    0  501 -0.00000000000E+00 -0.00000000000E+00 -0.44161952751E+03  0.44161952754E+03  0.50400000000E-02 0.  1.
         23    2    1    2    0    0  0.00000000000E+00  0.00000000000E+00 -0.43715940248E+03  0.44607965543E+03  0.88762130495E+02 0.  0.
    9000005    2    3    3    0    0 -0.11162310277E+02 -0.14159689334E+02 -0.42168192333E+03  0.42231736737E+03  0.14533421755E+02 0.  0.
         22    1    3    3    0    0  0.11162310277E+02  0.14159689334E+02 -0.15477479146E+02  0.23762288052E+02  0.00000000000E+00 0. -1.
         22    1    4    4    0    0 -0.32114113109E+00  0.17972943696E+01 -0.89228606234E+01  0.91077351950E+01  0.00000000000E+00 0. -1.
         22    1    4    4    0    0 -0.10841169146E+02 -0.15956983704E+02 -0.41275906271E+03  0.41320963218E+03  0.00000000000E+00 0. -1.
<mgrwt>
<rscale>  0 0.88762130E+02</rscale>
<asrwt>0</asrwt>
<pdfrwt beam="1">  1        1 0.68617365E-03 0.88762130E+02</pdfrwt>
<pdfrwt beam="2">  1       -1 0.67941432E-01 0.88762130E+02</pdfrwt>
<totfact> 0.54258126E+04</totfact>
</mgrwt>
</event>
<event>
 7    1  0.3607059E-009  0.9526458E+02  0.7818608E-02  0.1290581E+00
          1   -1    0    0  501    0  0.00000000000E+00  0.00000000000E+00  0.48902274957E+03  0.48902274960E+03  0.50400000000E-02 0.  1.
         -1   -1    0    0    0  501 -0.00000000000E+00 -0.00000000000E+00 -0.46395268786E+01  0.46395296161E+01  0.50400000000E-02 0. -1.
         23    2    1    2    0    0  0.71054273576E-14  0.88817841970E-15  0.48438322270E+03  0.49366227922E+03  0.95264576271E+02 0.  0.
    9000005    2    3    3    0    0 -0.46457757727E+02 -0.53056905820E+01  0.27163249360E+03  0.27583357051E+03  0.10652391089E+02 0.  0.
         22    1    3    3    0    0  0.46457757727E+02  0.53056905820E+01  0.21275072910E+03  0.21782870871E+03  0.00000000000E+00 0.  1.
         22    1    4    4    0    0 -0.62108177249E+01 -0.38186665884E+01  0.55954571092E+02  0.56427568594E+02  0.00000000000E+00 0. -1.
         22    1    4    4    0    0 -0.40246940002E+02 -0.14870239937E+01  0.21567792251E+03  0.21940600192E+03  0.00000000000E+00 0. -1.
<mgrwt>
<rscale>  0 0.95264576E+02</rscale>
<asrwt>0</asrwt>
<pdfrwt beam="1">  1        1 0.75234254E-01 0.95264576E+02</pdfrwt>
<pdfrwt beam="2">  1       -1 0.71377372E-03 0.95264576E+02</pdfrwt>
<totfact> 0.12361373E+05</totfact>
</mgrwt>
</event>
<event>
 7    1  0.3607059E-009  0.9076610E+02  0.7818608E-02  0.1301007E+00
          1   -1    0    0  501    0  0.00000000000E+00  0.00000000000E+00  0.18666547542E+03  0.18666547549E+03  0.50400000000E-02 0. -1.
         -1   -1    0    0    0  501 -0.00000000000E+00 -0.00000000000E+00 -0.11033755719E+02  0.11033756870E+02  0.50400000000E-02 0.  1.
         23    2    1    2    0    0  0.00000000000E+00  0.35527136788E-14  0.17563171970E+03  0.19769923236E+03  0.90766103308E+02 0.  0.
    9000005    2    3    3    0    0  0.31942084481E+02  0.26442400411E+02  0.12714212551E+03  0.13389689662E+03  0.66152509786E+01 0.  0.
         22    1    3    3    0    0 -0.31942084481E+02 -0.26442400411E+02  0.48489594193E+02  0.63802335736E+02  0.00000000000E+00 0.  1.
         22    1    4    4    0    0  0.23459336000E+02  0.20313952275E+02  0.10326894555E+03  0.10783075729E+03  0.00000000000E+00 0.  1.
         22    1    4    4    0    0  0.84827484810E+01  0.61284481362E+01  0.23873179962E+02  0.26066139335E+02  0.00000000000E+00 0.  1.
<mgrwt>
<rscale>  0 0.90766103E+02</rscale>
<asrwt>0</asrwt>
<pdfrwt beam="1">  1        1 0.28717764E-01 0.90766103E+02</pdfrwt>
<pdfrwt beam="2">  1       -1 0.16975011E-02 0.90766103E+02</pdfrwt>
<totfact> 0.11826269E+05</totfact>
</mgrwt>
</event>
<event>
 7    1  0.3607059E-009  0.9268758E+02  0.7818608E-02  0.1296471E+00
         -1   -1    0    0    0  501 -0.00000000000E+00  0.00000000000E+00  0.36344336912E+01  0.36344371858E+01  0.50400000000E-02 0.  1.
          1   -1    0    0  501    0  0.00000000000E+00 -0.00000000000E+00 -0.59094374490E+03  0.59094374492E+03  0.50400000000E-02 0. -1.
         23    2    1    2    0    0  0.00000000000E+00  0.00000000000E+00 -0.58730931121E+03  0.59457818210E+03  0.92687580643E+02 0.  0.
    9000005    2    3    3    0    0  0.83334887817E+01  0.43420378762E+02 -0.35840666967E+03  0.36144475329E+03  0.15237863772E+02 0.  0.
         22    1    3    3    0    0 -0.83334887817E+01 -0.43420378762E+02 -0.22890264154E+03  0.23313342881E+03  0.00000000000E+00 0.  1.
         22    1    4    4    0    0  0.82149618816E+01  0.19462353762E+02 -0.21667645746E+03  0.21770382640E+03  0.00000000000E+00 0. -1.
         22    1    4    4    0    0  0.11852690013E+00  0.23958025000E+02 -0.14173021221E+03  0.14374092689E+03  0.00000000000E+00 0. -1.
<mgrwt>
<rscale>  0 0.92687581E+02</rscale>
<asrwt>0</asrwt>
<pdfrwt beam="2">  1        1 0.90914346E-01 0.92687581E+02</pdfrwt>
<pdfrwt beam="1">  1       -1 0.55914438E-03 0.92687581E+02</pdfrwt>
<totfact> 0.13542500E+05</totfact>
</mgrwt>
</event>
<event>
 7    1  0.3607059E-009  0.1261010E+03  0.7818608E-02  0.1233359E+00
          1   -1    0    0  501    0  0.00000000000E+00  0.00000000000E+00  0.46321531882E+02  0.46321532157E+02  0.50400000000E-02 0. -1.
         -1   -1    0    0    0  501 -0.00000000000E+00 -0.00000000000E+00 -0.85821067538E+02  0.85821067686E+02  0.50400000000E-02 0.  1.
         23    2    1    2    0    0  0.71054273576E-14  0.35527136788E-14 -0.39499535656E+02  0.13214259984E+03  0.12610096501E+03 0.  0.
    9000005    2    3    3    0    0  0.41079339849E+02  0.24302243453E+02 -0.62414517430E+02  0.79197273429E+02  0.99259726634E+01 0.  0.
         22    1    3    3    0    0 -0.41079339849E+02 -0.24302243453E+02  0.22914981774E+02  0.52945326413E+02  0.00000000000E+00 0. -1.
         22    1    4    4    0    0  0.30244744853E+01  0.44753271077E+01 -0.40253472563E+01  0.67364248060E+01  0.00000000000E+00 0.  1.
         22    1    4    4    0    0  0.38054865364E+02  0.19826916345E+02 -0.58389170174E+02  0.72460848623E+02  0.00000000000E+00 0.  1.
<mgrwt>
<rscale>  0 0.12610097E+03</rscale>
<asrwt>0</asrwt>
<pdfrwt beam="1">  1        1 0.71263896E-02 0.12610097E+03</pdfrwt>
<pdfrwt beam="2">  1       -1 0.13203241E-01 0.12610097E+03</pdfrwt>
<totfact> 0.36334068E+04</totfact>
</mgrwt>
</event>
<event>
 7    1  0.3607059E-009  0.9121037E+02  0.7818608E-02  0.1299947E+00
          1   -1    0    0  501    0  0.00000000000E+00  0.00000000000E+00  0.66215922732E+02  0.66215922924E+02  0.50400000000E-02 0. -1.
         -1   -1    0    0    0  501 -0.00000000000E+00 -0.00000000000E+00 -0.31409860365E+02  0.31409860770E+02  0.50400000000E-02 0.  1.
         23    2    1    2    0    0  0.00000000000E+00 -0.35527136788E-14  0.34806062367E+02  0.97625783693E+02  0.91210370377E+02 0.  0.
    9000005    2    3    3    0    0 -0.37103476292E+02  0.22995963349E+02  0.31158250226E+02  0.53821801949E+02  0.45241048368E+01 0.  0.
         22    1    3    3    0    0  0.37103476292E+02 -0.22995963349E+02  0.36478121404E+01  0.43803981745E+02  0.00000000000E+00 0.  1.
         22    1    4    4    0    0 -0.25065141837E+02  0.17630762531E+02  0.23072051707E+02  0.38359153962E+02  0.00000000000E+00 0.  1.
         22    1    4    4    0    0 -0.12038334455E+02  0.53652008176E+01  0.80861985195E+01  0.15462647986E+02  0.00000000000E+00 0.  1.
<mgrwt>
<rscale>  0 0.91210370E+02</rscale>
<asrwt>0</asrwt>
<pdfrwt beam="1">  1        1 0.10187065E-01 0.91210370E+02</pdfrwt>
<pdfrwt beam="2">  1       -1 0.48322863E-02 0.91210370E+02</pdfrwt>
<totfact> 0.97728285E+04</totfact>
</mgrwt>
</event>
<event>
 7    1  0.3607059E-009  0.9369158E+02  0.7818608E-02  0.1294150E+00
          1   -1    0    0  501    0  0.00000000000E+00  0.00000000000E+00  0.21500928905E+02  0.21500929496E+02  0.50400000000E-02 0. -1.
         -1   -1    0    0    0  501 -0.00000000000E+00 -0.00000000000E+00 -0.10206665669E+03  0.10206665682E+03  0.50400000000E-02 0.  1.
         23    2    1    2    0    0  0.00000000000E+00 -0.88817841970E-15 -0.80565727786E+02  0.12356758631E+03  0.93691578560E+02 0.  0.
    9000005    2    3    3    0    0 -0.23929769163E+02  0.74526543601E+01 -0.91961253265E+02  0.96035170686E+02  0.11734819867E+02 0.  0.
         22    1    3    3    0    0  0.23929769163E+02 -0.74526543601E+01  0.11395525479E+02  0.27532415625E+02  0.00000000000E+00 0. -1.
         22    1    4    4    0    0 -0.16063872708E+02  0.10489734283E+02 -0.60966397400E+02  0.63913880680E+02  0.00000000000E+00 0.  1.
         22    1    4    4    0    0 -0.78658964548E+01 -0.30370799226E+01 -0.30994855865E+02  0.32121290005E+02  0.00000000000E+00 0.  1.
<mgrwt>
<rscale>  0 0.93691579E+02</rscale>
<asrwt>0</asrwt>
<pdfrwt beam="1">  1        1 0.33078353E-02 0.93691579E+02</pdfrwt>
<pdfrwt beam="2">  1       -1 0.15702562E-01 0.93691579E+02</pdfrwt>
<totfact> 0.75565258E+04</totfact>
</mgrwt>
</event>
<event>
 7    1  0.3607059E-009  0.9252688E+02  0.7818608E-02  0.1296845E+00
          1   -1    0    0  501    0  0.00000000000E+00  0.00000000000E+00  0.16484046963E+03  0.16484046971E+03  0.50400000000E-02 0. -1.
         -1   -1    0    0    0  501 -0.00000000000E+00 -0.00000000000E+00 -0.12984104247E+02  0.12984105226E+02  0.50400000000E-02 0.  1.
         23    2    1    2    0    0  0.00000000000E+00  0.00000000000E+00  0.15185636538E+03  0.17782457494E+03  0.92526881191E+02 0.  0.
    9000005    2    3    3    0    0 -0.62999359034E+01 -0.23625737365E+02  0.15130967903E+03  0.15336719314E+03  0.53863072412E+01 0.  0.
         22    1    3    3    0    0  0.62999359034E+01  0.23625737365E+02  0.54668635983E+00  0.24457381798E+02  0.00000000000E+00 0.  1.
         22    1    4    4    0    0 -0.61493865078E+00 -0.63539087722E+01  0.27619470688E+02  0.28347583095E+02  0.00000000000E+00 0.  1.
         22    1    4    4    0    0 -0.56849972526E+01 -0.17271828593E+02  0.12369020834E+03  0.12501961004E+03  0.00000000000E+00 0.  1.
<mgrwt>
<rscale>  0 0.92526881E+02</rscale>
<asrwt>0</asrwt>
<pdfrwt beam="1">  1        1 0.25360071E-01 0.92526881E+02</pdfrwt>
<pdfrwt beam="2">  1       -1 0.19975547E-02 0.92526881E+02</pdfrwt>
<totfact> 0.10967910E+05</totfact>
</mgrwt>
</event>
<event>
 7    1  0.5432722E-009  0.8972673E+02  0.7818608E-02  0.1303515E+00
         -1   -1    0    0    0  501 -0.00000000000E+00  0.00000000000E+00  0.46164436802E+01  0.46164464314E+01  0.50400000000E-02 0.  1.
          1   -1    0    0  501    0  0.00000000000E+00 -0.00000000000E+00 -0.43598950880E+03  0.43598950883E+03  0.50400000000E-02 0. -1.
         23    2    1    2    0    0  0.00000000000E+00  0.00000000000E+00 -0.43137306512E+03  0.44060595526E+03  0.89726732361E+02 0.  0.
    9000005    2    3    3    0    0 -0.11872860687E+02 -0.41731409463E+02 -0.20732421744E+03  0.21239473401E+03  0.15675348249E+02 0.  0.
         22    1    3    3    0    0  0.11872860687E+02  0.41731409463E+02 -0.22404884768E+03  0.22821122125E+03  0.00000000000E+00 0. -1.
         22    1    4    4    0    0  0.62884201661E+00 -0.25705866017E+02 -0.10902860719E+03  0.11201974904E+03  0.00000000000E+00 0.  1.
         22    1    4    4    0    0 -0.12501702704E+02 -0.16025543445E+02 -0.98295610254E+02  0.10037498497E+03  0.00000000000E+00 0.  1.
<mgrwt>
<rscale>  0 0.89726732E+02</rscale>
<asrwt>0</asrwt>
<pdfrwt beam="2">  1        1 0.67075276E-01 0.89726732E+02</pdfrwt>
<pdfrwt beam="1">  1       -1 0.71022267E-03 0.89726732E+02</pdfrwt>
<totfact> 0.14265882E+05</totfact>
</mgrwt>
</event>
<event>
 7    1  0.3607059E-009  0.9260081E+02  0.7818608E-02  0.1296673E+00
         -1   -1    0    0    0  501 -0.00000000000E+00  0.00000000000E+00  0.37923266454E+02  0.37923266789E+02  0.50400000000E-02 0.  1.
          1   -1    0    0  501    0  0.00000000000E+00 -0.00000000000E+00 -0.56528028387E+02  0.56528028612E+02  0.50400000000E-02 0. -1.
         23    2    1    2    0    0 -0.17763568394E-14  0.00000000000E+00 -0.18604761933E+02  0.94451295401E+02  0.92600810128E+02 0.  0.
    9000005    2    3    3    0    0  0.82523819543E+01 -0.45047523697E+02 -0.10316304549E+02  0.47910133780E+02  0.95694085563E+01 0.  0.
         22    1    3    3    0    0 -0.82523819543E+01  0.45047523697E+02 -0.82884573842E+01  0.46541161621E+02  0.00000000000E+00 0.  1.
         22    1    4    4    0    0 -0.10383435626E+01 -0.20342827802E+02 -0.52394782355E+01  0.21032378195E+02  0.00000000000E+00 0.  1.
         22    1    4    4    0    0  0.92907255169E+01 -0.24704695895E+02 -0.50768263132E+01  0.26877755585E+02  0.00000000000E+00 0.  1.
<mgrwt>
<rscale>  0 0.92600810E+02</rscale>
<asrwt>0</asrwt>
<pdfrwt beam="2">  1        1 0.86966198E-02 0.92600810E+02</pdfrwt>
<pdfrwt beam="1">  1       -1 0.58343488E-02 0.92600810E+02</pdfrwt>
<totfact> 0.91471797E+04</totfact>
</mgrwt>
</event>
<event>
 7    1  0.3607059E-009  0.9468019E+02  0.7818608E-02  0.1291898E+00
         -1   -1    0    0    0  501 -0.00000000000E+00  0.00000000000E+00  0.97376018182E+01  0.97376031225E+01  0.50400000000E-02 0.  1.
          1   -1    0    0  501    0  0.00000000000E+00 -0.00000000000E+00 -0.23014748374E+03  0.23014748379E+03  0.50400000000E-02 0. -1.
         23    2    1    2    0    0  0.00000000000E+00  0.00000000000E+00 -0.22040988192E+03  0.23988508691E+03  0.94680192631E+02 0.  0.
    9000005    2    3    3    0    0 -0.35697005359E+02 -0.11467096712E+02 -0.38780992204E+02  0.54426670881E+02  0.72475270431E+01 0.  0.
         22    1    3    3    0    0  0.35697005359E+02  0.11467096712E+02 -0.18162888971E+03  0.18545841603E+03  0.00000000000E+00 0. -1.
         22    1    4    4    0    0 -0.18004649438E+02 -0.23325664967E+01 -0.20666255418E+02  0.27508223877E+02  0.00000000000E+00 0. -1.
         22    1    4    4    0    0 -0.17692355921E+02 -0.91345302150E+01 -0.18114736785E+02  0.26918447004E+02  0.00000000000E+00 0. -1.
<mgrwt>
<rscale>  0 0.94680193E+02</rscale>
<asrwt>0</asrwt>
<pdfrwt beam="2">  1        1 0.35407301E-01 0.94680193E+02</pdfrwt>
<pdfrwt beam="1">  1       -1 0.14980929E-02 0.94680193E+02</pdfrwt>
<totfact> 0.10998417E+05</totfact>
</mgrwt>
</event>
<event>
 7    1  0.3607059E-009  0.9052838E+02  0.7818608E-02  0.1301577E+00
          1   -1    0    0  501    0  0.00000000000E+00  0.00000000000E+00  0.77554051232E+02  0.77554051396E+02  0.50400000000E-02 0. -1.
         -1   -1    0    0    0  501 -0.00000000000E+00 -0.00000000000E+00 -0.26418308099E+02  0.26418308579E+02  0.50400000000E-02 0.  1.
         23    2    1    2    0    0  0.00000000000E+00 -0.35527136788E-14  0.51135743134E+02  0.10397235998E+03  0.90528379048E+02 0.  0.
    9000005    2    3    3    0    0  0.35109841230E+02  0.16497629694E+02  0.19464380841E+01  0.41326845627E+02  0.14115481271E+02 0.  0.
         22    1    3    3    0    0 -0.35109841230E+02 -0.16497629694E+02  0.49189305050E+02  0.62645514349E+02  0.00000000000E+00 0. -1.
         22    1    4    4    0    0  0.52670046450E+01  0.28354089007E+01  0.57357509286E+01  0.82873228656E+01  0.00000000000E+00 0. -1.
         22    1    4    4    0    0  0.29842836585E+02  0.13662220793E+02 -0.37893128445E+01  0.33039522761E+02  0.00000000000E+00 0. -1.
<mgrwt>
<rscale>  0 0.90528379E+02</rscale>
<asrwt>0</asrwt>
<pdfrwt beam="1">  1        1 0.11931393E-01 0.90528379E+02</pdfrwt>
<pdfrwt beam="2">  1       -1 0.40643551E-02 0.90528379E+02</pdfrwt>
<totfact> 0.10223649E+05</totfact>
</mgrwt>
</event>
<event>
 7    1  0.3607059E-009  0.8798374E+02  0.7818608E-02  0.1307809E+00
         -1   -1    0    0    0  501 -0.00000000000E+00  0.00000000000E+00  0.91483725725E+02  0.91483725864E+02  0.50400000000E-02 0.  1.
          1   -1    0    0  501    0  0.00000000000E+00 -0.00000000000E+00 -0.21154415145E+02  0.21154415746E+02  0.50400000000E-02 0. -1.
         23    2    1    2    0    0  0.35527136788E-14 -0.44408920985E-15  0.70329310580E+02  0.11263814161E+03  0.87983742922E+02 0.  0.
    9000005    2    3    3    0    0  0.27155449579E+02 -0.39578234933E+01 -0.60805198926E+01  0.31449811158E+02  0.14107979695E+02 0.  0.
         22    1    3    3    0    0 -0.27155449579E+02  0.39578234933E+01  0.76409830472E+02  0.81188330451E+02  0.00000000000E+00 0.  1.
         22    1    4    4    0    0  0.93571447296E+01 -0.22926216518E+01  0.45472186884E+01  0.10653143636E+02  0.00000000000E+00 0.  1.
         22    1    4    4    0    0  0.17798304849E+02 -0.16652018415E+01 -0.10627738581E+02  0.20796667522E+02  0.00000000000E+00 0.  1.
<mgrwt>
<rscale>  0 0.87983743E+02</rscale>
<asrwt>0</asrwt>
<pdfrwt beam="2">  1        1 0.32545255E-02 0.87983743E+02</pdfrwt>
<pdfrwt beam="1">  1       -1 0.14074419E-01 0.87983743E+02</pdfrwt>
<totfact> 0.90622328E+04</totfact>
</mgrwt>
</event>
<event>
 7    1  0.3607059E-009  0.9269721E+02  0.7818608E-02  0.1296448E+00
         -1   -1    0    0    0  501 -0.00000000000E+00  0.00000000000E+00  0.29825096568E+02  0.29825096994E+02  0.50400000000E-02 0.  1.
          1   -1    0    0  501    0  0.00000000000E+00 -0.00000000000E+00 -0.72026367345E+02  0.72026367521E+02  0.50400000000E-02 0. -1.
         23    2    1    2    0    0  0.00000000000E+00 -0.35527136788E-14 -0.42201270777E+02  0.10185146451E+03  0.92697214460E+02 0.  0.
    9000005    2    3    3    0    0 -0.38244479101E+02  0.17788498805E+02 -0.40956519223E+02  0.59654067938E+02  0.10104478378E+02 0.  0.
         22    1    3    3    0    0  0.38244479101E+02 -0.17788498805E+02 -0.12447515540E+01  0.42197396577E+02  0.00000000000E+00 0.  1.
         22    1    4    4    0    0 -0.20102944713E+02  0.39839788947E+01 -0.17561749937E+02  0.26989174400E+02  0.00000000000E+00 0. -1.
         22    1    4    4    0    0 -0.18141534388E+02  0.13804519911E+02 -0.23394769286E+02  0.32664893538E+02  0.00000000000E+00 0. -1.
<mgrwt>
<rscale>  0 0.92697214E+02</rscale>
<asrwt>0</asrwt>
<pdfrwt beam="2">  1        1 0.11080980E-01 0.92697214E+02</pdfrwt>
<pdfrwt beam="1">  1       -1 0.45884765E-02 0.92697214E+02</pdfrwt>
<totfact> 0.94680254E+04</totfact>
</mgrwt>
</event>
<event>
 7    1  0.3607059E-009  0.9092760E+02  0.7818608E-02  0.1300621E+00
          1   -1    0    0  501    0  0.00000000000E+00  0.00000000000E+00  0.14109697129E+03  0.14109697138E+03  0.50400000000E-02 0. -1.
         -1   -1    0    0    0  501 -0.00000000000E+00 -0.00000000000E+00 -0.14649196448E+02  0.14649197315E+02  0.50400000000E-02 0.  1.
         23    2    1    2    0    0  0.00000000000E+00  0.00000000000E+00  0.12644777484E+03  0.15574616869E+03  0.90927604722E+02 0.  0.
    9000005    2    3    3    0    0  0.13417456994E+02  0.58269662527E+01  0.13652870579E+03  0.13798084132E+03  0.13588354563E+02 0.  0.
         22    1    3    3    0    0 -0.13417456994E+02 -0.58269662527E+01 -0.10080930947E+02  0.17765327372E+02  0.00000000000E+00 0.  1.
         22    1    4    4    0    0  0.16294308875E+01  0.77427718751E+01  0.61660980424E+02  0.62166567126E+02  0.00000000000E+00 0. -1.
         22    1    4    4    0    0  0.11788026106E+02 -0.19158056224E+01  0.74867725364E+02  0.75814274196E+02  0.00000000000E+00 0. -1.
<mgrwt>
<rscale>  0 0.90927605E+02</rscale>
<asrwt>0</asrwt>
<pdfrwt beam="1">  1        1 0.21707226E-01 0.90927605E+02</pdfrwt>
<pdfrwt beam="2">  1       -1 0.22537227E-02 0.90927605E+02</pdfrwt>
<totfact> 0.11170975E+05</totfact>
</mgrwt>
</event>
<event>
 7    1  0.3607059E-009  0.8994137E+02  0.7818608E-02  0.1302994E+00
          1   -1    0    0  501    0  0.00000000000E+00  0.00000000000E+00  0.13586982828E+03  0.13586982837E+03  0.50400000000E-02 0. -1.
         -1   -1    0    0    0  501 -0.00000000000E+00 -0.00000000000E+00 -0.14884559335E+02  0.14884560189E+02  0.50400000000E-02 0.  1.
         23    2    1    2    0    0  0.00000000000E+00  0.00000000000E+00  0.12098526894E+03  0.15075438856E+03  0.89941371842E+02 0.  0.
    9000005    2    3    3    0    0 -0.29395535824E+02 -0.28373405362E+02  0.88751315479E+02  0.98714255833E+02  0.14091154929E+02 0.  0.
         22    1    3    3    0    0  0.29395535824E+02  0.28373405362E+02  0.32233953462E+02  0.52040132725E+02  0.00000000000E+00 0.  1.
         22    1    4    4    0    0 -0.13618740103E+02 -0.13937984831E+02  0.58557859091E+02  0.61715155063E+02  0.00000000000E+00 0.  1.
         22    1    4    4    0    0 -0.15776795721E+02 -0.14435420531E+02  0.30193456387E+02  0.36999100770E+02  0.00000000000E+00 0.  1.
<mgrwt>
<rscale>  0 0.89941372E+02</rscale>
<asrwt>0</asrwt>
<pdfrwt beam="1">  1        1 0.20903052E-01 0.89941372E+02</pdfrwt>
<pdfrwt beam="2">  1       -1 0.22899322E-02 0.89941372E+02</pdfrwt>
<totfact> 0.11426570E+05</totfact>
</mgrwt>
</event>
<event>
 7    1  0.3607059E-009  0.9866427E+02  0.7818608E-02  0.1283130E+00
          1   -1    0    0  501    0  0.00000000000E+00  0.00000000000E+00  0.15548929585E+03  0.15548929594E+03  0.50400000000E-02 0. -1.
         -1   -1    0    0    0  501 -0.00000000000E+00 -0.00000000000E+00 -0.15651620658E+02  0.15651621469E+02  0.50400000000E-02 0.  1.
         23    2    1    2    0    0  0.00000000000E+00 -0.17763568394E-14  0.13983767520E+03  0.17114091740E+03  0.98664270158E+02 0.  0.
    9000005    2    3    3    0    0 -0.17296769921E+02  0.10695098855E+02  0.14769653264E+03  0.14933896727E+03  0.86196288707E+01 0.  0.
         22    1    3    3    0    0  0.17296769921E+02 -0.10695098855E+02 -0.78588574466E+01  0.21801950133E+02  0.00000000000E+00 0.  1.
         22    1    4    4    0    0 -0.32210338813E+01 -0.13929472249E+01  0.21036391315E+02  0.21327098274E+02  0.00000000000E+00 0. -1.
         22    1    4    4    0    0 -0.14075736040E+02  0.12088046080E+02  0.12666014133E+03  0.12801186900E+03  0.00000000000E+00 0. -1.
<mgrwt>
<rscale>  0 0.98664270E+02</rscale>
<asrwt>0</asrwt>
<pdfrwt beam="1">  1        1 0.23921430E-01 0.98664270E+02</pdfrwt>
<pdfrwt beam="2">  1       -1 0.24079417E-02 0.98664270E+02</pdfrwt>
<totfact> 0.91144728E+04</totfact>
</mgrwt>
</event>
<event>
 7    1  0.3607059E-009  0.9333151E+02  0.7818608E-02  0.1294979E+00
         -1   -1    0    0    0  501 -0.00000000000E+00  0.00000000000E+00  0.61221707544E+03  0.61221707546E+03  0.50400000000E-02 0.  1.
          1   -1    0    0  501    0  0.00000000000E+00 -0.00000000000E+00 -0.35570578785E+01  0.35570614490E+01  0.50400000000E-02 0. -1.
         23    2    1    2    0    0  0.00000000000E+00 -0.35527136788E-14  0.60866001756E+03  0.61577413691E+03  0.93331509733E+02 0.  0.
    9000005    2    3    3    0    0  0.22845032913E+02  0.27177066914E+02  0.50067042085E+03  0.50209809945E+03  0.13082150494E+02 0.  0.
         22    1    3    3    0    0 -0.22845032913E+02 -0.27177066914E+02  0.10798959671E+03  0.11367603746E+03  0.00000000000E+00 0. -1.
         22    1    4    4    0    0  0.17546228034E+02  0.19102667122E+02  0.27483364147E+03  0.27605490847E+03  0.00000000000E+00 0.  1.
         22    1    4    4    0    0  0.52988048796E+01  0.80743997921E+01  0.22583677938E+03  0.22604319098E+03  0.00000000000E+00 0.  1.
<mgrwt>
<rscale>  0 0.93331510E+02</rscale>
<asrwt>0</asrwt>
<pdfrwt beam="2">  1        1 0.54724031E-03 0.93331510E+02</pdfrwt>
<pdfrwt beam="1">  1       -1 0.94187180E-01 0.93331510E+02</pdfrwt>
<totfact> 0.38559393E+04</totfact>
</mgrwt>
</event>
<event>
 7    1  0.3607059E-009  0.9052778E+02  0.7818608E-02  0.1301579E+00
          1   -1    0    0  501    0  0.00000000000E+00  0.00000000000E+00  0.17384701174E+03  0.17384701181E+03  0.50400000000E-02 0. -1.
         -1   -1    0    0    0  501 -0.00000000000E+00 -0.00000000000E+00 -0.11785187883E+02  0.11785188961E+02  0.50400000000E-02 0.  1.
         23    2    1    2    0    0  0.00000000000E+00  0.00000000000E+00  0.16206182385E+03  0.18563220077E+03  0.90527781438E+02 0.  0.
    9000005    2    3    3    0    0 -0.31275194162E+02  0.47087736137E+01  0.14710421114E+03  0.15064591064E+03  0.73641794741E+01 0.  0.
         22    1    3    3    0    0  0.31275194162E+02 -0.47087736137E+01  0.14957612712E+02  0.34986290127E+02  0.00000000000E+00 0.  1.
         22    1    4    4    0    0 -0.11344305734E+02  0.74866378048E+00  0.69582778753E+02  0.70505438577E+02  0.00000000000E+00 0.  1.
         22    1    4    4    0    0 -0.19930888428E+02  0.39601098332E+01  0.77521432387E+02  0.80140472065E+02  0.00000000000E+00 0.  1.
<mgrwt>
<rscale>  0 0.90527781E+02</rscale>
<asrwt>0</asrwt>
<pdfrwt beam="1">  1        1 0.26745694E-01 0.90527781E+02</pdfrwt>
<pdfrwt beam="2">  1       -1 0.18131060E-02 0.90527781E+02</pdfrwt>
<totfact> 0.11749480E+05</totfact>
</mgrwt>
</event>
<event>
 7    1  0.3607059E-009  0.9386602E+02  0.7818608E-02  0.1293751E+00
          1   -1    0    0  501    0  0.00000000000E+00  0.00000000000E+00  0.70728984975E+01  0.70729002932E+01  0.50400000000E-02 0. -1.
         -1   -1    0    0    0  501 -0.00000000000E+00 -0.00000000000E+00 -0.31142918717E+03  0.31142918721E+03  0.50400000000E-02 0.  1.
         23    2    1    2    0    0 -0.71054273576E-14 -0.17763568394E-14 -0.30435628868E+03  0.31850208751E+03  0.93866017759E+02 0.  0.
    9000005    2    3    3    0    0  0.40354617658E+02  0.13041502086E+02 -0.86512732597E+02  0.96568784760E+02  0.65193056189E+01 0.  0.
         22    1    3    3    0    0 -0.40354617658E+02 -0.13041502086E+02 -0.21784355608E+03  0.22193330275E+03  0.00000000000E+00 0.  1.
         22    1    4    4    0    0  0.64372494195E+01 -0.18125377229E+00 -0.14985334457E+02  0.16310465407E+02  0.00000000000E+00 0.  1.
         22    1    4    4    0    0  0.33917368239E+02  0.13222755858E+02 -0.71527398140E+02  0.80258319353E+02  0.00000000000E+00 0.  1.
<mgrwt>
<rscale>  0 0.93866018E+02</rscale>
<asrwt>0</asrwt>
<pdfrwt beam="1">  1        1 0.10881386E-02 0.93866018E+02</pdfrwt>
<pdfrwt beam="2">  1       -1 0.47912172E-01 0.93866018E+02</pdfrwt>
<totfact> 0.55310272E+04</totfact>
</mgrwt>
</event>
<event>
 7    1  0.3607059E-009  0.9041802E+02  0.7818608E-02  0.1301843E+00
          1   -1    0    0  501    0  0.00000000000E+00  0.00000000000E+00  0.43546584268E+03  0.43546584271E+03  0.50400000000E-02 0.  1.
         -1   -1    0    0    0  501 -0.00000000000E+00 -0.00000000000E+00 -0.46934891438E+01  0.46934918499E+01  0.50400000000E-02 0. -1.
         23    2    1    2    0    0  0.00000000000E+00  0.00000000000E+00  0.43077235354E+03  0.44015933456E+03  0.90418024909E+02 0.  0.
    9000005    2    3    3    0    0 -0.41855967167E+02  0.14887063289E+02  0.20496479229E+03  0.21002328489E+03  0.11210150628E+02 0.  0.
         22    1    3    3    0    0  0.41855967167E+02 -0.14887063289E+02  0.22580756124E+03  0.23013604967E+03  0.00000000000E+00 0.  1.
         22    1    4    4    0    0 -0.50703296250E+01  0.23892161522E+01  0.12845474807E+02  0.14015092555E+02  0.00000000000E+00 0.  1.
         22    1    4    4    0    0 -0.36785637542E+02  0.12497847137E+02  0.19211931749E+03  0.19600819234E+03  0.00000000000E+00 0.  1.
<mgrwt>
<rscale>  0 0.90418025E+02</rscale>
<asrwt>0</asrwt>
<pdfrwt beam="1">  1        1 0.66994747E-01 0.90418025E+02</pdfrwt>
<pdfrwt beam="2">  1       -1 0.72207544E-03 0.90418025E+02</pdfrwt>
<totfact> 0.13976301E+05</totfact>
</mgrwt>
</event>
<event>
 7    1  0.3607059E-009  0.8845020E+02  0.7818608E-02  0.1306649E+00
         -1   -1    0    0    0  501 -0.00000000000E+00  0.00000000000E+00  0.33564660612E+02  0.33564660990E+02  0.50400000000E-02 0.  1.
          1   -1    0    0  501    0  0.00000000000E+00 -0.00000000000E+00 -0.58271391795E+02  0.58271392013E+02  0.50400000000E-02 0. -1.
         23    2    1    2    0    0  0.00000000000E+00  0.00000000000E+00 -0.24706731183E+02  0.91836053003E+02  0.88450201048E+02 0.  0.
    9000005    2    3    3    0    0  0.96425975974E+01  0.40703569198E+02 -0.25715345694E+02  0.49993759362E+02  0.93987625310E+01 0.  0.
         22    1    3    3    0    0 -0.96425975974E+01 -0.40703569198E+02  0.10086145107E+01  0.41842293641E+02  0.00000000000E+00 0. -1.
         22    1    4    4    0    0  0.66191459683E+01  0.33801335828E+02 -0.16804986403E+02  0.38324286883E+02  0.00000000000E+00 0. -1.
         22    1    4    4    0    0  0.30234516291E+01  0.69022333706E+01 -0.89103592904E+01  0.11669472479E+02  0.00000000000E+00 0. -1.
<mgrwt>
<rscale>  0 0.88450201E+02</rscale>
<asrwt>0</asrwt>
<pdfrwt beam="2">  1        1 0.89648296E-02 0.88450201E+02</pdfrwt>
<pdfrwt beam="1">  1       -1 0.51637940E-02 0.88450201E+02</pdfrwt>
<totfact> 0.10435915E+05</totfact>
</mgrwt>
</event>
<event>
 7    1  0.3607059E-009  0.9157949E+02  0.7818608E-02  0.1299071E+00
         -1   -1    0    0    0  501 -0.00000000000E+00  0.00000000000E+00  0.12800667202E+03  0.12800667212E+03  0.50400000000E-02 0.  1.
          1   -1    0    0  501    0  0.00000000000E+00 -0.00000000000E+00 -0.16379621638E+02  0.16379622414E+02  0.50400000000E-02 0. -1.
         23    2    1    2    0    0  0.00000000000E+00  0.00000000000E+00  0.11162705038E+03  0.14438629453E+03  0.91579493730E+02 0.  0.
    9000005    2    3    3    0    0 -0.36815751429E+02  0.35952444557E+01  0.17529499367E+02  0.43279052245E+02  0.14052319353E+02 0.  0.
         22    1    3    3    0    0  0.36815751429E+02 -0.35952444557E+01  0.94097551013E+02  0.10110724229E+03  0.00000000000E+00 0.  1.
         22    1    4    4    0    0 -0.10709511882E+02  0.13150174617E+01 -0.14990073879E+01  0.10893573281E+02  0.00000000000E+00 0.  1.
         22    1    4    4    0    0 -0.26106239547E+02  0.22802269940E+01  0.19028506754E+02  0.32385478964E+02  0.00000000000E+00 0.  1.
<mgrwt>
<rscale>  0 0.91579494E+02</rscale>
<asrwt>0</asrwt>
<pdfrwt beam="2">  1        1 0.25199419E-02 0.91579494E+02</pdfrwt>
<pdfrwt beam="1">  1       -1 0.19693334E-01 0.91579494E+02</pdfrwt>
<totfact> 0.76600326E+04</totfact>
</mgrwt>
</event>
<event>
 7    1  0.3607059E-009  0.9076567E+02  0.7818608E-02  0.1301008E+00
          1   -1    0    0  501    0  0.00000000000E+00  0.00000000000E+00  0.16992524170E+04  0.16992524170E+04  0.50400000000E-02 0. -1.
         -1   -1    0    0    0  501 -0.00000000000E+00 -0.00000000000E+00 -0.12120583084E+01  0.12120687871E+01  0.50400000000E-02 0.  1.
         23    2    1    2    0    0  0.00000000000E+00  0.00000000000E+00  0.16980403586E+04  0.17004644857E+04  0.90765674695E+02 0.  0.
    9000005    2    3    3    0    0  0.11639696823E+02 -0.16000737048E+02  0.16111648965E+04  0.16113642498E+04  0.15840315639E+02 0.  0.
         22    1    3    3    0    0 -0.11639696823E+02  0.16000737048E+02  0.86875462158E+02  0.89100235990E+02  0.00000000000E+00 0.  1.
         22    1    4    4    0    0  0.73770461839E+01 -0.18269376785E+02  0.14271999967E+04  0.14273359876E+04  0.00000000000E+00 0. -1.
         22    1    4    4    0    0  0.42626506395E+01  0.22686397372E+01  0.18396489976E+03  0.18402826212E+03  0.00000000000E+00 0. -1.
<mgrwt>
<rscale>  0 0.90765675E+02</rscale>
<asrwt>0</asrwt>
<pdfrwt beam="1">  1        1 0.26142427E+00 0.90765675E+02</pdfrwt>
<pdfrwt beam="2">  1       -1 0.18647073E-03 0.90765675E+02</pdfrwt>
<totfact> 0.99429232E+04</totfact>
</mgrwt>
</event>
<event>
 7    1  0.3607059E-009  0.8934777E+02  0.7818608E-02  0.1304439E+00
         -1   -1    0    0    0  501 -0.00000000000E+00  0.00000000000E+00  0.35874378822E+03  0.35874378826E+03  0.50400000000E-02 0.  1.
          1   -1    0    0  501    0  0.00000000000E+00 -0.00000000000E+00 -0.55631781464E+01  0.55631804294E+01  0.50400000000E-02 0. -1.
         23    2    1    2    0    0 -0.71054273576E-14 -0.17763568394E-14  0.35318061007E+03  0.36430696869E+03  0.89347770539E+02 0.  0.
    9000005    2    3    3    0    0  0.42236688745E+02  0.13238933118E+02  0.15720335757E+03  0.16339332871E+03  0.50276248507E+01 0.  0.
         22    1    3    3    0    0 -0.42236688745E+02 -0.13238933118E+02  0.19597725251E+03  0.20091363997E+03  0.00000000000E+00 0.  1.
         22    1    4    4    0    0  0.42540117627E+01  0.64133405333E+00  0.20842801403E+02  0.21282159096E+02  0.00000000000E+00 0. -1.
         22    1    4    4    0    0  0.37982676982E+02  0.12597599065E+02  0.13636055616E+03  0.14211116962E+03  0.00000000000E+00 0. -1.
<mgrwt>
<rscale>  0 0.89347771E+02</rscale>
<asrwt>0</asrwt>
<pdfrwt beam="2">  1        1 0.85587378E-03 0.89347771E+02</pdfrwt>
<pdfrwt beam="1">  1       -1 0.55191350E-01 0.89347771E+02</pdfrwt>
<totfact> 0.59212153E+04</totfact>
</mgrwt>
</event>
<event>
 7    1  0.3607059E-009  0.8984485E+02  0.7818608E-02  0.1303228E+00
          1   -1    0    0  501    0  0.00000000000E+00  0.00000000000E+00  0.14169092010E+02  0.14169092906E+02  0.50400000000E-02 0. -1.
         -1   -1    0    0    0  501 -0.00000000000E+00 -0.00000000000E+00 -0.14242439249E+03  0.14242439258E+03  0.50400000000E-02 0.  1.
         23    2    1    2    0    0 -0.11102230246E-15  0.00000000000E+00 -0.12825530048E+03  0.15659348548E+03  0.89844852915E+02 0.  0.
    9000005    2    3    3    0    0  0.66774862132E+00 -0.21919236811E+02 -0.32858913594E+00  0.26800795761E+02  0.15403760969E+02 0.  0.
         22    1    3    3    0    0 -0.66774862132E+00  0.21919236811E+02 -0.12792671134E+03  0.12979268972E+03  0.00000000000E+00 0.  1.
         22    1    4    4    0    0 -0.63948363064E+01 -0.49863601764E+01  0.18725214085E+01  0.83225029660E+01  0.00000000000E+00 0.  1.
         22    1    4    4    0    0  0.70625849277E+01 -0.16932876635E+02 -0.22011105445E+01  0.18478292795E+02  0.00000000000E+00 0.  1.
<mgrwt>
<rscale>  0 0.89844853E+02</rscale>
<asrwt>0</asrwt>
<pdfrwt beam="1">  1        1 0.21798605E-02 0.89844853E+02</pdfrwt>
<pdfrwt beam="2">  1       -1 0.21911444E-01 0.89844853E+02</pdfrwt>
<totfact> 0.78627716E+04</totfact>
</mgrwt>
</event>
<event>
 7    1  0.3607059E-009  0.9136338E+02  0.7818608E-02  0.1299583E+00
          1   -1    0    0  501    0  0.00000000000E+00  0.00000000000E+00  0.31444645080E+02  0.31444645484E+02  0.50400000000E-02 0. -1.
         -1   -1    0    0    0  501 -0.00000000000E+00 -0.00000000000E+00 -0.66364776850E+02  0.66364777042E+02  0.50400000000E-02 0.  1.
         23    2    1    2    0    0  0.00000000000E+00  0.00000000000E+00 -0.34920131771E+02  0.97809422526E+02  0.91363381789E+02 0.  0.
    9000005    2    3    3    0    0  0.24478331304E+02  0.49581675867E+01 -0.57998523215E+02  0.63803771805E+02  0.91280048303E+01 0.  0.
         22    1    3    3    0    0 -0.24478331304E+02 -0.49581675867E+01  0.23078391445E+02  0.34005650720E+02  0.00000000000E+00 0. -1.
         22    1    4    4    0    0  0.20657321906E+02  0.19493504732E+01 -0.52562748682E+02  0.56509888202E+02  0.00000000000E+00 0.  1.
         22    1    4    4    0    0  0.38210093976E+01  0.30088171135E+01 -0.54357745332E+01  0.72938836031E+01  0.00000000000E+00 0.  1.
<mgrwt>
<rscale>  0 0.91363382E+02</rscale>
<asrwt>0</asrwt>
<pdfrwt beam="1">  1        1 0.48376378E-02 0.91363382E+02</pdfrwt>
<pdfrwt beam="2">  1       -1 0.10209966E-01 0.91363382E+02</pdfrwt>
<totfact> 0.86830177E+04</totfact>
</mgrwt>
</event>
<event>
 7    1  0.3607059E-009  0.9398433E+02  0.7818608E-02  0.1293480E+00
         -1   -1    0    0    0  501 -0.00000000000E+00  0.00000000000E+00  0.24430887431E+03  0.24430887436E+03  0.50400000000E-02 0.  1.
          1   -1    0    0  501    0  0.00000000000E+00 -0.00000000000E+00 -0.90388186735E+01  0.90388200786E+01  0.50400000000E-02 0. -1.
         23    2    1    2    0    0  0.00000000000E+00  0.00000000000E+00  0.23527005564E+03  0.25334769444E+03  0.93984334861E+02 0.  0.
    9000005    2    3    3    0    0 -0.11501623756E+02 -0.30134625587E+02  0.20839154926E+03  0.21136154061E+03  0.14362452359E+02 0.  0.
         22    1    3    3    0    0  0.11501623756E+02  0.30134625587E+02  0.26878506372E+02  0.41986153826E+02  0.00000000000E+00 0. -1.
         22    1    4    4    0    0 -0.11268715194E+02 -0.29196228350E+02  0.20796193951E+03  0.21030352345E+03  0.00000000000E+00 0.  1.
         22    1    4    4    0    0 -0.23290856253E+00 -0.93839723700E+00  0.42960975452E+00  0.10580171615E+01  0.00000000000E+00 0.  1.
<mgrwt>
<rscale>  0 0.93984335E+02</rscale>
<asrwt>0</asrwt>
<pdfrwt beam="2">  1        1 0.13905878E-02 0.93984335E+02</pdfrwt>
<pdfrwt beam="1">  1       -1 0.37585975E-01 0.93984335E+02</pdfrwt>
<totfact> 0.60291617E+04</totfact>
</mgrwt>
</event>
<event>
 7    1  0.3607059E-009  0.8744711E+02  0.7818608E-02  0.1309154E+00
         -1   -1    0    0    0  501 -0.00000000000E+00  0.00000000000E+00  0.16060795543E+02  0.16060796334E+02  0.50400000000E-02 0.  1.
          1   -1    0    0  501    0  0.00000000000E+00 -0.00000000000E+00 -0.11903202800E+03  0.11903202810E+03  0.50400000000E-02 0. -1.
         23    2    1    2    0    0  0.00000000000E+00  0.00000000000E+00 -0.10297123245E+03  0.13509282444E+03  0.87447106879E+02 0.  0.
    9000005    2    3    3    0    0  0.28816610233E+02  0.45569329306E+01 -0.10064761654E+03  0.10582574645E+03  0.14764255251E+02 0.  0.
         22    1    3    3    0    0 -0.28816610233E+02 -0.45569329306E+01 -0.23236159122E+01  0.29267077988E+02  0.00000000000E+00 0.  1.
         22    1    4    4    0    0  0.13545740343E+02  0.65276851369E+01 -0.69151061487E+02  0.70766991313E+02  0.00000000000E+00 0.  1.
         22    1    4    4    0    0  0.15270869890E+02 -0.19707522063E+01 -0.31496555055E+02  0.35058755137E+02  0.00000000000E+00 0.  1.
<mgrwt>
<rscale>  0 0.87447107E+02</rscale>
<asrwt>0</asrwt>
<pdfrwt beam="2">  1        1 0.18312619E-01 0.87447107E+02</pdfrwt>
<pdfrwt beam="1">  1       -1 0.24708918E-02 0.87447107E+02</pdfrwt>
<totfact> 0.12044893E+05</totfact>
</mgrwt>
</event>
<event>
 7    1  0.3607059E-009  0.9135494E+02  0.7818608E-02  0.1299603E+00
          1   -1    0    0  501    0  0.00000000000E+00  0.00000000000E+00  0.15519663209E+03  0.15519663218E+03  0.50400000000E-02 0. -1.
         -1   -1    0    0    0  501 -0.00000000000E+00 -0.00000000000E+00 -0.13443790667E+02  0.13443791612E+02  0.50400000000E-02 0.  1.
         23    2    1    2    0    0  0.00000000000E+00  0.00000000000E+00  0.14175284143E+03  0.16864042379E+03  0.91354936827E+02 0.  0.
    9000005    2    3    3    0    0  0.53029041006E+01 -0.41584404492E+02  0.10137408789E+03  0.11043537911E+03  0.12723355485E+02 0.  0.
         22    1    3    3    0    0 -0.53029041006E+01  0.41584404492E+02  0.40378753541E+02  0.58205044681E+02  0.00000000000E+00 0.  1.
         22    1    4    4    0    0  0.69989141281E+01 -0.10509770072E+02  0.26666267391E+02  0.29504743390E+02  0.00000000000E+00 0.  1.
         22    1    4    4    0    0 -0.16960100276E+01 -0.31074634420E+02  0.74707820494E+02  0.80930635716E+02  0.00000000000E+00 0.  1.
<mgrwt>
<rscale>  0 0.91354937E+02</rscale>
<asrwt>0</asrwt>
<pdfrwt beam="1">  1        1 0.23876405E-01 0.91354937E+02</pdfrwt>
<pdfrwt beam="2">  1       -1 0.20682756E-02 0.91354937E+02</pdfrwt>
<totfact> 0.11224695E+05</totfact>
</mgrwt>
</event>
<event>
 7    1  0.3607059E-009  0.9023349E+02  0.7818608E-02  0.1302287E+00
         -1   -1    0    0    0  501 -0.00000000000E+00  0.00000000000E+00  0.35155620252E+02  0.35155620613E+02  0.50400000000E-02 0.  1.
          1   -1    0    0  501    0  0.00000000000E+00 -0.00000000000E+00 -0.57900296091E+02  0.57900296310E+02  0.50400000000E-02 0. -1.
         23    2    1    2    0    0  0.00000000000E+00  0.00000000000E+00 -0.22744675839E+02  0.93055916923E+02  0.90233493756E+02 0.  0.
    9000005    2    3    3    0    0 -0.39114688719E+02  0.87344535024E+01 -0.31189681629E+02  0.52097795942E+02  0.11624738719E+02 0.  0.
         22    1    3    3    0    0  0.39114688719E+02 -0.87344535024E+01  0.84450057901E+01  0.40958120982E+02  0.00000000000E+00 0.  1.
         22    1    4    4    0    0 -0.61889342008E+01  0.18571078151E+00 -0.10767915820E+02  0.12421167664E+02  0.00000000000E+00 0. -1.
         22    1    4    4    0    0 -0.32925754518E+02  0.85487427209E+01 -0.20421765809E+02  0.39676628277E+02  0.00000000000E+00 0. -1.
<mgrwt>
<rscale>  0 0.90233494E+02</rscale>
<asrwt>0</asrwt>
<pdfrwt beam="2">  1        1 0.89077379E-02 0.90233494E+02</pdfrwt>
<pdfrwt beam="1">  1       -1 0.54085570E-02 0.90233494E+02</pdfrwt>
<totfact> 0.98659156E+04</totfact>
</mgrwt>
</event>
<event>
 7    1  0.3607059E-009  0.8864768E+02  0.7818608E-02  0.1306160E+00
          1   -1    0    0  501    0  0.00000000000E+00  0.00000000000E+00  0.34485286569E+02  0.34485286937E+02  0.50400000000E-02 0. -1.
         -1   -1    0    0    0  501 -0.00000000000E+00 -0.00000000000E+00 -0.56969299344E+02  0.56969299567E+02  0.50400000000E-02 0.  1.
         23    2    1    2    0    0  0.00000000000E+00  0.35527136788E-14 -0.22484012775E+02  0.91454586505E+02  0.88647676576E+02 0.  0.
    9000005    2    3    3    0    0 -0.12362547741E+02  0.17130072116E+02 -0.50189531575E+02  0.56613981899E+02  0.15488121561E+02 0.  0.
         22    1    3    3    0    0  0.12362547741E+02 -0.17130072116E+02  0.27705518799E+02  0.34840604605E+02  0.00000000000E+00 0. -1.
         22    1    4    4    0    0 -0.94238759656E+01  0.94694977272E+01 -0.44915463012E+02  0.46860213860E+02  0.00000000000E+00 0. -1.
         22    1    4    4    0    0 -0.29386717753E+01  0.76605743886E+01 -0.52740685627E+01  0.97537680396E+01  0.00000000000E+00 0. -1.
<mgrwt>
<rscale>  0 0.88647677E+02</rscale>
<asrwt>0</asrwt>
<pdfrwt beam="1">  1        1 0.53054288E-02 0.88647677E+02</pdfrwt>
<pdfrwt beam="2">  1       -1 0.87645076E-02 0.88647677E+02</pdfrwt>
<totfact> 0.95983909E+04</totfact>
</mgrwt>
</event>
<event>
 7    1  0.3607059E-009  0.9014505E+02  0.7818608E-02  0.1302501E+00
         -1   -1    0    0    0  501 -0.00000000000E+00  0.00000000000E+00  0.80063221218E+01  0.80063237081E+01  0.50400000000E-02 0.  1.
          1   -1    0    0  501    0  0.00000000000E+00 -0.00000000000E+00 -0.25374100657E+03  0.25374100662E+03  0.50400000000E-02 0. -1.
         23    2    1    2    0    0  0.00000000000E+00  0.00000000000E+00 -0.24573468444E+03  0.26174733032E+03  0.90145048632E+02 0.  0.
    9000005    2    3    3    0    0 -0.67293354738E+01  0.32911745587E+02 -0.43676985935E+02  0.56916227997E+02  0.14258715076E+02 0.  0.
         22    1    3    3    0    0  0.67293354738E+01 -0.32911745587E+02 -0.20205769851E+03  0.20483110233E+03  0.00000000000E+00 0. -1.
         22    1    4    4    0    0 -0.10188167321E+02  0.27233234946E+02 -0.39558519452E+02  0.49095053724E+02  0.00000000000E+00 0. -1.
         22    1    4    4    0    0  0.34588318468E+01  0.56785106402E+01 -0.41184664832E+01  0.78211742730E+01  0.00000000000E+00 0. -1.
<mgrwt>
<rscale>  0 0.90145049E+02</rscale>
<asrwt>0</asrwt>
<pdfrwt beam="2">  1        1 0.39037072E-01 0.90145049E+02</pdfrwt>
<pdfrwt beam="1">  1       -1 0.12317422E-02 0.90145049E+02</pdfrwt>
<totfact> 0.12785166E+05</totfact>
</mgrwt>
</event>
<event>
 7    1  0.3607059E-009  0.9196728E+02  0.7818608E-02  0.1298156E+00
          1   -1    0    0  501    0  0.00000000000E+00  0.00000000000E+00  0.12049599634E+03  0.12049599644E+03  0.50400000000E-02 0. -1.
         -1   -1    0    0    0  501 -0.00000000000E+00 -0.00000000000E+00 -0.17548261599E+02  0.17548262323E+02  0.50400000000E-02 0.  1.
         23    2    1    2    0    0  0.00000000000E+00  0.00000000000E+00  0.10294773474E+03  0.13804425876E+03  0.91967283805E+02 0.  0.
    9000005    2    3    3    0    0 -0.36379390980E+02 -0.23946145166E+02  0.29763102147E+02  0.52880484755E+02  0.36912683614E+01 0.  0.
         22    1    3    3    0    0  0.36379390980E+02  0.23946145166E+02  0.73184632590E+02  0.85163774010E+02  0.00000000000E+00 0. -1.
         22    1    4    4    0    0 -0.22781657834E+01 -0.96229734377E+00  0.26420957580E+01  0.36189398322E+01  0.00000000000E+00 0. -1.
         22    1    4    4    0    0 -0.34101225196E+02 -0.22983847822E+02  0.27121006389E+02  0.49261544922E+02  0.00000000000E+00 0. -1.
<mgrwt>
<rscale>  0 0.91967284E+02</rscale>
<asrwt>0</asrwt>
<pdfrwt beam="1">  1        1 0.18537845E-01 0.91967284E+02</pdfrwt>
<pdfrwt beam="2">  1       -1 0.26997327E-02 0.91967284E+02</pdfrwt>
<totfact> 0.10531799E+05</totfact>
</mgrwt>
</event>
<event>
 7    1  0.4812126E-009  0.9059991E+02  0.7818608E-02  0.1301405E+00
          1   -1    0    0  501    0  0.00000000000E+00  0.00000000000E+00  0.19310299970E+03  0.19310299977E+03  0.50400000000E-02 0. -1.
         -1   -1    0    0    0  501 -0.00000000000E+00 -0.00000000000E+00 -0.10626898140E+02  0.10626899335E+02  0.50400000000E-02 0.  1.
         23    2    1    2    0    0  0.00000000000E+00  0.44408920985E-15  0.18247610156E+03  0.20372989910E+03  0.90599912510E+02 0.  0.
    9000005    2    3    3    0    0  0.26946426251E+02 -0.27688624986E+01  0.17190994070E+03  0.17465378790E+03  0.14735719519E+02 0.  0.
         22    1    3    3    0    0 -0.26946426251E+02  0.27688624986E+01  0.10566160863E+02  0.29076111202E+02  0.00000000000E+00 0.  1.
         22    1    4    4    0    0  0.15588824808E+02 -0.38611748399E+01  0.58275467577E+02  0.60447913540E+02  0.00000000000E+00 0. -1.
         22    1    4    4    0    0  0.11357601443E+02  0.10923123414E+01  0.11363447312E+03  0.11420587436E+03  0.00000000000E+00 0. -1.
<mgrwt>
<rscale>  0 0.90599913E+02</rscale>
<asrwt>0</asrwt>
<pdfrwt beam="1">  1        1 0.29708152E-01 0.90599913E+02</pdfrwt>
<pdfrwt beam="2">  1       -1 0.16349076E-02 0.90599913E+02</pdfrwt>
<totfact> 0.11962333E+05</totfact>
</mgrwt>
</event>
<event>
 7    1  0.3607059E-009  0.9121130E+02  0.7818608E-02  0.1299945E+00
          1   -1    0    0  501    0  0.00000000000E+00  0.00000000000E+00  0.84457494150E+03  0.84457494152E+03  0.50400000000E-02 0. -1.
         -1   -1    0    0    0  501 -0.00000000000E+00 -0.00000000000E+00 -0.24626272310E+01  0.24626323884E+01  0.50400000000E-02 0.  1.
         23    2    1    2    0    0  0.00000000000E+00  0.00000000000E+00  0.84211231427E+03  0.84703757391E+03  0.91211302813E+02 0.  0.
    9000005    2    3    3    0    0  0.11551001141E+01 -0.12764469828E+02  0.82690990672E+03  0.82715343093E+03  0.15444692745E+02 0.  0.
         22    1    3    3    0    0 -0.11551001141E+01  0.12764469828E+02  0.15202407557E+02  0.19884142974E+02  0.00000000000E+00 0.  1.
         22    1    4    4    0    0  0.32496628416E+01 -0.47978364733E+01  0.67176807782E+03  0.67179307076E+03  0.00000000000E+00 0. -1.
         22    1    4    4    0    0 -0.20945627275E+01 -0.79666333552E+01  0.15514182889E+03  0.15536036017E+03  0.00000000000E+00 0. -1.
<mgrwt>
<rscale>  0 0.91211303E+02</rscale>
<asrwt>0</asrwt>
<pdfrwt beam="1">  1        1 0.12993467E+00 0.91211303E+02</pdfrwt>
<pdfrwt beam="2">  1       -1 0.37886593E-03 0.91211303E+02</pdfrwt>
<totfact> 0.14035224E+05</totfact>
</mgrwt>
</event>
<event>
 7    1  0.3607059E-009  0.8816895E+02  0.7818608E-02  0.1307347E+00
         -1   -1    0    0    0  501 -0.00000000000E+00  0.00000000000E+00  0.12170877389E+02  0.12170878432E+02  0.50400000000E-02 0.  1.
          1   -1    0    0  501    0  0.00000000000E+00 -0.00000000000E+00 -0.15967959894E+03  0.15967959902E+03  0.50400000000E-02 0. -1.
         23    2    1    2    0    0  0.00000000000E+00  0.00000000000E+00 -0.14750872155E+03  0.17185047745E+03  0.88168949562E+02 0.  0.
    9000005    2    3    3    0    0 -0.36614404044E+02 -0.12161750928E+02 -0.11195149679E+03  0.11938297321E+03  0.15186635210E+02 0.  0.
         22    1    3    3    0    0  0.36614404044E+02  0.12161750928E+02 -0.35557224764E+02  0.52467504248E+02  0.00000000000E+00 0.  1.
         22    1    4    4    0    0 -0.11384959534E+02 -0.87425205462E+01 -0.25524865612E+02  0.29284257437E+02  0.00000000000E+00 0. -1.
         22    1    4    4    0    0 -0.25229444510E+02 -0.34192303817E+01 -0.86426631176E+02  0.90098715769E+02  0.00000000000E+00 0. -1.
<mgrwt>
<rscale>  0 0.88168950E+02</rscale>
<asrwt>0</asrwt>
<pdfrwt beam="2">  1        1 0.24566091E-01 0.88168950E+02</pdfrwt>
<pdfrwt beam="1">  1       -1 0.18724429E-02 0.88168950E+02</pdfrwt>
<totfact> 0.12413626E+05</totfact>
</mgrwt>
</event>
<event>
 7    1  0.3607059E-009  0.1047720E+03  0.7818608E-02  0.1270569E+00
          1   -1    0    0  501    0  0.00000000000E+00  0.00000000000E+00  0.34586235602E+03  0.34586235606E+03  0.50400000000E-02 0. -1.
         -1   -1    0    0    0  501 -0.00000000000E+00 -0.00000000000E+00 -0.79346421642E+01  0.79346437649E+01  0.50400000000E-02 0.  1.
         23    2    1    2    0    0  0.00000000000E+00  0.00000000000E+00  0.33792771386E+03  0.35379699982E+03  0.10477202533E+03 0.  0.
    9000005    2    3    3    0    0  0.23844439876E+02 -0.27590834085E+02  0.29469932025E+03  0.29724166893E+03  0.13232873991E+02 0.  0.
         22    1    3    3    0    0 -0.23844439876E+02  0.27590834085E+02  0.43228393606E+02  0.56555330892E+02  0.00000000000E+00 0.  1.
         22    1    4    4    0    0  0.23508144914E+02 -0.19607592018E+02  0.22088315095E+03  0.22299429795E+03  0.00000000000E+00 0. -1.
         22    1    4    4    0    0  0.33629496245E+00 -0.79832420666E+01  0.73816169300E+02  0.74247370986E+02  0.00000000000E+00 0. -1.
<mgrwt>
<rscale>  0 0.10477203E+03</rscale>
<asrwt>0</asrwt>
<pdfrwt beam="1">  1        1 0.53209592E-01 0.10477203E+03</pdfrwt>
<pdfrwt beam="2">  1       -1 0.12207143E-02 0.10477203E+03</pdfrwt>
<totfact> 0.90650642E+04</totfact>
</mgrwt>
</event>
<event>
 7    1  0.3607059E-009  0.9194643E+02  0.7818608E-02  0.1298205E+00
         -1   -1    0    0    0  501 -0.00000000000E+00  0.00000000000E+00  0.15387207018E+04  0.15387207018E+04  0.50400000000E-02 0.  1.
          1   -1    0    0  501    0  0.00000000000E+00 -0.00000000000E+00 -0.13735626358E+01  0.13735718824E+01  0.50400000000E-02 0. -1.
         23    2    1    2    0    0 -0.35527136788E-14  0.00000000000E+00  0.15373471392E+04  0.15400942737E+04  0.91946427655E+02 0.  0.
    9000005    2    3    3    0    0  0.22564615456E+02 -0.12272003833E+02  0.14024959855E+04  0.14028186473E+04  0.15665375880E+02 0.  0.
         22    1    3    3    0    0 -0.22564615456E+02  0.12272003833E+02  0.13485115373E+03  0.13727562643E+03  0.00000000000E+00 0. -1.
         22    1    4    4    0    0  0.52066047703E+01 -0.34892865127E+01  0.11144492707E+03  0.11162103576E+03  0.00000000000E+00 0. -1.
         22    1    4    4    0    0  0.17358010685E+02 -0.87827173205E+01  0.12910510584E+04  0.12911976115E+04  0.00000000000E+00 0. -1.
<mgrwt>
<rscale>  0 0.91946428E+02</rscale>
<asrwt>0</asrwt>
<pdfrwt beam="2">  1        1 0.21131830E-03 0.91946428E+02</pdfrwt>
<pdfrwt beam="1">  1       -1 0.23672597E+00 0.91946428E+02</pdfrwt>
<totfact> 0.12833432E+04</totfact>
</mgrwt>
</event>
<event>
 7    1  0.4489042E-009  0.8879709E+02  0.7818608E-02  0.1305791E+00
         -1   -1    0    0    0  501 -0.00000000000E+00  0.00000000000E+00  0.15658870233E+03  0.15658870241E+03  0.50400000000E-02 0.  1.
          1   -1    0    0  501    0  0.00000000000E+00 -0.00000000000E+00 -0.12588589640E+02  0.12588590649E+02  0.50400000000E-02 0. -1.
         23    2    1    2    0    0  0.00000000000E+00  0.00000000000E+00  0.14400011269E+03  0.16917729306E+03  0.88797094731E+02 0.  0.
    9000005    2    3    3    0    0 -0.25662253058E+02 -0.21221254748E+02  0.22615977995E+02  0.43308309428E+02  0.15976054573E+02 0.  0.
         22    1    3    3    0    0  0.25662253058E+02  0.21221254748E+02  0.12138413470E+03  0.12586898363E+03  0.00000000000E+00 0.  1.
         22    1    4    4    0    0 -0.26728132771E+01 -0.30529692692E+00  0.89690117647E+01  0.93637764317E+01  0.00000000000E+00 0. -1.
         22    1    4    4    0    0 -0.22989439781E+02 -0.20915957821E+02  0.13646966231E+02  0.33944532996E+02  0.00000000000E+00 0. -1.
<mgrwt>
<rscale>  0 0.88797095E+02</rscale>
<asrwt>0</asrwt>
<pdfrwt beam="2">  1        1 0.19367062E-02 0.88797095E+02</pdfrwt>
<pdfrwt beam="1">  1       -1 0.24090570E-01 0.88797095E+02</pdfrwt>
<totfact> 0.79284421E+04</totfact>
</mgrwt>
</event>
<event>
 7    1  0.3607059E-009  0.1005495E+03  0.7818608E-02  0.1279145E+00
          1   -1    0    0  501    0  0.00000000000E+00  0.00000000000E+00  0.19009264908E+03  0.19009264915E+03  0.50400000000E-02 0. -1.
         -1   -1    0    0    0  501 -0.00000000000E+00 -0.00000000000E+00 -0.13296412526E+02  0.13296413482E+02  0.50400000000E-02 0.  1.
         23    2    1    2    0    0  0.00000000000E+00  0.00000000000E+00  0.17679623655E+03  0.20338906263E+03  0.10054949795E+03 0.  0.
    9000005    2    3    3    0    0 -0.33006244584E+02  0.20489326742E+01  0.16478716606E+03  0.16820628160E+03  0.67031906448E+01 0.  0.
         22    1    3    3    0    0  0.33006244584E+02 -0.20489326742E+01  0.12009070490E+02  0.35182781025E+02  0.00000000000E+00 0.  1.
         22    1    4    4    0    0 -0.25807867673E+02  0.27513701501E+01  0.11471051187E+03  0.11761002341E+03  0.00000000000E+00 0. -1.
         22    1    4    4    0    0 -0.71983769108E+01 -0.70243747587E+00  0.50076654191E+02  0.50596258196E+02  0.00000000000E+00 0. -1.
<mgrwt>
<rscale>  0 0.10054950E+03</rscale>
<asrwt>0</asrwt>
<pdfrwt beam="1">  1        1 0.29245021E-01 0.10054950E+03</pdfrwt>
<pdfrwt beam="2">  1       -1 0.20456021E-02 0.10054950E+03</pdfrwt>
<totfact> 0.90020933E+04</totfact>
</mgrwt>
</event>
<event>
 7    1  0.3607059E-009  0.9204513E+02  0.7818608E-02  0.1297973E+00
         -1   -1    0    0    0  501 -0.00000000000E+00  0.00000000000E+00  0.15792804136E+03  0.15792804144E+03  0.50400000000E-02 0.  1.
          1   -1    0    0  501    0  0.00000000000E+00 -0.00000000000E+00 -0.13411654565E+02  0.13411655512E+02  0.50400000000E-02 0. -1.
         23    2    1    2    0    0  0.00000000000E+00 -0.35527136788E-14  0.14451638679E+03  0.17133969695E+03  0.92045128604E+02 0.  0.
    9000005    2    3    3    0    0 -0.10378954707E+02 -0.24306786921E+02  0.14211963019E+03  0.14480129019E+03  0.84191308922E+01 0.  0.
         22    1    3    3    0    0  0.10378954707E+02  0.24306786921E+02  0.23967566073E+01  0.26538406763E+02  0.00000000000E+00 0. -1.
         22    1    4    4    0    0 -0.49660219871E+01 -0.51286369002E+01  0.25034646793E+02  0.26032630118E+02  0.00000000000E+00 0. -1.
         22    1    4    4    0    0 -0.54129327204E+01 -0.19178150021E+02  0.11708498339E+03  0.11876866007E+03  0.00000000000E+00 0. -1.
<mgrwt>
<rscale>  0 0.92045129E+02</rscale>
<asrwt>0</asrwt>
<pdfrwt beam="2">  1        1 0.20633316E-02 0.92045129E+02</pdfrwt>
<pdfrwt beam="1">  1       -1 0.24296622E-01 0.92045129E+02</pdfrwt>
<totfact> 0.72078369E+04</totfact>
</mgrwt>
</event>
<event>
 7    1  0.3607059E-009  0.9544558E+02  0.7818608E-02  0.1290176E+00
          1   -1    0    0  501    0  0.00000000000E+00  0.00000000000E+00  0.50642676411E+02  0.50642676662E+02  0.50400000000E-02 0. -1.
         -1   -1    0    0    0  501 -0.00000000000E+00 -0.00000000000E+00 -0.44971252634E+02  0.44971252917E+02  0.50400000000E-02 0.  1.
         23    2    1    2    0    0  0.00000000000E+00  0.00000000000E+00  0.56714237771E+01  0.95613929579E+02  0.95445578640E+02 0.  0.
    9000005    2    3    3    0    0  0.28861672502E+02  0.88477413897E+01  0.39203521948E+02  0.50495415917E+02  0.10079297010E+02 0.  0.
         22    1    3    3    0    0 -0.28861672502E+02 -0.88477413897E+01 -0.33532098171E+02  0.45118513662E+02  0.00000000000E+00 0.  1.
         22    1    4    4    0    0  0.14944824561E+02  0.39427209820E+01  0.27946337294E+02  0.31935726045E+02  0.00000000000E+00 0.  1.
         22    1    4    4    0    0  0.13916847940E+02  0.49050204077E+01  0.11257184655E+02  0.18559689872E+02  0.00000000000E+00 0.  1.
<mgrwt>
<rscale>  0 0.95445579E+02</rscale>
<asrwt>0</asrwt>
<pdfrwt beam="1">  1        1 0.77911810E-02 0.95445579E+02</pdfrwt>
<pdfrwt beam="2">  1       -1 0.69186543E-02 0.95445579E+02</pdfrwt>
<totfact> 0.82623478E+04</totfact>
</mgrwt>
</event>
<event>
 7    1  0.3607059E-009  0.9421636E+02  0.7818608E-02  0.1292951E+00
         -1   -1    0    0    0  501 -0.00000000000E+00  0.00000000000E+00  0.25012007832E+02  0.25012008339E+02  0.50400000000E-02 0.  1.
          1   -1    0    0  501    0  0.00000000000E+00 -0.00000000000E+00 -0.88724612155E+02  0.88724612298E+02  0.50400000000E-02 0. -1.
         23    2    1    2    0    0  0.00000000000E+00  0.00000000000E+00 -0.63712604323E+02  0.11373662064E+03  0.94216362297E+02 0.  0.
    9000005    2    3    3    0    0  0.12743975214E+02 -0.42582316165E+02 -0.14829121462E+02  0.47666525656E+02  0.87482724275E+01 0.  0.
         22    1    3    3    0    0 -0.12743975214E+02  0.42582316165E+02 -0.48883482861E+02  0.66070094982E+02  0.00000000000E+00 0.  1.
         22    1    4    4    0    0  0.74526698120E+01 -0.33541316119E+02 -0.14181616157E+02  0.37170961935E+02  0.00000000000E+00 0. -1.
         22    1    4    4    0    0  0.52913054025E+01 -0.90410000460E+01 -0.64750530510E+00  0.10495563721E+02  0.00000000000E+00 0. -1.
<mgrwt>
<rscale>  0 0.94216362E+02</rscale>
<asrwt>0</asrwt>
<pdfrwt beam="2">  1        1 0.13649940E-01 0.94216362E+02</pdfrwt>
<pdfrwt beam="1">  1       -1 0.38480013E-02 0.94216362E+02</pdfrwt>
<totfact> 0.93608936E+04</totfact>
</mgrwt>
</event>
<event>
 7    1  0.3607059E-009  0.9260129E+02  0.7818608E-02  0.1296672E+00
          1   -1    0    0  501    0  0.00000000000E+00  0.00000000000E+00  0.10967362089E+03  0.10967362101E+03  0.50400000000E-02 0. -1.
         -1   -1    0    0    0  501 -0.00000000000E+00 -0.00000000000E+00 -0.19546628757E+02  0.19546629406E+02  0.50400000000E-02 0.  1.
         23    2    1    2    0    0  0.00000000000E+00  0.00000000000E+00  0.90126992138E+02  0.12922025042E+03  0.92601287281E+02 0.  0.
    9000005    2    3    3    0    0 -0.29790244462E+02 -0.30254779234E+02  0.68000725412E+02  0.81341424086E+02  0.13766563990E+02 0.  0.
         22    1    3    3    0    0  0.29790244462E+02  0.30254779234E+02  0.22126266726E+02  0.47878826331E+02  0.00000000000E+00 0.  1.
         22    1    4    4    0    0 -0.55415480793E+01 -0.11054114900E+02  0.11288570645E+02  0.16743178866E+02  0.00000000000E+00 0. -1.
         22    1    4    4    0    0 -0.24248696383E+02 -0.19200664335E+02  0.56712154767E+02  0.64598245220E+02  0.00000000000E+00 0. -1.
<mgrwt>
<rscale>  0 0.92601287E+02</rscale>
<asrwt>0</asrwt>
<pdfrwt beam="1">  1        1 0.16872865E-01 0.92601287E+02</pdfrwt>
<pdfrwt beam="2">  1       -1 0.30071737E-02 0.92601287E+02</pdfrwt>
<totfact> 0.10169945E+05</totfact>
</mgrwt>
</event>
<event>
 7    1  0.3607059E-009  0.8751227E+02  0.7818608E-02  0.1308990E+00
          1   -1    0    0  501    0  0.00000000000E+00  0.00000000000E+00  0.47617816752E+01  0.47617843424E+01  0.50400000000E-02 0. -1.
         -1   -1    0    0    0  501 -0.00000000000E+00 -0.00000000000E+00 -0.40207618069E+03  0.40207618072E+03  0.50400000000E-02 0.  1.
         23    2    1    2    0    0  0.00000000000E+00  0.00000000000E+00 -0.39731439902E+03  0.40683796506E+03  0.87512274298E+02 0.  0.
    9000005    2    3    3    0    0 -0.49764365112E+01 -0.41208216142E+02 -0.26287116950E+03  0.26613308256E+03  0.16382554374E+01 0.  0.
         22    1    3    3    0    0  0.49764365112E+01  0.41208216142E+02 -0.13444322952E+03  0.14070488250E+03  0.00000000000E+00 0. -1.
         22    1    4    4    0    0 -0.75387637354E+00 -0.71234066325E+01 -0.41583821340E+02  0.42196272927E+02  0.00000000000E+00 0. -1.
         22    1    4    4    0    0 -0.42225601377E+01 -0.34084809510E+02 -0.22128734816E+03  0.22393680963E+03  0.00000000000E+00 0. -1.
<mgrwt>
<rscale>  0 0.87512274E+02</rscale>
<asrwt>0</asrwt>
<pdfrwt beam="1">  1        1 0.73258232E-03 0.87512274E+02</pdfrwt>
<pdfrwt beam="2">  1       -1 0.61857847E-01 0.87512274E+02</pdfrwt>
<totfact> 0.59168821E+04</totfact>
</mgrwt>
</event>
<event>
 7    1  0.3607059E-009  0.9044149E+02  0.7818608E-02  0.1301786E+00
          1   -1    0    0  501    0  0.00000000000E+00  0.00000000000E+00  0.14464970736E+02  0.14464971614E+02  0.50400000000E-02 0. -1.
         -1   -1    0    0    0  501 -0.00000000000E+00 -0.00000000000E+00 -0.14137019126E+03  0.14137019135E+03  0.50400000000E-02 0.  1.
         23    2    1    2    0    0 -0.35527136788E-14  0.44408920985E-15 -0.12690522052E+03  0.15583516297E+03  0.90441489483E+02 0.  0.
    9000005    2    3    3    0    0  0.23378570185E+02 -0.32059986363E+01 -0.12957451423E+03  0.13208729780E+03  0.10033121691E+02 0.  0.
         22    1    3    3    0    0 -0.23378570185E+02  0.32059986363E+01  0.26692937038E+01  0.23747865167E+02  0.00000000000E+00 0. -1.
         22    1    4    4    0    0  0.23241330492E+02 -0.43336082492E+01 -0.11158991226E+03  0.11406685812E+03  0.00000000000E+00 0.  1.
         22    1    4    4    0    0  0.13723969286E+00  0.11276096129E+01 -0.17984601965E+02  0.18020439673E+02  0.00000000000E+00 0.  1.
<mgrwt>
<rscale>  0 0.90441489E+02</rscale>
<asrwt>0</asrwt>
<pdfrwt beam="1">  1        1 0.22253803E-02 0.90441489E+02</pdfrwt>
<pdfrwt beam="2">  1       -1 0.21749259E-01 0.90441489E+02</pdfrwt>
<totfact> 0.77421310E+04</totfact>
</mgrwt>
</event>
<event>
 7    1  0.3607059E-009  0.8897474E+02  0.7818608E-02  0.1305354E+00
          1   -1    0    0  501    0  0.00000000000E+00  0.00000000000E+00  0.12268786194E+02  0.12268787229E+02  0.50400000000E-02 0. -1.
         -1   -1    0    0    0  501 -0.00000000000E+00 -0.00000000000E+00 -0.16131390328E+03  0.16131390336E+03  0.50400000000E-02 0.  1.
         23    2    1    2    0    0  0.44408920985E-15  0.71054273576E-14 -0.14904511709E+03  0.17358269059E+03  0.88974735427E+02 0.  0.
    9000005    2    3    3    0    0 -0.25881455299E+01 -0.40576600251E+02 -0.10684522926E+03  0.11498243873E+03  0.12324739976E+02 0.  0.
         22    1    3    3    0    0  0.25881455299E+01  0.40576600251E+02 -0.42199887825E+02  0.58600251857E+02  0.00000000000E+00 0. -1.
         22    1    4    4    0    0 -0.65623625292E+01 -0.34915460416E+02 -0.91257858985E+02  0.97929315348E+02  0.00000000000E+00 0. -1.
         22    1    4    4    0    0  0.39742169993E+01 -0.56611398347E+01 -0.15587370276E+02  0.17053123382E+02  0.00000000000E+00 0. -1.
<mgrwt>
<rscale>  0 0.88974735E+02</rscale>
<asrwt>0</asrwt>
<pdfrwt beam="1">  1        1 0.18875058E-02 0.88974735E+02</pdfrwt>
<pdfrwt beam="2">  1       -1 0.24817522E-01 0.88974735E+02</pdfrwt>
<totfact> 0.78308659E+04</totfact>
</mgrwt>
</event>
<event>
 7    1  0.3607059E-009  0.9112665E+02  0.7818608E-02  0.1300146E+00
         -1   -1    0    0    0  501 -0.00000000000E+00  0.00000000000E+00  0.50753069178E+02  0.50753069428E+02  0.50400000000E-02 0.  1.
          1   -1    0    0  501    0  0.00000000000E+00 -0.00000000000E+00 -0.40904258675E+02  0.40904258985E+02  0.50400000000E-02 0. -1.
         23    2    1    2    0    0  0.00000000000E+00  0.00000000000E+00  0.98488105030E+01  0.91657328413E+02  0.91126652432E+02 0.  0.
    9000005    2    3    3    0    0 -0.35441914166E+01  0.40681990498E+02 -0.14253969464E+02  0.44238664938E+02  0.92896817123E+01 0.  0.
         22    1    3    3    0    0  0.35441914166E+01 -0.40681990498E+02  0.24102779967E+02  0.47418663476E+02  0.00000000000E+00 0.  1.
         22    1    4    4    0    0  0.98421807042E+00  0.28416273045E+02 -0.12451020027E+02  0.31039992892E+02  0.00000000000E+00 0. -1.
         22    1    4    4    0    0 -0.45284094870E+01  0.12265717453E+02 -0.18029494370E+01  0.13198672046E+02  0.00000000000E+00 0. -1.
<mgrwt>
<rscale>  0 0.91126652E+02</rscale>
<asrwt>0</asrwt>
<pdfrwt beam="2">  1        1 0.62929629E-02 0.91126652E+02</pdfrwt>
<pdfrwt beam="1">  1       -1 0.78081646E-02 0.91126652E+02</pdfrwt>
<totfact> 0.91113424E+04</totfact>
</mgrwt>
</event>
<event>
 7    1  0.3607059E-009  0.9028668E+02  0.7818608E-02  0.1302159E+00
         -1   -1    0    0    0  501 -0.00000000000E+00  0.00000000000E+00  0.11234279064E+03  0.11234279075E+03  0.50400000000E-02 0.  1.
          1   -1    0    0  501    0  0.00000000000E+00 -0.00000000000E+00 -0.18140203146E+02  0.18140203846E+02  0.50400000000E-02 0. -1.
         23    2    1    2    0    0  0.00000000000E+00  0.17763568394E-14  0.94202587494E+02  0.13048299460E+03  0.90286678912E+02 0.  0.
    9000005    2    3    3    0    0  0.22238603354E+02 -0.14452791579E+02 -0.25840081244E+01  0.30128205202E+02  0.14056777267E+02 0.  0.
         22    1    3    3    0    0 -0.22238603354E+02  0.14452791579E+02  0.96786595619E+02  0.10035478940E+03  0.00000000000E+00 0.  1.
         22    1    4    4    0    0  0.12633534013E+02 -0.43274879013E+01  0.49817040971E+01  0.14253094713E+02  0.00000000000E+00 0. -1.
         22    1    4    4    0    0  0.96050693410E+01 -0.10125303677E+02 -0.75657122215E+01  0.15875110488E+02  0.00000000000E+00 0. -1.
<mgrwt>
<rscale>  0 0.90286679E+02</rscale>
<asrwt>0</asrwt>
<pdfrwt beam="2">  1        1 0.27908005E-02 0.90286679E+02</pdfrwt>
<pdfrwt beam="1">  1       -1 0.17283507E-01 0.90286679E+02</pdfrwt>
<totfact> 0.81617114E+04</totfact>
</mgrwt>
</event>
<event>
 7    1  0.3607059E-009  0.8392610E+02  0.7818608E-02  0.1318265E+00
         -1   -1    0    0    0  501 -0.00000000000E+00  0.00000000000E+00  0.12857422018E+03  0.12857422028E+03  0.50400000000E-02 0.  1.
          1   -1    0    0  501    0  0.00000000000E+00 -0.00000000000E+00 -0.13695572468E+02  0.13695573395E+02  0.50400000000E-02 0. -1.
         23    2    1    2    0    0  0.00000000000E+00 -0.17763568394E-14  0.11487864771E+03  0.14226979367E+03  0.83926101374E+02 0.  0.
    9000005    2    3    3    0    0 -0.18145134051E+02 -0.12094017257E+02  0.11735876381E+03  0.12032299165E+03  0.15133794380E+02 0.  0.
         22    1    3    3    0    0  0.18145134051E+02  0.12094017257E+02 -0.24801161035E+01  0.21946802023E+02  0.00000000000E+00 0. -1.
         22    1    4    4    0    0 -0.33497175938E+01 -0.98541547775E+00  0.34050246470E+01  0.48770733508E+01  0.00000000000E+00 0. -1.
         22    1    4    4    0    0 -0.14795416458E+02 -0.11108601780E+02  0.11395373917E+03  0.11544591830E+03  0.00000000000E+00 0. -1.
<mgrwt>
<rscale>  0 0.83926101E+02</rscale>
<asrwt>0</asrwt>
<pdfrwt beam="2">  1        1 0.21070113E-02 0.83926101E+02</pdfrwt>
<pdfrwt beam="1">  1       -1 0.19780649E-01 0.83926101E+02</pdfrwt>
<totfact> 0.95873190E+04</totfact>
</mgrwt>
</event>
<event>
 7    1  0.3607059E-009  0.9079132E+02  0.7818608E-02  0.1300947E+00
         -1   -1    0    0    0  501 -0.00000000000E+00  0.00000000000E+00  0.65927474720E+01  0.65927493985E+01  0.50400000000E-02 0.  1.
          1   -1    0    0  501    0  0.00000000000E+00 -0.00000000000E+00 -0.31258072565E+03  0.31258072569E+03  0.50400000000E-02 0. -1.
         23    2    1    2    0    0  0.00000000000E+00  0.71054273576E-14 -0.30598797817E+03  0.31917347508E+03  0.90791323434E+02 0.  0.
    9000005    2    3    3    0    0 -0.19991824120E+02 -0.38242170457E+02 -0.19442808514E+03  0.19955848286E+03  0.12616305105E+02 0.  0.
         22    1    3    3    0    0  0.19991824120E+02  0.38242170457E+02 -0.11155989303E+03  0.11961499223E+03  0.00000000000E+00 0.  1.
         22    1    4    4    0    0 -0.51248981863E+01 -0.82599327550E+01 -0.24338500939E+02  0.26207893820E+02  0.00000000000E+00 0. -1.
         22    1    4    4    0    0 -0.14866925934E+02 -0.29982237702E+02 -0.17008958420E+03  0.17335058904E+03  0.00000000000E+00 0. -1.
<mgrwt>
<rscale>  0 0.90791323E+02</rscale>
<asrwt>0</asrwt>
<pdfrwt beam="2">  1        1 0.48089331E-01 0.90791323E+02</pdfrwt>
<pdfrwt beam="1">  1       -1 0.10142692E-02 0.90791323E+02</pdfrwt>
<totfact> 0.13058747E+05</totfact>
</mgrwt>
</event>
<event>
 7    1  0.3607059E-009  0.8746851E+02  0.7818608E-02  0.1309100E+00
          1   -1    0    0  501    0  0.00000000000E+00  0.00000000000E+00  0.59128553799E+03  0.59128553801E+03  0.50400000000E-02 0. -1.
         -1   -1    0    0    0  501 -0.00000000000E+00 -0.00000000000E+00 -0.32347885562E+01  0.32347924825E+01  0.50400000000E-02 0.  1.
         23    2    1    2    0    0  0.00000000000E+00  0.17763568394E-14  0.58805074943E+03  0.59452033049E+03  0.87468505538E+02 0.  0.
    9000005    2    3    3    0    0 -0.37257577526E+02 -0.15737921360E+02  0.39734569459E+03  0.39957360137E+03  0.11817472376E+02 0.  0.
         22    1    3    3    0    0  0.37257577526E+02  0.15737921360E+02  0.19070505484E+03  0.19494672912E+03  0.00000000000E+00 0.  1.
         22    1    4    4    0    0 -0.17412743502E+02 -0.13414425888E+02  0.18988801559E+03  0.19115598061E+03  0.00000000000E+00 0. -1.
         22    1    4    4    0    0 -0.19844834024E+02 -0.23234954718E+01  0.20745767900E+03  0.20841762077E+03  0.00000000000E+00 0. -1.
<mgrwt>
<rscale>  0 0.87468506E+02</rscale>
<asrwt>0</asrwt>
<pdfrwt beam="1">  1        1 0.90966886E-01 0.87468506E+02</pdfrwt>
<pdfrwt beam="2">  1       -1 0.49766074E-03 0.87468506E+02</pdfrwt>
<totfact> 0.15785268E+05</totfact>
</mgrwt>
</event>
<event>
 7    1  0.3607059E-009  0.9002107E+02  0.7818608E-02  0.1302801E+00
         -1   -1    0    0    0  501 -0.00000000000E+00  0.00000000000E+00  0.31234836658E+02  0.31234837065E+02  0.50400000000E-02 0.  1.
          1   -1    0    0  501    0  0.00000000000E+00 -0.00000000000E+00 -0.64861820795E+02  0.64861820991E+02  0.50400000000E-02 0. -1.
         23    2    1    2    0    0  0.00000000000E+00  0.00000000000E+00 -0.33626984137E+02  0.96096658056E+02  0.90021073240E+02 0.  0.
    9000005    2    3    3    0    0  0.21600073027E+02 -0.18705522314E+02  0.18670642513E+02  0.36502182867E+02  0.12936643398E+02 0.  0.
         22    1    3    3    0    0 -0.21600073027E+02  0.18705522314E+02 -0.52297626650E+02  0.59594475189E+02  0.00000000000E+00 0. -1.
         22    1    4    4    0    0  0.87762101848E+01 -0.10721681050E+02  0.15993825594E+02  0.21160783702E+02  0.00000000000E+00 0. -1.
         22    1    4    4    0    0  0.12823862843E+02 -0.79838412641E+01  0.26768169191E+01  0.15341399165E+02  0.00000000000E+00 0. -1.
<mgrwt>
<rscale>  0 0.90021073E+02</rscale>
<asrwt>0</asrwt>
<pdfrwt beam="2">  1        1 0.99787417E-02 0.90021073E+02</pdfrwt>
<pdfrwt beam="1">  1       -1 0.48053595E-02 0.90021073E+02</pdfrwt>
<totfact> 0.10101515E+05</totfact>
</mgrwt>
</event>
<event>
 7    1  0.3607059E-009  0.9102494E+02  0.7818608E-02  0.1300388E+00
         -1   -1    0    0    0  501 -0.00000000000E+00  0.00000000000E+00  0.17652002753E+02  0.17652003473E+02  0.50400000000E-02 0.  1.
          1   -1    0    0  501    0  0.00000000000E+00 -0.00000000000E+00 -0.11734560388E+03  0.11734560398E+03  0.50400000000E-02 0. -1.
         23    2    1    2    0    0  0.00000000000E+00 -0.35527136788E-14 -0.99693601123E+02  0.13499760746E+03  0.91024941166E+02 0.  0.
    9000005    2    3    3    0    0  0.23469078518E+02 -0.21705705646E+02 -0.96837764922E+02  0.10290257506E+03  0.13764153987E+02 0.  0.
         22    1    3    3    0    0 -0.23469078518E+02  0.21705705646E+02 -0.28558362007E+01  0.32095032396E+02  0.00000000000E+00 0.  1.
         22    1    4    4    0    0  0.13628258576E+02 -0.12034697624E+02 -0.33875255590E+02  0.38446018259E+02  0.00000000000E+00 0.  1.
         22    1    4    4    0    0  0.98408199420E+01 -0.96710080218E+01 -0.62962509332E+02  0.64456556802E+02  0.00000000000E+00 0.  1.
<mgrwt>
<rscale>  0 0.91024941E+02</rscale>
<asrwt>0</asrwt>
<pdfrwt beam="2">  1        1 0.18053169E-01 0.91024941E+02</pdfrwt>
<pdfrwt beam="1">  1       -1 0.27156929E-02 0.91024941E+02</pdfrwt>
<totfact> 0.10780912E+05</totfact>
</mgrwt>
</event>
<event>
 7    1  0.3607059E-009  0.8791911E+02  0.7818608E-02  0.1307971E+00
         -1   -1    0    0    0  501 -0.00000000000E+00  0.00000000000E+00  0.26486480554E+01  0.26486528506E+01  0.50400000000E-02 0.  1.
          1   -1    0    0  501    0  0.00000000000E+00 -0.00000000000E+00 -0.72959516697E+03  0.72959516699E+03  0.50400000000E-02 0. -1.
         23    2    1    2    0    0  0.00000000000E+00  0.00000000000E+00 -0.72694651892E+03  0.73224381984E+03  0.87919112421E+02 0.  0.
    9000005    2    3    3    0    0  0.19761408223E+02 -0.33446574751E+02 -0.52165027457E+03  0.52330427221E+03  0.14804247553E+02 0.  0.
         22    1    3    3    0    0 -0.19761408223E+02  0.33446574751E+02 -0.20529624435E+03  0.20893954763E+03  0.00000000000E+00 0.  1.
         22    1    4    4    0    0  0.98968116118E+01 -0.13936375288E+02 -0.14200340274E+03  0.14302844411E+03  0.00000000000E+00 0. -1.
         22    1    4    4    0    0  0.98645966110E+01 -0.19510199463E+02 -0.37964687183E+03  0.38027582810E+03  0.00000000000E+00 0. -1.
<mgrwt>
<rscale>  0 0.87919112E+02</rscale>
<asrwt>0</asrwt>
<pdfrwt beam="2">  1        1 0.11224525E+00 0.87919112E+02</pdfrwt>
<pdfrwt beam="1">  1       -1 0.40748527E-03 0.87919112E+02</pdfrwt>
<totfact> 0.15637711E+05</totfact>
</mgrwt>
</event>
<event>
 7    1  0.3607059E-009  0.8937513E+02  0.7818608E-02  0.1304372E+00
         -1   -1    0    0    0  501 -0.00000000000E+00  0.00000000000E+00  0.23377540214E+02  0.23377540757E+02  0.50400000000E-02 0.  1.
          1   -1    0    0  501    0  0.00000000000E+00 -0.00000000000E+00 -0.85422946219E+02  0.85422946368E+02  0.50400000000E-02 0. -1.
         23    2    1    2    0    0  0.00000000000E+00  0.11102230246E-15 -0.62045406006E+02  0.10880048713E+03  0.89375128488E+02 0.  0.
    9000005    2    3    3    0    0  0.41839501962E+02 -0.28622876446E+00 -0.13141199592E+02  0.44440194582E+02  0.71842825962E+01 0.  0.
         22    1    3    3    0    0 -0.41839501962E+02  0.28622876446E+00 -0.48904206414E+02  0.64360292543E+02  0.00000000000E+00 0. -1.
         22    1    4    4    0    0  0.62385814097E+01  0.23048722540E+01 -0.93690625562E+00  0.67164073317E+01  0.00000000000E+00 0.  1.
         22    1    4    4    0    0  0.35600920552E+02 -0.25911010184E+01 -0.12204293336E+02  0.37723787250E+02  0.00000000000E+00 0.  1.
<mgrwt>
<rscale>  0 0.89375128E+02</rscale>
<asrwt>0</asrwt>
<pdfrwt beam="2">  1        1 0.13141992E-01 0.89375128E+02</pdfrwt>
<pdfrwt beam="1">  1       -1 0.35965447E-02 0.89375128E+02</pdfrwt>
<totfact> 0.10750750E+05</totfact>
</mgrwt>
</event>
<event>
 7    1  0.3607059E-009  0.9490315E+02  0.7818608E-02  0.1291394E+00
         -1   -1    0    0    0  501 -0.00000000000E+00  0.00000000000E+00  0.60016538727E+02  0.60016538939E+02  0.50400000000E-02 0.  1.
          1   -1    0    0  501    0  0.00000000000E+00 -0.00000000000E+00 -0.37517191254E+02  0.37517191592E+02  0.50400000000E-02 0. -1.
         23    2    1    2    0    0  0.00000000000E+00  0.00000000000E+00  0.22499347473E+02  0.97533730531E+02  0.94903150393E+02 0.  0.
    9000005    2    3    3    0    0 -0.10663477971E+02 -0.28769399953E+02 -0.25114064336E+02  0.40890768743E+02  0.99975299367E+01 0.  0.
         22    1    3    3    0    0  0.10663477971E+02  0.28769399953E+02  0.47613411809E+02  0.56642961788E+02  0.00000000000E+00 0.  1.
         22    1    4    4    0    0 -0.33902462634E+01 -0.78451220875E+01 -0.13234646650E+02  0.15754224266E+02  0.00000000000E+00 0.  1.
         22    1    4    4    0    0 -0.72732317074E+01 -0.20924277865E+02 -0.11879417686E+02  0.25136544476E+02  0.00000000000E+00 0.  1.
<mgrwt>
<rscale>  0 0.94903150E+02</rscale>
<asrwt>0</asrwt>
<pdfrwt beam="2">  1        1 0.57718756E-02 0.94903150E+02</pdfrwt>
<pdfrwt beam="1">  1       -1 0.92333138E-02 0.94903150E+02</pdfrwt>
<totfact> 0.80105065E+04</totfact>
</mgrwt>
</event>
<event>
 7    1  0.3607059E-009  0.8044444E+02  0.7818608E-02  0.1327795E+00
         -1   -1    0    0    0  501 -0.00000000000E+00  0.00000000000E+00  0.38586428638E+02  0.38586428968E+02  0.50400000000E-02 0.  1.
          1   -1    0    0  501    0  0.00000000000E+00 -0.00000000000E+00 -0.41927359751E+02  0.41927360054E+02  0.50400000000E-02 0. -1.
         23    2    1    2    0    0  0.00000000000E+00  0.00000000000E+00 -0.33409311125E+01  0.80513789021E+02  0.80444442952E+02 0.  0.
    9000005    2    3    3    0    0 -0.24597483051E+02  0.11347503241E+02 -0.31150026029E+02  0.41691788012E+02  0.58377276235E+01 0.  0.
         22    1    3    3    0    0  0.24597483051E+02 -0.11347503241E+02  0.27809094917E+02  0.38822001009E+02  0.00000000000E+00 0.  1.
         22    1    4    4    0    0 -0.88650883922E+01  0.29269297291E+01 -0.70202323892E+01  0.11680769351E+02  0.00000000000E+00 0.  1.
         22    1    4    4    0    0 -0.15732394659E+02  0.84205735118E+01 -0.24129793640E+02  0.30011018661E+02  0.00000000000E+00 0.  1.
<mgrwt>
<rscale>  0 0.80444443E+02</rscale>
<asrwt>0</asrwt>
<pdfrwt beam="2">  1        1 0.64503631E-02 0.80444443E+02</pdfrwt>
<pdfrwt beam="1">  1       -1 0.59363737E-02 0.80444443E+02</pdfrwt>
<totfact> 0.12945872E+05</totfact>
</mgrwt>
</event>
<event>
 7    1  0.3607059E-009  0.9180696E+02  0.7818608E-02  0.1298534E+00
         -1   -1    0    0    0  501 -0.00000000000E+00  0.00000000000E+00  0.50339853841E+02  0.50339854093E+02  0.50400000000E-02 0.  1.
          1   -1    0    0  501    0  0.00000000000E+00 -0.00000000000E+00 -0.41858080710E+02  0.41858081014E+02  0.50400000000E-02 0. -1.
         23    2    1    2    0    0  0.00000000000E+00 -0.35527136788E-14  0.84817731310E+01  0.92197935107E+02  0.91806964674E+02 0.  0.
    9000005    2    3    3    0    0  0.11295469979E+02  0.27203374398E+02 -0.30702368626E+02  0.43177447697E+02  0.73515528745E+01 0.  0.
         22    1    3    3    0    0 -0.11295469979E+02 -0.27203374398E+02  0.39184141757E+02  0.49020487410E+02  0.00000000000E+00 0.  1.
         22    1    4    4    0    0  0.29093483883E+01  0.16341101156E+02 -0.17876816395E+02  0.24394189051E+02  0.00000000000E+00 0. -1.
         22    1    4    4    0    0  0.83861215909E+01  0.10862273242E+02 -0.12825552231E+02  0.18783258646E+02  0.00000000000E+00 0. -1.
<mgrwt>
<rscale>  0 0.91806965E+02</rscale>
<asrwt>0</asrwt>
<pdfrwt beam="2">  1        1 0.64397048E-02 0.91806965E+02</pdfrwt>
<pdfrwt beam="1">  1       -1 0.77445929E-02 0.91806965E+02</pdfrwt>
<totfact> 0.89532213E+04</totfact>
</mgrwt>
</event>
<event>
 7    1  0.3607059E-009  0.9020801E+02  0.7818608E-02  0.1302349E+00
          1   -1    0    0  501    0  0.00000000000E+00  0.00000000000E+00  0.10004086466E+03  0.10004086478E+03  0.50400000000E-02 0. -1.
         -1   -1    0    0    0  501 -0.00000000000E+00 -0.00000000000E+00 -0.20335401356E+02  0.20335401980E+02  0.50400000000E-02 0.  1.
         23    2    1    2    0    0  0.17763568394E-14  0.71054273576E-14  0.79705463301E+02  0.12037626676E+03  0.90208008070E+02 0.  0.
    9000005    2    3    3    0    0 -0.15987370969E+02 -0.33727996364E+02  0.72450732307E+02  0.82352525615E+02  0.11817617950E+02 0.  0.
         22    1    3    3    0    0  0.15987370969E+02  0.33727996364E+02  0.72547309939E+01  0.38023741150E+02  0.00000000000E+00 0.  1.
         22    1    4    4    0    0 -0.15156474853E+01 -0.21580584603E+01  0.14927670560E+02  0.15158817631E+02  0.00000000000E+00 0. -1.
         22    1    4    4    0    0 -0.14471723483E+02 -0.31569937904E+02  0.57523061748E+02  0.67193707984E+02  0.00000000000E+00 0. -1.
<mgrwt>
<rscale>  0 0.90208008E+02</rscale>
<asrwt>0</asrwt>
<pdfrwt beam="1">  1        1 0.15390902E-01 0.90208008E+02</pdfrwt>
<pdfrwt beam="2">  1       -1 0.31285233E-02 0.90208008E+02</pdfrwt>
<totfact> 0.10754126E+05</totfact>
</mgrwt>
</event>
<event>
 7    1  0.3607059E-009  0.9093457E+02  0.7818608E-02  0.1300604E+00
          1   -1    0    0  501    0  0.00000000000E+00  0.00000000000E+00  0.14468590249E+03  0.14468590258E+03  0.50400000000E-02 0. -1.
         -1   -1    0    0    0  501 -0.00000000000E+00 -0.00000000000E+00 -0.14288011047E+02  0.14288011935E+02  0.50400000000E-02 0.  1.
         23    2    1    2    0    0 -0.17763568394E-14  0.00000000000E+00  0.13039789144E+03  0.15897391451E+03  0.90934566599E+02 0.  0.
    9000005    2    3    3    0    0  0.11987822760E+02 -0.34917852145E+02  0.10995730911E+03  0.11677460529E+03  0.13517925899E+02 0.  0.
         22    1    3    3    0    0 -0.11987822760E+02  0.34917852145E+02  0.20440582334E+02  0.42199309225E+02  0.00000000000E+00 0.  1.
         22    1    4    4    0    0  0.11440758026E+02 -0.19044874880E+02  0.77783292356E+02  0.80893997139E+02  0.00000000000E+00 0. -1.
         22    1    4    4    0    0  0.54706473410E+00 -0.15872977264E+02  0.32174016751E+02  0.35880608147E+02  0.00000000000E+00 0. -1.
<mgrwt>
<rscale>  0 0.90934567E+02</rscale>
<asrwt>0</asrwt>
<pdfrwt beam="1">  1        1 0.22259369E-01 0.90934567E+02</pdfrwt>
<pdfrwt beam="2">  1       -1 0.21981557E-02 0.90934567E+02</pdfrwt>
<totfact> 0.11219761E+05</totfact>
</mgrwt>
</event>
<event>
 7    1  0.3607059E-009  0.9428659E+02  0.7818608E-02  0.1292791E+00
          1   -1    0    0  501    0  0.00000000000E+00  0.00000000000E+00  0.35528926278E+02  0.35528926636E+02  0.50400000000E-02 0. -1.
         -1   -1    0    0    0  501 -0.00000000000E+00 -0.00000000000E+00 -0.62554393146E+02  0.62554393349E+02  0.50400000000E-02 0.  1.
         23    2    1    2    0    0  0.00000000000E+00  0.00000000000E+00 -0.27025466868E+02  0.98083319985E+02  0.94286593956E+02 0.  0.
    9000005    2    3    3    0    0 -0.92767575641E+01 -0.18044744203E+02  0.30189494083E+02  0.37377284199E+02  0.86014415531E+01 0.  0.
         22    1    3    3    0    0  0.92767575641E+01  0.18044744203E+02 -0.57214960951E+02  0.60706035787E+02  0.00000000000E+00 0.  1.
         22    1    4    4    0    0 -0.44378008166E+01 -0.85413584363E+01  0.21725392057E+02  0.23762187190E+02  0.00000000000E+00 0. -1.
         22    1    4    4    0    0 -0.48389567475E+01 -0.95033857669E+01  0.84641020263E+01  0.13615097008E+02  0.00000000000E+00 0. -1.
<mgrwt>
<rscale>  0 0.94286594E+02</rscale>
<asrwt>0</asrwt>
<pdfrwt beam="1">  1        1 0.54659887E-02 0.94286594E+02</pdfrwt>
<pdfrwt beam="2">  1       -1 0.96237528E-02 0.94286594E+02</pdfrwt>
<totfact> 0.80904070E+04</totfact>
</mgrwt>
</event>
<event>
 7    1  0.3607059E-009  0.9499731E+02  0.7818608E-02  0.1291182E+00
          1   -1    0    0  501    0  0.00000000000E+00  0.00000000000E+00  0.14494754536E+02  0.14494755412E+02  0.50400000000E-02 0. -1.
         -1   -1    0    0    0  501 -0.00000000000E+00 -0.00000000000E+00 -0.15565092388E+03  0.15565092396E+03  0.50400000000E-02 0.  1.
         23    2    1    2    0    0  0.00000000000E+00  0.00000000000E+00 -0.14115616935E+03  0.17014567937E+03  0.94997305571E+02 0.  0.
    9000005    2    3    3    0    0 -0.32767478559E+02  0.18663034558E+02 -0.18994386081E+02  0.42296088839E+02  0.24811123451E+01 0.  0.
         22    1    3    3    0    0  0.32767478559E+02 -0.18663034558E+02 -0.12216178326E+03  0.12784959054E+03  0.00000000000E+00 0.  1.
         22    1    4    4    0    0 -0.24965064051E+02  0.13385919292E+02 -0.13355784111E+02  0.31317953758E+02  0.00000000000E+00 0. -1.
         22    1    4    4    0    0 -0.78024145073E+01  0.52771152658E+01 -0.56386019702E+01  0.10978135081E+02  0.00000000000E+00 0. -1.
<mgrwt>
<rscale>  0 0.94997306E+02</rscale>
<asrwt>0</asrwt>
<pdfrwt beam="1">  1        1 0.22299624E-02 0.94997306E+02</pdfrwt>
<pdfrwt beam="2">  1       -1 0.23946295E-01 0.94997306E+02</pdfrwt>
<totfact> 0.66626836E+04</totfact>
</mgrwt>
</event>
<event>
 7    1  0.3607059E-009  0.8754904E+02  0.7818608E-02  0.1308898E+00
          1   -1    0    0  501    0  0.00000000000E+00  0.00000000000E+00  0.35482353727E+01  0.35482389522E+01  0.50400000000E-02 0. -1.
         -1   -1    0    0    0  501 -0.00000000000E+00 -0.00000000000E+00 -0.54004526293E+03  0.54004526295E+03  0.50400000000E-02 0.  1.
         23    2    1    2    0    0  0.35527136788E-14 -0.35527136788E-14 -0.53649702756E+03  0.54359350190E+03  0.87549041893E+02 0.  0.
    9000005    2    3    3    0    0 -0.18740900714E+02  0.28056352313E+02 -0.44100546976E+03  0.44231656536E+03  0.44429013779E+01 0.  0.
         22    1    3    3    0    0  0.18740900714E+02 -0.28056352313E+02 -0.95491557796E+02  0.10127693654E+03  0.00000000000E+00 0. -1.
         22    1    4    4    0    0 -0.12709789832E+02  0.19284071297E+02 -0.27367881560E+03  0.27465161254E+03  0.00000000000E+00 0. -1.
         22    1    4    4    0    0 -0.60311108825E+01  0.87722810154E+01 -0.16732665416E+03  0.16766495282E+03  0.00000000000E+00 0. -1.
<mgrwt>
<rscale>  0 0.87549042E+02</rscale>
<asrwt>0</asrwt>
<pdfrwt beam="1">  1        1 0.54588307E-03 0.87549042E+02</pdfrwt>
<pdfrwt beam="2">  1       -1 0.83083821E-01 0.87549042E+02</pdfrwt>
<totfact> 0.49805856E+04</totfact>
</mgrwt>
</event>
<event>
 7    1  0.3607059E-009  0.8965201E+02  0.7818608E-02  0.1303697E+00
         -1   -1    0    0    0  501 -0.00000000000E+00  0.00000000000E+00  0.11788488249E+03  0.11788488260E+03  0.50400000000E-02 0.  1.
          1   -1    0    0  501    0  0.00000000000E+00 -0.00000000000E+00 -0.17045193631E+02  0.17045194376E+02  0.50400000000E-02 0. -1.
         23    2    1    2    0    0  0.00000000000E+00  0.00000000000E+00  0.10083968886E+03  0.13493007697E+03  0.89652009586E+02 0.  0.
    9000005    2    3    3    0    0  0.15994490166E+02  0.40054839909E+02  0.63072417169E+02  0.77601369272E+02  0.13550970057E+02 0.  0.
         22    1    3    3    0    0 -0.15994490166E+02 -0.40054839909E+02  0.37767271690E+02  0.57328707701E+02  0.00000000000E+00 0. -1.
         22    1    4    4    0    0  0.16452746273E+02  0.37767200368E+02  0.52282569516E+02  0.66562161614E+02  0.00000000000E+00 0.  1.
         22    1    4    4    0    0 -0.45825610752E+00  0.22876395415E+01  0.10789847653E+02  0.11039207658E+02  0.00000000000E+00 0.  1.
<mgrwt>
<rscale>  0 0.89652010E+02</rscale>
<asrwt>0</asrwt>
<pdfrwt beam="2">  1        1 0.26223376E-02 0.89652010E+02</pdfrwt>
<pdfrwt beam="1">  1       -1 0.18136135E-01 0.89652010E+02</pdfrwt>
<totfact> 0.82322320E+04</totfact>
</mgrwt>
</event>
<event>
 7    1  0.3607059E-009  0.9483813E+02  0.7818608E-02  0.1291541E+00
         -1   -1    0    0    0  501 -0.00000000000E+00  0.00000000000E+00  0.19384862180E+02  0.19384862835E+02  0.50400000000E-02 0.  1.
          1   -1    0    0  501    0  0.00000000000E+00 -0.00000000000E+00 -0.11599606876E+03  0.11599606887E+03  0.50400000000E-02 0. -1.
         23    2    1    2    0    0  0.00000000000E+00 -0.71054273576E-14 -0.96611206583E+02  0.13538093171E+03  0.94838132799E+02 0.  0.
    9000005    2    3    3    0    0 -0.78181619790E+01  0.42773375060E+02 -0.23655742604E+02  0.50450460173E+02  0.97452297449E+01 0.  0.
         22    1    3    3    0    0  0.78181619790E+01 -0.42773375060E+02 -0.72955463979E+02  0.84930471535E+02  0.00000000000E+00 0. -1.
         22    1    4    4    0    0 -0.23120595127E+01  0.66422174533E+01 -0.81059433434E+01  0.10731774754E+02  0.00000000000E+00 0. -1.
         22    1    4    4    0    0 -0.55061024663E+01  0.36131157607E+02 -0.15549799261E+02  0.39718685419E+02  0.00000000000E+00 0. -1.
<mgrwt>
<rscale>  0 0.94838133E+02</rscale>
<asrwt>0</asrwt>
<pdfrwt beam="2">  1        1 0.17845549E-01 0.94838133E+02</pdfrwt>
<pdfrwt beam="1">  1       -1 0.29822866E-02 0.94838133E+02</pdfrwt>
<totfact> 0.96217458E+04</totfact>
</mgrwt>
</event>
<event>
 7    1  0.3607059E-009  0.9278961E+02  0.7818608E-02  0.1296233E+00
         -1   -1    0    0    0  501 -0.00000000000E+00  0.00000000000E+00  0.37176323559E+02  0.37176323900E+02  0.50400000000E-02 0.  1.
          1   -1    0    0  501    0  0.00000000000E+00 -0.00000000000E+00 -0.57899166009E+02  0.57899166228E+02  0.50400000000E-02 0. -1.
         23    2    1    2    0    0  0.00000000000E+00  0.71054273576E-14 -0.20722842450E+02  0.95075490129E+02  0.92789614850E+02 0.  0.
    9000005    2    3    3    0    0  0.28641832632E+02  0.33990472892E+02  0.28600618751E+01  0.44757896781E+02  0.44025613438E+01 0.  0.
         22    1    3    3    0    0 -0.28641832632E+02 -0.33990472892E+02 -0.23582904325E+02  0.50317593348E+02  0.00000000000E+00 0. -1.
         22    1    4    4    0    0  0.12354210970E+02  0.12283861303E+02  0.26289012664E+01  0.17619049324E+02  0.00000000000E+00 0.  1.
         22    1    4    4    0    0  0.16287621662E+02  0.21706611589E+02  0.23116060877E+00  0.27138847457E+02  0.00000000000E+00 0.  1.
<mgrwt>
<rscale>  0 0.92789615E+02</rscale>
<asrwt>0</asrwt>
<pdfrwt beam="2">  1        1 0.89075640E-02 0.92789615E+02</pdfrwt>
<pdfrwt beam="1">  1       -1 0.57194345E-02 0.92789615E+02</pdfrwt>
<totfact> 0.91286904E+04</totfact>
</mgrwt>
</event>
<event>
 7    1  0.3607059E-009  0.9071673E+02  0.7818608E-02  0.1301125E+00
          1   -1    0    0  501    0  0.00000000000E+00  0.00000000000E+00  0.50065663353E+01  0.50065688721E+01  0.50400000000E-02 0. -1.
         -1   -1    0    0    0  501 -0.00000000000E+00 -0.00000000000E+00 -0.41093643999E+03  0.41093644002E+03  0.50400000000E-02 0.  1.
         23    2    1    2    0    0  0.00000000000E+00  0.00000000000E+00 -0.40592987366E+03  0.41594300890E+03  0.90716725700E+02 0.  0.
    9000005    2    3    3    0    0 -0.26099526021E+02 -0.33156497444E+02 -0.27420485309E+03  0.27762446486E+03  0.10320050787E+02 0.  0.
         22    1    3    3    0    0  0.26099526021E+02  0.33156497444E+02 -0.13172502057E+03  0.13831854404E+03  0.00000000000E+00 0. -1.
         22    1    4    4    0    0 -0.21887855977E+02 -0.27385987003E+02 -0.24790286617E+03  0.25036953005E+03  0.00000000000E+00 0.  1.
         22    1    4    4    0    0 -0.42116700443E+01 -0.57705104413E+01 -0.26301986923E+02  0.27254934808E+02  0.00000000000E+00 0.  1.
<mgrwt>
<rscale>  0 0.90716726E+02</rscale>
<asrwt>0</asrwt>
<pdfrwt beam="1">  1        1 0.77024150E-03 0.90716726E+02</pdfrwt>
<pdfrwt beam="2">  1       -1 0.63220964E-01 0.90716726E+02</pdfrwt>
<totfact> 0.53261189E+04</totfact>
</mgrwt>
</event>
<event>
 7    1  0.3607059E-009  0.9118960E+02  0.7818608E-02  0.1299996E+00
          1   -1    0    0  501    0  0.00000000000E+00  0.00000000000E+00  0.14364515758E+02  0.14364516642E+02  0.50400000000E-02 0. -1.
         -1   -1    0    0    0  501 -0.00000000000E+00 -0.00000000000E+00 -0.14472367634E+03  0.14472367643E+03  0.50400000000E-02 0.  1.
         23    2    1    2    0    0  0.71054273576E-14  0.00000000000E+00 -0.13035916058E+03  0.15908819307E+03  0.91189596043E+02 0.  0.
    9000005    2    3    3    0    0  0.38674126079E+02 -0.18201725041E+02 -0.47499143346E+02  0.65853149879E+02  0.15920989540E+02 0.  0.
         22    1    3    3    0    0 -0.38674126079E+02  0.18201725041E+02 -0.82860017238E+02  0.93235043192E+02  0.00000000000E+00 0. -1.
         22    1    4    4    0    0  0.55448522600E+01  0.13903775547E+01 -0.15680820016E+01  0.59276823037E+01  0.00000000000E+00 0.  1.
         22    1    4    4    0    0  0.33129273819E+02 -0.19592102595E+02 -0.45931061345E+02  0.59925467575E+02  0.00000000000E+00 0.  1.
<mgrwt>
<rscale>  0 0.91189596E+02</rscale>
<asrwt>0</asrwt>
<pdfrwt beam="1">  1        1 0.22099257E-02 0.91189596E+02</pdfrwt>
<pdfrwt beam="2">  1       -1 0.22265180E-01 0.91189596E+02</pdfrwt>
<totfact> 0.75383660E+04</totfact>
</mgrwt>
</event>
<event>
 7    1  0.3607059E-009  0.9181090E+02  0.7818608E-02  0.1298525E+00
          1   -1    0    0  501    0  0.00000000000E+00  0.00000000000E+00  0.25725843185E+02  0.25725843678E+02  0.50400000000E-02 0. -1.
         -1   -1    0    0    0  501 -0.00000000000E+00 -0.00000000000E+00 -0.81914131014E+02  0.81914131169E+02  0.50400000000E-02 0.  1.
         23    2    1    2    0    0  0.00000000000E+00  0.00000000000E+00 -0.56188287830E+02  0.10763997485E+03  0.91810895301E+02 0.  0.
    9000005    2    3    3    0    0 -0.31980697275E+02  0.36561533649E+01 -0.65508511269E+02  0.74128797301E+02  0.12945311314E+02 0.  0.
         22    1    3    3    0    0  0.31980697275E+02 -0.36561533649E+01  0.93202234390E+01  0.33511177547E+02  0.00000000000E+00 0. -1.
         22    1    4    4    0    0 -0.30707766073E+02  0.15310605880E+01 -0.52118399642E+02  0.60511475151E+02  0.00000000000E+00 0. -1.
         22    1    4    4    0    0 -0.12729312020E+01  0.21250927769E+01 -0.13390111627E+02  0.13617322150E+02  0.00000000000E+00 0. -1.
<mgrwt>
<rscale>  0 0.91810895E+02</rscale>
<asrwt>0</asrwt>
<pdfrwt beam="1">  1        1 0.39578221E-02 0.91810895E+02</pdfrwt>
<pdfrwt beam="2">  1       -1 0.12602174E-01 0.91810895E+02</pdfrwt>
<totfact> 0.82826233E+04</totfact>
</mgrwt>
</event>
<event>
 7    1  0.3607059E-009  0.8985039E+02  0.7818608E-02  0.1303214E+00
          1   -1    0    0  501    0  0.00000000000E+00  0.00000000000E+00  0.22070706636E+02  0.22070707211E+02  0.50400000000E-02 0. -1.
         -1   -1    0    0    0  501 -0.00000000000E+00 -0.00000000000E+00 -0.91445784373E+02  0.91445784512E+02  0.50400000000E-02 0.  1.
         23    2    1    2    0    0  0.00000000000E+00  0.00000000000E+00 -0.69375077737E+02  0.11351649172E+03  0.89850389438E+02 0.  0.
    9000005    2    3    3    0    0 -0.41286686399E+02  0.13301790506E+02 -0.24770682308E+02  0.51298486323E+02  0.11679892659E+02 0.  0.
         22    1    3    3    0    0  0.41286686399E+02 -0.13301790506E+02 -0.44604395429E+02  0.62218005401E+02  0.00000000000E+00 0.  1.
         22    1    4    4    0    0 -0.31278641410E+02  0.64374451827E+01 -0.22201937134E+02  0.38893702851E+02  0.00000000000E+00 0. -1.
         22    1    4    4    0    0 -0.10008044989E+02  0.68643453233E+01 -0.25687451740E+01  0.12404783472E+02  0.00000000000E+00 0. -1.
<mgrwt>
<rscale>  0 0.89850389E+02</rscale>
<asrwt>0</asrwt>
<pdfrwt beam="1">  1        1 0.33954934E-02 0.89850389E+02</pdfrwt>
<pdfrwt beam="2">  1       -1 0.14068582E-01 0.89850389E+02</pdfrwt>
<totfact> 0.85877501E+04</totfact>
</mgrwt>
</event>
<event>
 7    1  0.3607059E-009  0.9055199E+02  0.7818608E-02  0.1301520E+00
          1   -1    0    0  501    0  0.00000000000E+00  0.00000000000E+00  0.17429649015E+03  0.17429649023E+03  0.50400000000E-02 0. -1.
         -1   -1    0    0    0  501 -0.00000000000E+00 -0.00000000000E+00 -0.11761082733E+02  0.11761083813E+02  0.50400000000E-02 0.  1.
         23    2    1    2    0    0  0.00000000000E+00  0.00000000000E+00  0.16253540742E+03  0.18605757404E+03  0.90551986130E+02 0.  0.
    9000005    2    3    3    0    0 -0.36463655799E+02  0.24089083844E+02  0.57166072630E+02  0.71984882877E+02  0.19953316190E+01 0.  0.
         22    1    3    3    0    0  0.36463655799E+02 -0.24089083844E+02  0.10536933479E+03  0.11407269116E+03  0.00000000000E+00 0. -1.
         22    1    4    4    0    0 -0.48777791880E+01  0.38642276587E+01  0.88865194173E+01  0.10848742441E+02  0.00000000000E+00 0. -1.
         22    1    4    4    0    0 -0.31585876611E+02  0.20224856185E+02  0.48279553213E+02  0.61136140436E+02  0.00000000000E+00 0. -1.
<mgrwt>
<rscale>  0 0.90551986E+02</rscale>
<asrwt>0</asrwt>
<pdfrwt beam="1">  1        1 0.26814843E-01 0.90551986E+02</pdfrwt>
<pdfrwt beam="2">  1       -1 0.18093975E-02 0.90551986E+02</pdfrwt>
<totfact> 0.11746773E+05</totfact>
</mgrwt>
</event>
<event>
 7    1  0.3607059E-009  0.9035567E+02  0.7818608E-02  0.1301993E+00
          1   -1    0    0  501    0  0.00000000000E+00  0.00000000000E+00  0.49277689813E+03  0.49277689816E+03  0.50400000000E-02 0. -1.
         -1   -1    0    0    0  501 -0.00000000000E+00 -0.00000000000E+00 -0.41419068395E+01  0.41419099059E+01  0.50400000000E-02 0.  1.
         23    2    1    2    0    0 -0.11102230246E-15 -0.35527136788E-14  0.48863499129E+03  0.49691880806E+03  0.90355669950E+02 0.  0.
    9000005    2    3    3    0    0 -0.87644448510E+00  0.26962081233E+02  0.44283900331E+03  0.44376813079E+03  0.98004628881E+01 0.  0.
         22    1    3    3    0    0  0.87644448510E+00 -0.26962081233E+02  0.45795987979E+02  0.53150677270E+02  0.00000000000E+00 0.  1.
         22    1    4    4    0    0 -0.26565545495E+01  0.13505098276E+01  0.38795692228E+02  0.38909984506E+02  0.00000000000E+00 0. -1.
         22    1    4    4    0    0  0.17801100644E+01  0.25611571405E+02  0.40404331109E+03  0.40485814629E+03  0.00000000000E+00 0. -1.
<mgrwt>
<rscale>  0 0.90355670E+02</rscale>
<asrwt>0</asrwt>
<pdfrwt beam="1">  1        1 0.75811860E-01 0.90355670E+02</pdfrwt>
<pdfrwt beam="2">  1       -1 0.63721643E-03 0.90355670E+02</pdfrwt>
<totfact> 0.14239346E+05</totfact>
</mgrwt>
</event>
<event>
 7    1  0.3607059E-009  0.9108252E+02  0.7818608E-02  0.1300251E+00
          1   -1    0    0  501    0  0.00000000000E+00  0.00000000000E+00  0.68577773395E+03  0.68577773397E+03  0.50400000000E-02 0. -1.
         -1   -1    0    0    0  501 -0.00000000000E+00 -0.00000000000E+00 -0.30243104658E+01  0.30243146653E+01  0.50400000000E-02 0.  1.
         23    2    1    2    0    0 -0.17763568394E-14  0.71054273576E-14  0.68275342349E+03  0.68880204863E+03  0.91082517108E+02 0.  0.
    9000005    2    3    3    0    0 -0.82449798792E+01  0.33778142692E+02  0.56120272300E+03  0.56237612010E+03  0.10462386985E+02 0.  0.
         22    1    3    3    0    0  0.82449798792E+01 -0.33778142692E+02  0.12155070048E+03  0.12642592853E+03  0.00000000000E+00 0.  1.
         22    1    4    4    0    0 -0.65720907837E+01  0.33644458102E+02  0.54728905668E+03  0.54836160834E+03  0.00000000000E+00 0. -1.
         22    1    4    4    0    0 -0.16728890955E+01  0.13368459003E+00  0.13913666315E+02  0.14014511759E+02  0.00000000000E+00 0. -1.
<mgrwt>
<rscale>  0 0.91082517E+02</rscale>
<asrwt>0</asrwt>
<pdfrwt beam="1">  1        1 0.10550433E+00 0.91082517E+02</pdfrwt>
<pdfrwt beam="2">  1       -1 0.46527858E-03 0.91082517E+02</pdfrwt>
<totfact> 0.14257670E+05</totfact>
</mgrwt>
</event>
<event>
 7    1  0.3607059E-009  0.9174491E+02  0.7818608E-02  0.1298680E+00
         -1   -1    0    0    0  501 -0.00000000000E+00  0.00000000000E+00  0.37545026698E+03  0.37545026702E+03  0.50400000000E-02 0.  1.
          1   -1    0    0  501    0  0.00000000000E+00 -0.00000000000E+00 -0.56046880918E+01  0.56046903579E+01  0.50400000000E-02 0. -1.
         23    2    1    2    0    0  0.35527136788E-14  0.00000000000E+00  0.36984557889E+03  0.38105495737E+03  0.91744908930E+02 0.  0.
    9000005    2    3    3    0    0 -0.25369773860E+02 -0.36547519773E+02  0.19541616459E+03  0.20104116012E+03  0.15834268330E+02 0.  0.
         22    1    3    3    0    0  0.25369773860E+02  0.36547519773E+02  0.17442941430E+03  0.18001379725E+03  0.00000000000E+00 0. -1.
         22    1    4    4    0    0 -0.12975968576E+02 -0.19547399514E+02  0.13603066170E+03  0.13803918831E+03  0.00000000000E+00 0.  1.
         22    1    4    4    0    0 -0.12393805285E+02 -0.17000120259E+02  0.59385502892E+02  0.63001971810E+02  0.00000000000E+00 0.  1.
<mgrwt>
<rscale>  0 0.91744909E+02</rscale>
<asrwt>0</asrwt>
<pdfrwt beam="2">  1        1 0.86225956E-03 0.91744909E+02</pdfrwt>
<pdfrwt beam="1">  1       -1 0.57761601E-01 0.91744909E+02</pdfrwt>
<totfact> 0.54086745E+04</totfact>
</mgrwt>
</event>
<event>
 7    1  0.3607059E-009  0.9171308E+02  0.7818608E-02  0.1298755E+00
         -1   -1    0    0    0  501 -0.00000000000E+00  0.00000000000E+00  0.39092934401E+01  0.39092966890E+01  0.50400000000E-02 0.  1.
          1   -1    0    0  501    0  0.00000000000E+00 -0.00000000000E+00 -0.53790322519E+03  0.53790322521E+03  0.50400000000E-02 0. -1.
         23    2    1    2    0    0  0.35527136788E-14  0.00000000000E+00 -0.53399393175E+03  0.54181252190E+03  0.91713083825E+02 0.  0.
    9000005    2    3    3    0    0  0.18984610235E+02 -0.31628569383E+02 -0.42710536497E+03  0.42873755767E+03  0.60098874743E+01 0.  0.
         22    1    3    3    0    0 -0.18984610235E+02  0.31628569383E+02 -0.10688856678E+03  0.11307496423E+03  0.00000000000E+00 0. -1.
         22    1    4    4    0    0  0.10862903270E+02 -0.21229056337E+02 -0.24650137378E+03  0.24765218105E+03  0.00000000000E+00 0.  1.
         22    1    4    4    0    0  0.81217069648E+01 -0.10399513045E+02 -0.18060399118E+03  0.18108537662E+03  0.00000000000E+00 0.  1.
<mgrwt>
<rscale>  0 0.91713084E+02</rscale>
<asrwt>0</asrwt>
<pdfrwt beam="2">  1        1 0.82754284E-01 0.91713084E+02</pdfrwt>
<pdfrwt beam="1">  1       -1 0.60143044E-03 0.91713084E+02</pdfrwt>
<totfact> 0.13820280E+05</totfact>
</mgrwt>
</event>
<event>
 7    1  0.3607059E-009  0.8829092E+02  0.7818608E-02  0.1307044E+00
          1   -1    0    0  501    0  0.00000000000E+00  0.00000000000E+00  0.23061675001E+03  0.23061675006E+03  0.50400000000E-02 0. -1.
         -1   -1    0    0    0  501 -0.00000000000E+00 -0.00000000000E+00 -0.84504763680E+01  0.84504778710E+01  0.50400000000E-02 0.  1.
         23    2    1    2    0    0  0.00000000000E+00  0.00000000000E+00  0.22216627364E+03  0.23906722794E+03  0.88290918724E+02 0.  0.
    9000005    2    3    3    0    0 -0.16039207309E+02 -0.14456394841E+02  0.21502676535E+03  0.21632484236E+03  0.96790537832E+01 0.  0.
         22    1    3    3    0    0  0.16039207309E+02  0.14456394841E+02  0.71395082875E+01  0.22742385572E+02  0.00000000000E+00 0.  1.
         22    1    4    4    0    0 -0.16356889016E+02 -0.10625365166E+02  0.19088321677E+03  0.19187717073E+03  0.00000000000E+00 0. -1.
         22    1    4    4    0    0  0.31768170640E+00 -0.38310296756E+01  0.24143548583E+02  0.24447671632E+02  0.00000000000E+00 0. -1.
<mgrwt>
<rscale>  0 0.88290919E+02</rscale>
<asrwt>0</asrwt>
<pdfrwt beam="1">  1        1 0.35479505E-01 0.88290919E+02</pdfrwt>
<pdfrwt beam="2">  1       -1 0.13000732E-02 0.88290919E+02</pdfrwt>
<totfact> 0.13264957E+05</totfact>
</mgrwt>
</event>
<event>
 7    1  0.3607059E-009  0.9153959E+02  0.7818608E-02  0.1299166E+00
          1   -1    0    0  501    0  0.00000000000E+00  0.00000000000E+00  0.87289886420E+02  0.87289886566E+02  0.50400000000E-02 0. -1.
         -1   -1    0    0    0  501 -0.00000000000E+00 -0.00000000000E+00 -0.23999049381E+02  0.23999049910E+02  0.50400000000E-02 0.  1.
         23    2    1    2    0    0  0.00000000000E+00  0.71054273576E-14  0.63290837039E+02  0.11128893648E+03  0.91539594322E+02 0.  0.
    9000005    2    3    3    0    0 -0.51269614702E+01  0.34541427755E+02 -0.23916411159E+01  0.36900873577E+02  0.11685827238E+02 0.  0.
         22    1    3    3    0    0  0.51269614702E+01 -0.34541427755E+02  0.65682478155E+02  0.74388062899E+02  0.00000000000E+00 0. -1.
         22    1    4    4    0    0 -0.22707960484E+01  0.28917792003E+02 -0.60191794656E+01  0.29624748615E+02  0.00000000000E+00 0. -1.
         22    1    4    4    0    0 -0.28561654218E+01  0.56236357514E+01  0.36275383497E+01  0.72761249618E+01  0.00000000000E+00 0. -1.
<mgrwt>
<rscale>  0 0.91539594E+02</rscale>
<asrwt>0</asrwt>
<pdfrwt beam="1">  1        1 0.13429213E-01 0.91539594E+02</pdfrwt>
<pdfrwt beam="2">  1       -1 0.36921615E-02 0.91539594E+02</pdfrwt>
<totfact> 0.10104878E+05</totfact>
</mgrwt>
</event>
<event>
 7    1  0.3607059E-009  0.9151527E+02  0.7818608E-02  0.1299223E+00
          1   -1    0    0  501    0  0.00000000000E+00  0.00000000000E+00  0.11417320903E+03  0.11417320914E+03  0.50400000000E-02 0. -1.
         -1   -1    0    0    0  501 -0.00000000000E+00 -0.00000000000E+00 -0.18338460760E+02  0.18338461452E+02  0.50400000000E-02 0.  1.
         23    2    1    2    0    0  0.00000000000E+00  0.00000000000E+00  0.95834748268E+02  0.13251167059E+03  0.91515265761E+02 0.  0.
    9000005    2    3    3    0    0  0.80072702510E+01 -0.43288900125E+02  0.64664375523E+02  0.78570615837E+02  0.73358680780E+01 0.  0.
         22    1    3    3    0    0 -0.80072702510E+01  0.43288900125E+02  0.31170372746E+02  0.53941054754E+02  0.00000000000E+00 0.  1.
         22    1    4    4    0    0  0.79922722309E+01 -0.27291246163E+02  0.44829076192E+02  0.53087989270E+02  0.00000000000E+00 0.  1.
         22    1    4    4    0    0  0.14998020136E-01 -0.15997653962E+02  0.19835299331E+02  0.25482626567E+02  0.00000000000E+00 0.  1.
<mgrwt>
<rscale>  0 0.91515266E+02</rscale>
<asrwt>0</asrwt>
<pdfrwt beam="1">  1        1 0.17565109E-01 0.91515266E+02</pdfrwt>
<pdfrwt beam="2">  1       -1 0.28213017E-02 0.91515266E+02</pdfrwt>
<totfact> 0.10574630E+05</totfact>
</mgrwt>
</event>
<event>
 7    1  0.3607059E-009  0.9310365E+02  0.7818608E-02  0.1295505E+00
         -1   -1    0    0    0  501 -0.00000000000E+00  0.00000000000E+00  0.12816484773E+02  0.12816485764E+02  0.50400000000E-02 0.  1.
          1   -1    0    0  501    0  0.00000000000E+00 -0.00000000000E+00 -0.16908475162E+03  0.16908475169E+03  0.50400000000E-02 0. -1.
         23    2    1    2    0    0  0.00000000000E+00  0.00000000000E+00 -0.15626826685E+03  0.18190123746E+03  0.93103646362E+02 0.  0.
    9000005    2    3    3    0    0  0.23539771071E+02  0.37690101712E+02 -0.59615673403E+02  0.75522722671E+02  0.13228323222E+02 0.  0.
         22    1    3    3    0    0 -0.23539771071E+02 -0.37690101712E+02 -0.96652593444E+02  0.10637851479E+03  0.00000000000E+00 0. -1.
         22    1    4    4    0    0  0.20540238064E+02  0.38034109008E+02 -0.54243874022E+02  0.69360599022E+02  0.00000000000E+00 0.  1.
         22    1    4    4    0    0  0.29995330063E+01 -0.34400729663E+00 -0.53717993805E+01  0.61621236486E+01  0.00000000000E+00 0.  1.
<mgrwt>
<rscale>  0 0.93103646E+02</rscale>
<asrwt>0</asrwt>
<pdfrwt beam="2">  1        1 0.26013037E-01 0.93103646E+02</pdfrwt>
<pdfrwt beam="1">  1       -1 0.19717671E-02 0.93103646E+02</pdfrwt>
<totfact> 0.10837365E+05</totfact>
</mgrwt>
</event>
<event>
 7    1  0.3607059E-009  0.8406376E+02  0.7818608E-02  0.1317899E+00
          1   -1    0    0  501    0  0.00000000000E+00  0.00000000000E+00  0.57084486138E+02  0.57084486360E+02  0.50400000000E-02 0. -1.
         -1   -1    0    0    0  501 -0.00000000000E+00 -0.00000000000E+00 -0.30948493451E+02  0.30948493862E+02  0.50400000000E-02 0.  1.
         23    2    1    2    0    0  0.00000000000E+00  0.00000000000E+00  0.26135992686E+02  0.88032980222E+02  0.84063758500E+02 0.  0.
    9000005    2    3    3    0    0  0.36027520433E+02  0.20022729554E+02  0.13879330232E+02  0.45031611618E+02  0.11675543237E+02 0.  0.
         22    1    3    3    0    0 -0.36027520433E+02 -0.20022729554E+02  0.12256662454E+02  0.43001368604E+02  0.00000000000E+00 0.  1.
         22    1    4    4    0    0  0.17751898135E+02  0.16480735279E+02  0.77074217675E+01  0.25419458551E+02  0.00000000000E+00 0.  1.
         22    1    4    4    0    0  0.18275622298E+02  0.35419942750E+01  0.61719084648E+01  0.19612153067E+02  0.00000000000E+00 0.  1.
<mgrwt>
<rscale>  0 0.84063758E+02</rscale>
<asrwt>0</asrwt>
<pdfrwt beam="1">  1        1 0.87822286E-02 0.84063758E+02</pdfrwt>
<pdfrwt beam="2">  1       -1 0.47613068E-02 0.84063758E+02</pdfrwt>
<totfact> 0.11968846E+05</totfact>
</mgrwt>
</event>
<event>
 7    1  0.3607059E-009  0.9123566E+02  0.7818608E-02  0.1299887E+00
         -1   -1    0    0    0  501 -0.00000000000E+00  0.00000000000E+00  0.30922041207E+03  0.30922041211E+03  0.50400000000E-02 0.  1.
          1   -1    0    0  501    0  0.00000000000E+00 -0.00000000000E+00 -0.67297817933E+01  0.67297836806E+01  0.50400000000E-02 0. -1.
         23    2    1    2    0    0  0.71054273576E-14 -0.17763568394E-14  0.30249063028E+03  0.31595019579E+03  0.91235655397E+02 0.  0.
    9000005    2    3    3    0    0  0.43375237866E+02 -0.10636015857E+02  0.14696377619E+03  0.15413814916E+03  0.12871729528E+02 0.  0.
         22    1    3    3    0    0 -0.43375237866E+02  0.10636015857E+02  0.15552685409E+03  0.16181204663E+03  0.00000000000E+00 0.  1.
         22    1    4    4    0    0  0.24255785819E+02 -0.83164014381E-01  0.67401950535E+02  0.71633602436E+02  0.00000000000E+00 0.  1.
         22    1    4    4    0    0  0.19119452047E+02 -0.10552851843E+02  0.79561825657E+02  0.82504546726E+02  0.00000000000E+00 0.  1.
<mgrwt>
<rscale>  0 0.91235655E+02</rscale>
<asrwt>0</asrwt>
<pdfrwt beam="2">  1        1 0.10353511E-02 0.91235655E+02</pdfrwt>
<pdfrwt beam="1">  1       -1 0.47572376E-01 0.91235655E+02</pdfrwt>
<totfact> 0.59758637E+04</totfact>
</mgrwt>
</event>
<event>
 7    1  0.3607059E-009  0.1074179E+03  0.7818608E-02  0.1265428E+00
         -1   -1    0    0    0  501 -0.00000000000E+00  0.00000000000E+00  0.16195337435E+03  0.16195337443E+03  0.50400000000E-02 0.  1.
          1   -1    0    0  501    0  0.00000000000E+00 -0.00000000000E+00 -0.17811617644E+02  0.17811618357E+02  0.50400000000E-02 0. -1.
         23    2    1    2    0    0  0.71054273576E-14 -0.88817841970E-15  0.14414175671E+03  0.17976499279E+03  0.10741790635E+03 0.  0.
    9000005    2    3    3    0    0  0.53142182131E+02 -0.48950237665E+01  0.62162964611E+02  0.81945898880E+02  0.16862368225E+01 0.  0.
         22    1    3    3    0    0 -0.53142182131E+02  0.48950237665E+01  0.81978792095E+02  0.97819093907E+02  0.00000000000E+00 0.  1.
         22    1    4    4    0    0  0.15553540137E+02 -0.71975042414E+00  0.18573533843E+02  0.24236476866E+02  0.00000000000E+00 0.  1.
         22    1    4    4    0    0  0.37588641994E+02 -0.41752733423E+01  0.43589430768E+02  0.57709422014E+02  0.00000000000E+00 0.  1.
<mgrwt>
<rscale>  0 0.10741791E+03</rscale>
<asrwt>0</asrwt>
<pdfrwt beam="2">  1        1 0.27402489E-02 0.10741791E+03</pdfrwt>
<pdfrwt beam="1">  1       -1 0.24915904E-01 0.10741791E+03</pdfrwt>
<totfact> 0.47871159E+04</totfact>
</mgrwt>
</event>
<event>
 7    1  0.3607059E-009  0.9172643E+02  0.7818608E-02  0.1298724E+00
         -1   -1    0    0    0  501 -0.00000000000E+00  0.00000000000E+00  0.64789905362E+01  0.64789924965E+01  0.50400000000E-02 0.  1.
          1   -1    0    0  501    0  0.00000000000E+00 -0.00000000000E+00 -0.32465461265E+03  0.32465461269E+03  0.50400000000E-02 0. -1.
         23    2    1    2    0    0 -0.71054273576E-14  0.00000000000E+00 -0.31817562211E+03  0.33113360518E+03  0.91726430082E+02 0.  0.
    9000005    2    3    3    0    0  0.33606350615E+02  0.24918172880E+02 -0.98395100622E+02  0.10740658454E+03  0.10211583324E+02 0.  0.
         22    1    3    3    0    0 -0.33606350615E+02 -0.24918172880E+02 -0.21978052149E+03  0.22372702065E+03  0.00000000000E+00 0. -1.
         22    1    4    4    0    0  0.13982034448E+02  0.14157085997E+02 -0.36216135835E+02  0.41322256304E+02  0.00000000000E+00 0. -1.
         22    1    4    4    0    0  0.19624316167E+02  0.10761086883E+02 -0.62178964787E+02  0.66084328233E+02  0.00000000000E+00 0. -1.
<mgrwt>
<rscale>  0 0.91726430E+02</rscale>
<asrwt>0</asrwt>
<pdfrwt beam="2">  1        1 0.49946851E-01 0.91726430E+02</pdfrwt>
<pdfrwt beam="1">  1       -1 0.99676818E-03 0.91726430E+02</pdfrwt>
<totfact> 0.12797456E+05</totfact>
</mgrwt>
</event>
<event>
 7    1  0.3607059E-009  0.9154659E+02  0.7818608E-02  0.1299149E+00
         -1   -1    0    0    0  501 -0.00000000000E+00  0.00000000000E+00  0.54174760656E+01  0.54174784100E+01  0.50400000000E-02 0.  1.
          1   -1    0    0  501    0  0.00000000000E+00 -0.00000000000E+00 -0.38674723103E+03  0.38674723106E+03  0.50400000000E-02 0. -1.
         23    2    1    2    0    0  0.00000000000E+00  0.00000000000E+00 -0.38132975497E+03  0.39216470947E+03  0.91546585598E+02 0.  0.
    9000005    2    3    3    0    0  0.14312298062E+02  0.21725968372E+02 -0.35127367403E+03  0.35241263306E+03  0.11162898406E+02 0.  0.
         22    1    3    3    0    0 -0.14312298062E+02 -0.21725968372E+02 -0.30056080937E+02  0.39752076409E+02  0.00000000000E+00 0.  1.
         22    1    4    4    0    0  0.26841082510E+01  0.40980378555E+01 -0.14011368908E+03  0.14019930178E+03  0.00000000000E+00 0. -1.
         22    1    4    4    0    0  0.11628189811E+02  0.17627930516E+02 -0.21115998495E+03  0.21221333129E+03  0.00000000000E+00 0. -1.
<mgrwt>
<rscale>  0 0.91546586E+02</rscale>
<asrwt>0</asrwt>
<pdfrwt beam="2">  1        1 0.59499553E-01 0.91546586E+02</pdfrwt>
<pdfrwt beam="1">  1       -1 0.83345834E-03 0.91546586E+02</pdfrwt>
<totfact> 0.13270298E+05</totfact>
</mgrwt>
</event>
<event>
 7    1  0.3607059E-009  0.9205589E+02  0.7818608E-02  0.1297948E+00
         -1   -1    0    0    0  501 -0.00000000000E+00  0.00000000000E+00  0.13393872470E+02  0.13393873418E+02  0.50400000000E-02 0.  1.
          1   -1    0    0  501    0  0.00000000000E+00 -0.00000000000E+00 -0.15817468040E+03  0.15817468048E+03  0.50400000000E-02 0. -1.
         23    2    1    2    0    0  0.00000000000E+00  0.17763568394E-14 -0.14478080793E+03  0.17156855390E+03  0.92055887056E+02 0.  0.
    9000005    2    3    3    0    0 -0.40294756806E+02  0.12677766136E+02 -0.38369760982E+02  0.57079671936E+02  0.12071496846E+01 0.  0.
         22    1    3    3    0    0  0.40294756806E+02 -0.12677766136E+02 -0.10641104695E+03  0.11448888196E+03  0.00000000000E+00 0. -1.
         22    1    4    4    0    0 -0.10814662373E+02  0.29517467781E+01 -0.97572968155E+01  0.14861849563E+02  0.00000000000E+00 0. -1.
         22    1    4    4    0    0 -0.29480094432E+02  0.97260193574E+01 -0.28612464166E+02  0.42217822373E+02  0.00000000000E+00 0. -1.
<mgrwt>
<rscale>  0 0.92055887E+02</rscale>
<asrwt>0</asrwt>
<pdfrwt beam="2">  1        1 0.24334565E-01 0.92055887E+02</pdfrwt>
<pdfrwt beam="1">  1       -1 0.20605960E-02 0.92055887E+02</pdfrwt>
<totfact> 0.11034393E+05</totfact>
</mgrwt>
</event>
<event>
 7    1  0.3607059E-009  0.9098091E+02  0.7818608E-02  0.1300494E+00
          1   -1    0    0  501    0  0.00000000000E+00  0.00000000000E+00  0.14517927021E+02  0.14517927896E+02  0.50400000000E-02 0. -1.
         -1   -1    0    0    0  501 -0.00000000000E+00 -0.00000000000E+00 -0.14253973125E+03  0.14253973133E+03  0.50400000000E-02 0.  1.
         23    2    1    2    0    0  0.00000000000E+00 -0.35527136788E-14 -0.12802180422E+03  0.15705765923E+03  0.90980909899E+02 0.  0.
    9000005    2    3    3    0    0  0.17326084029E+02  0.28914923285E+02 -0.11805186660E+02  0.36051179344E+02  0.49050100575E+01 0.  0.
         22    1    3    3    0    0 -0.17326084029E+02 -0.28914923285E+02 -0.11621661756E+03  0.12100647989E+03  0.00000000000E+00 0.  1.
         22    1    4    4    0    0  0.16684725046E+01  0.40324894696E+01  0.17536707058E-01  0.43640668369E+01  0.00000000000E+00 0. -1.
         22    1    4    4    0    0  0.15657611525E+02  0.24882433815E+02 -0.11822723367E+02  0.31687112507E+02  0.00000000000E+00 0. -1.
<mgrwt>
<rscale>  0 0.90980910E+02</rscale>
<asrwt>0</asrwt>
<pdfrwt beam="1">  1        1 0.22335274E-02 0.90980910E+02</pdfrwt>
<pdfrwt beam="2">  1       -1 0.21929189E-01 0.90980910E+02</pdfrwt>
<totfact> 0.76096251E+04</totfact>
</mgrwt>
</event>
<event>
 7    1  0.3607059E-009  0.9667628E+02  0.7818608E-02  0.1287445E+00
          1   -1    0    0  501    0  0.00000000000E+00  0.00000000000E+00  0.28368076106E+02  0.28368076554E+02  0.50400000000E-02 0. -1.
         -1   -1    0    0    0  501 -0.00000000000E+00 -0.00000000000E+00 -0.82366387717E+02  0.82366387871E+02  0.50400000000E-02 0.  1.
         23    2    1    2    0    0 -0.22204460493E-15  0.71054273576E-14 -0.53998311611E+02  0.11073446442E+03  0.96676284344E+02 0.  0.
    9000005    2    3    3    0    0  0.19493217364E+01 -0.42118805767E+02 -0.13140362926E+00  0.42328050763E+02  0.37219564801E+01 0.  0.
         22    1    3    3    0    0 -0.19493217364E+01  0.42118805767E+02 -0.53866907982E+02  0.68406413661E+02  0.00000000000E+00 0.  1.
         22    1    4    4    0    0 -0.44445115560E+00 -0.74686088366E+01 -0.12073188755E+01  0.75786063132E+01  0.00000000000E+00 0.  1.
         22    1    4    4    0    0  0.23937728920E+01 -0.34650196930E+02  0.10759152462E+01  0.34749444450E+02  0.00000000000E+00 0.  1.
<mgrwt>
<rscale>  0 0.96676284E+02</rscale>
<asrwt>0</asrwt>
<pdfrwt beam="1">  1        1 0.43643195E-02 0.96676284E+02</pdfrwt>
<pdfrwt beam="2">  1       -1 0.12671752E-01 0.96676284E+02</pdfrwt>
<totfact> 0.72479955E+04</totfact>
</mgrwt>
</event>
<event>
 7    1  0.3607059E-009  0.9505539E+02  0.7818608E-02  0.1291051E+00
         -1   -1    0    0    0  501 -0.00000000000E+00  0.00000000000E+00  0.12657073035E+03  0.12657073045E+03  0.50400000000E-02 0.  1.
          1   -1    0    0  501    0  0.00000000000E+00 -0.00000000000E+00 -0.17846795592E+02  0.17846796303E+02  0.50400000000E-02 0. -1.
         23    2    1    2    0    0  0.00000000000E+00  0.88817841970E-15  0.10872393476E+03  0.14441752676E+03  0.95055394611E+02 0.  0.
    9000005    2    3    3    0    0 -0.42317959259E+02  0.44853901166E+01  0.85521974655E+02  0.95948367975E+02  0.90084831016E+01 0.  0.
         22    1    3    3    0    0  0.42317959259E+02 -0.44853901166E+01  0.23201960108E+02  0.48469158783E+02  0.00000000000E+00 0. -1.
         22    1    4    4    0    0 -0.27992635125E+02 -0.13607514670E+01  0.55023458894E+02  0.61749658253E+02  0.00000000000E+00 0.  1.
         22    1    4    4    0    0 -0.14325324134E+02  0.58461415836E+01  0.30498515762E+02  0.34198709722E+02  0.00000000000E+00 0.  1.
<mgrwt>
<rscale>  0 0.95055395E+02</rscale>
<asrwt>0</asrwt>
<pdfrwt beam="2">  1        1 0.27456609E-02 0.95055395E+02</pdfrwt>
<pdfrwt beam="1">  1       -1 0.19472420E-01 0.95055395E+02</pdfrwt>
<totfact> 0.69715203E+04</totfact>
</mgrwt>
</event>
<event>
 7    1  0.3607059E-009  0.9247299E+02  0.7818608E-02  0.1296971E+00
          1   -1    0    0  501    0  0.00000000000E+00  0.00000000000E+00  0.17324350414E+02  0.17324351148E+02  0.50400000000E-02 0. -1.
         -1   -1    0    0    0  501 -0.00000000000E+00 -0.00000000000E+00 -0.12339934791E+03  0.12339934801E+03  0.50400000000E-02 0.  1.
         23    2    1    2    0    0  0.00000000000E+00 -0.35527136788E-14 -0.10607499750E+03  0.14072369916E+03  0.92472992878E+02 0.  0.
    9000005    2    3    3    0    0 -0.42657222856E+02 -0.16478005938E+02 -0.60717664549E+02  0.76315229272E+02  0.67982416135E+01 0.  0.
         22    1    3    3    0    0  0.42657222856E+02  0.16478005938E+02 -0.45357332947E+02  0.64408469889E+02  0.00000000000E+00 0. -1.
         22    1    4    4    0    0 -0.33241154578E+02 -0.99957067698E+01 -0.43576010190E+02  0.55711373844E+02  0.00000000000E+00 0. -1.
         22    1    4    4    0    0 -0.94160682774E+01 -0.64822991680E+01 -0.17141654359E+02  0.20603855428E+02  0.00000000000E+00 0. -1.
<mgrwt>
<rscale>  0 0.92472993E+02</rscale>
<asrwt>0</asrwt>
<pdfrwt beam="1">  1        1 0.26652848E-02 0.92472993E+02</pdfrwt>
<pdfrwt beam="2">  1       -1 0.18984515E-01 0.92472993E+02</pdfrwt>
<totfact> 0.75276699E+04</totfact>
</mgrwt>
</event>
<event>
 7    1  0.3607059E-009  0.9144899E+02  0.7818608E-02  0.1299380E+00
          1   -1    0    0  501    0  0.00000000000E+00  0.00000000000E+00  0.10259012007E+04  0.10259012008E+04  0.50400000000E-02 0. -1.
         -1   -1    0    0    0  501 -0.00000000000E+00 -0.00000000000E+00 -0.20379412489E+01  0.20379474810E+01  0.50400000000E-02 0.  1.
         23    2    1    2    0    0  0.00000000000E+00  0.00000000000E+00  0.10238632595E+04  0.10279391482E+04  0.91448993079E+02 0.  0.
    9000005    2    3    3    0    0 -0.21605071987E+02  0.18047622619E+02  0.91486588777E+03  0.91536507102E+03  0.11005672427E+02 0.  0.
         22    1    3    3    0    0  0.21605071987E+02 -0.18047622619E+02  0.10899737173E+03  0.11257407722E+03  0.00000000000E+00 0.  1.
         22    1    4    4    0    0 -0.89514341413E+01  0.32734281479E+01  0.19077402837E+03  0.19101197189E+03  0.00000000000E+00 0. -1.
         22    1    4    4    0    0 -0.12653637846E+02  0.14774194471E+02  0.72409185940E+03  0.72435309913E+03  0.00000000000E+00 0. -1.
<mgrwt>
<rscale>  0 0.91448993E+02</rscale>
<asrwt>0</asrwt>
<pdfrwt beam="1">  1        1 0.15783101E+00 0.91448993E+02</pdfrwt>
<pdfrwt beam="2">  1       -1 0.31352979E-03 0.91448993E+02</pdfrwt>
<totfact> 0.13399044E+05</totfact>
</mgrwt>
</event>
<event>
 7    1  0.3607059E-009  0.1215407E+03  0.7818608E-02  0.1240577E+00
          1   -1    0    0  501    0  0.00000000000E+00  0.00000000000E+00  0.34057076826E+02  0.34057077199E+02  0.50400000000E-02 0. -1.
         -1   -1    0    0    0  501 -0.00000000000E+00 -0.00000000000E+00 -0.10843660304E+03  0.10843660316E+03  0.50400000000E-02 0.  1.
         23    2    1    2    0    0  0.00000000000E+00  0.00000000000E+00 -0.74379526219E+02  0.14249368036E+03  0.12154067230E+03 0.  0.
    9000005    2    3    3    0    0  0.19157662794E+02 -0.16237557228E+02  0.26200118039E+02  0.38826235386E+02  0.13796958380E+02 0.  0.
         22    1    3    3    0    0 -0.19157662794E+02  0.16237557228E+02 -0.10057964426E+03  0.10366744497E+03  0.00000000000E+00 0.  1.
         22    1    4    4    0    0  0.74985547656E+01 -0.13962637530E+02  0.10008466396E+02  0.18744411700E+02  0.00000000000E+00 0.  1.
         22    1    4    4    0    0  0.11659108028E+02 -0.22749196980E+01  0.16191651643E+02  0.20081823687E+02  0.00000000000E+00 0.  1.
<mgrwt>
<rscale>  0 0.12154067E+03</rscale>
<asrwt>0</asrwt>
<pdfrwt beam="1">  1        1 0.52395504E-02 0.12154067E+03</pdfrwt>
<pdfrwt beam="2">  1       -1 0.16682554E-01 0.12154067E+03</pdfrwt>
<totfact> 0.38052409E+04</totfact>
</mgrwt>
</event>
<event>
 7    1  0.3607059E-009  0.9086795E+02  0.7818608E-02  0.1300763E+00
          1   -1    0    0  501    0  0.00000000000E+00  0.00000000000E+00  0.14676428437E+02  0.14676429302E+02  0.50400000000E-02 0. -1.
         -1   -1    0    0    0  501 -0.00000000000E+00 -0.00000000000E+00 -0.14065043971E+03  0.14065043980E+03  0.50400000000E-02 0.  1.
         23    2    1    2    0    0  0.00000000000E+00  0.17763568394E-14 -0.12597401127E+03  0.15532686910E+03  0.90867952265E+02 0.  0.
    9000005    2    3    3    0    0  0.34833571752E+02 -0.14745697152E+02 -0.10589815356E+03  0.11250335490E+03  0.34311267577E+01 0.  0.
         22    1    3    3    0    0 -0.34833571752E+02  0.14745697152E+02 -0.20075857707E+02  0.42823514197E+02  0.00000000000E+00 0. -1.
         22    1    4    4    0    0  0.32038187558E+02 -0.14478219534E+02 -0.98871338899E+02  0.10493619947E+03  0.00000000000E+00 0. -1.
         22    1    4    4    0    0  0.27953841944E+01 -0.26747761805E+00 -0.70268146641E+01  0.75671554361E+01  0.00000000000E+00 0. -1.
<mgrwt>
<rscale>  0 0.90867952E+02</rscale>
<asrwt>0</asrwt>
<pdfrwt beam="1">  1        1 0.22579122E-02 0.90867952E+02</pdfrwt>
<pdfrwt beam="2">  1       -1 0.21638528E-01 0.90867952E+02</pdfrwt>
<totfact> 0.76571733E+04</totfact>
</mgrwt>
</event>
<event>
 7    1  0.3607059E-009  0.9420744E+02  0.7818608E-02  0.1292971E+00
         -1   -1    0    0    0  501 -0.00000000000E+00  0.00000000000E+00  0.37169730266E+02  0.37169730608E+02  0.50400000000E-02 0.  1.
          1   -1    0    0  501    0  0.00000000000E+00 -0.00000000000E+00 -0.59692667560E+02  0.59692667773E+02  0.50400000000E-02 0. -1.
         23    2    1    2    0    0  0.00000000000E+00  0.00000000000E+00 -0.22522937294E+02  0.96862398380E+02  0.94207438749E+02 0.  0.
    9000005    2    3    3    0    0 -0.17881827042E+02 -0.36308215661E+02 -0.34787702764E+02  0.54572083474E+02  0.11396568266E+02 0.  0.
         22    1    3    3    0    0  0.17881827042E+02  0.36308215661E+02  0.12264765470E+02  0.42290314906E+02  0.00000000000E+00 0.  1.
         22    1    4    4    0    0 -0.64087602318E+01 -0.72610148133E+01 -0.33222766971E+01  0.10238753160E+02  0.00000000000E+00 0.  1.
         22    1    4    4    0    0 -0.11473066810E+02 -0.29047200848E+02 -0.31465426067E+02  0.44333330314E+02  0.00000000000E+00 0.  1.
<mgrwt>
<rscale>  0 0.94207439E+02</rscale>
<asrwt>0</asrwt>
<pdfrwt beam="2">  1        1 0.91834873E-02 0.94207439E+02</pdfrwt>
<pdfrwt beam="1">  1       -1 0.57184201E-02 0.94207439E+02</pdfrwt>
<totfact> 0.87918380E+04</totfact>
</mgrwt>
</event>
<event>
 7    1  0.3607059E-009  0.8512799E+02  0.7818608E-02  0.1315098E+00
          1   -1    0    0  501    0  0.00000000000E+00  0.00000000000E+00  0.12598327585E+03  0.12598327595E+03  0.50400000000E-02 0. -1.
         -1   -1    0    0    0  501 -0.00000000000E+00 -0.00000000000E+00 -0.14380430753E+02  0.14380431636E+02  0.50400000000E-02 0.  1.
         23    2    1    2    0    0  0.00000000000E+00  0.00000000000E+00  0.11160284509E+03  0.14036370758E+03  0.85127994066E+02 0.  0.
    9000005    2    3    3    0    0  0.32946295311E+02 -0.22580922554E+02  0.78724372185E+02  0.88630252074E+02  0.79017952840E+01 0.  0.
         22    1    3    3    0    0 -0.32946295311E+02  0.22580922554E+02  0.32878472908E+02  0.51733455509E+02  0.00000000000E+00 0.  1.
         22    1    4    4    0    0  0.11016470343E+02 -0.33590371180E+01  0.24027985574E+02  0.26645634538E+02  0.00000000000E+00 0.  1.
         22    1    4    4    0    0  0.21929824969E+02 -0.19221885436E+02  0.54696386611E+02  0.61984617536E+02  0.00000000000E+00 0.  1.
<mgrwt>
<rscale>  0 0.85127994E+02</rscale>
<asrwt>0</asrwt>
<pdfrwt beam="1">  1        1 0.19382043E-01 0.85127994E+02</pdfrwt>
<pdfrwt beam="2">  1       -1 0.22123740E-02 0.85127994E+02</pdfrwt>
<totfact> 0.13074914E+05</totfact>
</mgrwt>
</event>
<event>
 7    1  0.3607059E-009  0.9231165E+02  0.7818608E-02  0.1297348E+00
          1   -1    0    0  501    0  0.00000000000E+00  0.00000000000E+00  0.79497120763E+02  0.79497120922E+02  0.50400000000E-02 0. -1.
         -1   -1    0    0    0  501 -0.00000000000E+00 -0.00000000000E+00 -0.26797955421E+02  0.26797955895E+02  0.50400000000E-02 0.  1.
         23    2    1    2    0    0  0.00000000000E+00 -0.35527136788E-14  0.52699165342E+02  0.10629507682E+03  0.92311653262E+02 0.  0.
    9000005    2    3    3    0    0  0.18786143565E+02  0.26147908022E+02 -0.11115190269E+02  0.34818477388E+02  0.72212622833E+01 0.  0.
         22    1    3    3    0    0 -0.18786143565E+02 -0.26147908022E+02  0.63814355611E+02  0.71476599429E+02  0.00000000000E+00 0. -1.
         22    1    4    4    0    0  0.37672754431E+01  0.71859121186E+01 -0.60081180277E+01  0.10095899141E+02  0.00000000000E+00 0. -1.
         22    1    4    4    0    0  0.15018868122E+02  0.18961995903E+02 -0.51070722415E+01  0.24722578247E+02  0.00000000000E+00 0. -1.
<mgrwt>
<rscale>  0 0.92311653E+02</rscale>
<asrwt>0</asrwt>
<pdfrwt beam="1">  1        1 0.12230326E-01 0.92311653E+02</pdfrwt>
<pdfrwt beam="2">  1       -1 0.41227625E-02 0.92311653E+02</pdfrwt>
<totfact> 0.97277684E+04</totfact>
</mgrwt>
</event>
<event>
 7    1  0.3607059E-009  0.9056818E+02  0.7818608E-02  0.1301482E+00
          1   -1    0    0  501    0  0.00000000000E+00  0.00000000000E+00  0.39393012367E+03  0.39393012370E+03  0.50400000000E-02 0. -1.
         -1   -1    0    0    0  501 -0.00000000000E+00 -0.00000000000E+00 -0.52056139757E+01  0.52056164156E+01  0.50400000000E-02 0.  1.
         23    2    1    2    0    0 -0.88817841970E-15 -0.17763568394E-14  0.38872450970E+03  0.39913574012E+03  0.90568176543E+02 0.  0.
    9000005    2    3    3    0    0  0.61621809775E+01  0.10605888090E+02  0.38633929399E+03  0.38663987718E+03  0.90491552229E+01 0.  0.
         22    1    3    3    0    0 -0.61621809775E+01 -0.10605888090E+02  0.23852157054E+01  0.12495862937E+02  0.00000000000E+00 0.  1.
         22    1    4    4    0    0  0.47455242057E+01  0.11780534669E+02  0.36515475654E+03  0.36537555641E+03  0.00000000000E+00 0. -1.
         22    1    4    4    0    0  0.14166567718E+01 -0.11746465795E+01  0.21184537447E+02  0.21264320770E+02  0.00000000000E+00 0. -1.
<mgrwt>
<rscale>  0 0.90568177E+02</rscale>
<asrwt>0</asrwt>
<pdfrwt beam="1">  1        1 0.60604655E-01 0.90568177E+02</pdfrwt>
<pdfrwt beam="2">  1       -1 0.80086361E-03 0.90568177E+02</pdfrwt>
<totfact> 0.13696523E+05</totfact>
</mgrwt>
</event>
<event>
 7    1  0.3607059E-009  0.9039273E+02  0.7818608E-02  0.1301903E+00
         -1   -1    0    0    0  501 -0.00000000000E+00  0.00000000000E+00  0.36415459014E+01  0.36415493892E+01  0.50400000000E-02 0.  1.
          1   -1    0    0  501    0  0.00000000000E+00 -0.00000000000E+00 -0.56094592973E+03  0.56094592975E+03  0.50400000000E-02 0. -1.
         23    2    1    2    0    0  0.35527136788E-14  0.00000000000E+00 -0.55730438383E+03  0.56458747914E+03  0.90392728519E+02 0.  0.
    9000005    2    3    3    0    0  0.17596556587E+02 -0.56943556388E+01 -0.53608208309E+03  0.53643698112E+03  0.62105088564E+01 0.  0.
         22    1    3    3    0    0 -0.17596556587E+02  0.56943556388E+01 -0.21222300739E+02  0.28150498015E+02  0.00000000000E+00 0.  1.
         22    1    4    4    0    0  0.15952757280E+02 -0.63602564990E+01 -0.51277555415E+03  0.51306306850E+03  0.00000000000E+00 0. -1.
         22    1    4    4    0    0  0.16437993076E+01  0.66590086027E+00 -0.23306528936E+02  0.23373912620E+02  0.00000000000E+00 0. -1.
<mgrwt>
<rscale>  0 0.90392729E+02</rscale>
<asrwt>0</asrwt>
<pdfrwt beam="2">  1        1 0.86299305E-01 0.90392729E+02</pdfrwt>
<pdfrwt beam="1">  1       -1 0.56023855E-03 0.90392729E+02</pdfrwt>
<totfact> 0.14415957E+05</totfact>
</mgrwt>
</event>
<event>
 7    1  0.3607059E-009  0.8952832E+02  0.7818608E-02  0.1303998E+00
         -1   -1    0    0    0  501 -0.00000000000E+00  0.00000000000E+00  0.20592824126E+01  0.20592885802E+01  0.50400000000E-02 0.  1.
          1   -1    0    0  501    0  0.00000000000E+00 -0.00000000000E+00 -0.97307057060E+03  0.97307057061E+03  0.50400000000E-02 0. -1.
         23    2    1    2    0    0  0.35527136788E-14  0.44408920985E-15 -0.97101128818E+03  0.97512985919E+03  0.89528322350E+02 0.  0.
    9000005    2    3    3    0    0  0.29646588417E+02  0.32188999622E+01 -0.84487388745E+03  0.84551533305E+03  0.13964641468E+02 0.  0.
         22    1    3    3    0    0 -0.29646588417E+02 -0.32188999622E+01 -0.12613740073E+03  0.12961452614E+03  0.00000000000E+00 0.  1.
         22    1    4    4    0    0  0.10179323544E+02  0.21234338724E+01 -0.48674507468E+03  0.48685613411E+03  0.00000000000E+00 0. -1.
         22    1    4    4    0    0  0.19467264872E+02  0.10954660898E+01 -0.35812881278E+03  0.35865919894E+03  0.00000000000E+00 0. -1.
<mgrwt>
<rscale>  0 0.89528322E+02</rscale>
<asrwt>0</asrwt>
<pdfrwt beam="2">  1        1 0.14970280E+00 0.89528322E+02</pdfrwt>
<pdfrwt beam="1">  1       -1 0.31681393E-03 0.89528322E+02</pdfrwt>
<totfact> 0.14371952E+05</totfact>
</mgrwt>
</event>
<event>
 7    1  0.3607059E-009  0.8876173E+02  0.7818608E-02  0.1305878E+00
         -1   -1    0    0    0  501 -0.00000000000E+00  0.00000000000E+00  0.26101527932E+02  0.26101528418E+02  0.50400000000E-02 0.  1.
          1   -1    0    0  501    0  0.00000000000E+00 -0.00000000000E+00 -0.75461518150E+02  0.75461518319E+02  0.50400000000E-02 0. -1.
         23    2    1    2    0    0 -0.35527136788E-14  0.35527136788E-14 -0.49359990219E+02  0.10156304674E+03  0.88761725018E+02 0.  0.
    9000005    2    3    3    0    0 -0.30009633584E+02  0.25836900447E+02 -0.47230955876E+02  0.61906315659E+02  0.57883670374E+01 0.  0.
         22    1    3    3    0    0  0.30009633584E+02 -0.25836900447E+02 -0.21290343423E+01  0.39656731078E+02  0.00000000000E+00 0.  1.
         22    1    4    4    0    0 -0.70038187427E+01  0.30783258727E+01 -0.95570452134E+01  0.12242004753E+02  0.00000000000E+00 0. -1.
         22    1    4    4    0    0 -0.23005814841E+02  0.22758574574E+02 -0.37673910663E+02  0.49664310906E+02  0.00000000000E+00 0. -1.
<mgrwt>
<rscale>  0 0.88761725E+02</rscale>
<asrwt>0</asrwt>
<pdfrwt beam="2">  1        1 0.11609464E-01 0.88761725E+02</pdfrwt>
<pdfrwt beam="1">  1       -1 0.40156198E-02 0.88761725E+02</pdfrwt>
<totfact> 0.10745234E+05</totfact>
</mgrwt>
</event>
<event>
 7    1  0.3607059E-009  0.8932066E+02  0.7818608E-02  0.1304505E+00
          1   -1    0    0  501    0  0.00000000000E+00  0.00000000000E+00  0.12345329179E+03  0.12345329190E+03  0.50400000000E-02 0. -1.
         -1   -1    0    0    0  501 -0.00000000000E+00 -0.00000000000E+00 -0.16156270753E+02  0.16156271539E+02  0.50400000000E-02 0.  1.
         23    2    1    2    0    0  0.00000000000E+00  0.35527136788E-14  0.10729702104E+03  0.13960956343E+03  0.89320655385E+02 0.  0.
    9000005    2    3    3    0    0 -0.29671864245E+02  0.28139322168E+02  0.27085848654E+02  0.49575830005E+02  0.72026900176E+01 0.  0.
         22    1    3    3    0    0  0.29671864245E+02 -0.28139322168E+02  0.80211172385E+02  0.90033733429E+02  0.00000000000E+00 0. -1.
         22    1    4    4    0    0 -0.12894657154E+02  0.77292554539E+01  0.11201028482E+02  0.18747709514E+02  0.00000000000E+00 0.  1.
         22    1    4    4    0    0 -0.16777207091E+02  0.20410066714E+02  0.15884820173E+02  0.30828120491E+02  0.00000000000E+00 0.  1.
<mgrwt>
<rscale>  0 0.89320655E+02</rscale>
<asrwt>0</asrwt>
<pdfrwt beam="1">  1        1 0.18992814E-01 0.89320655E+02</pdfrwt>
<pdfrwt beam="2">  1       -1 0.24855802E-02 0.89320655E+02</pdfrwt>
<totfact> 0.11446804E+05</totfact>
</mgrwt>
</event>
<event>
 7    1  0.3607059E-009  0.8937271E+02  0.7818608E-02  0.1304378E+00
         -1   -1    0    0    0  501 -0.00000000000E+00  0.00000000000E+00  0.17204792422E+02  0.17204793160E+02  0.50400000000E-02 0.  1.
          1   -1    0    0  501    0  0.00000000000E+00 -0.00000000000E+00 -0.11606477322E+03  0.11606477333E+03  0.50400000000E-02 0. -1.
         23    2    1    2    0    0  0.00000000000E+00  0.00000000000E+00 -0.98859980802E+02  0.13326956649E+03  0.89372711435E+02 0.  0.
    9000005    2    3    3    0    0  0.38968548637E+02 -0.19623155836E+02 -0.35322851853E+02  0.56194390315E+02  0.25474717026E+01 0.  0.
         22    1    3    3    0    0 -0.38968548637E+02  0.19623155836E+02 -0.63537128950E+02  0.77075176179E+02  0.00000000000E+00 0. -1.
         22    1    4    4    0    0  0.13817647498E+02 -0.77798349021E+01 -0.11579218186E+02  0.19634956259E+02  0.00000000000E+00 0.  1.
         22    1    4    4    0    0  0.25150901139E+02 -0.11843320934E+02 -0.23743633667E+02  0.36559434056E+02  0.00000000000E+00 0.  1.
<mgrwt>
<rscale>  0 0.89372711E+02</rscale>
<asrwt>0</asrwt>
<pdfrwt beam="2">  1        1 0.17856119E-01 0.89372711E+02</pdfrwt>
<pdfrwt beam="1">  1       -1 0.26468913E-02 0.89372711E+02</pdfrwt>
<totfact> 0.11307845E+05</totfact>
</mgrwt>
</event>
<event>
 7    1  0.3607059E-009  0.9140852E+02  0.7818608E-02  0.1299476E+00
          1   -1    0    0  501    0  0.00000000000E+00  0.00000000000E+00  0.37298518830E+02  0.37298519171E+02  0.50400000000E-02 0. -1.
         -1   -1    0    0    0  501 -0.00000000000E+00 -0.00000000000E+00 -0.56004347394E+02  0.56004347621E+02  0.50400000000E-02 0.  1.
         23    2    1    2    0    0  0.17763568394E-14  0.71054273576E-14 -0.18705828564E+02  0.93302866791E+02  0.91408516722E+02 0.  0.
    9000005    2    3    3    0    0  0.15580518781E+02 -0.41126222624E+02 -0.19386031288E+02  0.49318989875E+02  0.11064619304E+02 0.  0.
         22    1    3    3    0    0 -0.15580518781E+02  0.41126222624E+02  0.68020272459E+00  0.43983876916E+02  0.00000000000E+00 0. -1.
         22    1    4    4    0    0  0.14677964990E+02 -0.23560527198E+02 -0.11661576180E+02  0.30108694045E+02  0.00000000000E+00 0.  1.
         22    1    4    4    0    0  0.90255379135E+00 -0.17565695426E+02 -0.77244551081E+01  0.19210295830E+02  0.00000000000E+00 0.  1.
<mgrwt>
<rscale>  0 0.91408517E+02</rscale>
<asrwt>0</asrwt>
<pdfrwt beam="1">  1        1 0.57382337E-02 0.91408517E+02</pdfrwt>
<pdfrwt beam="2">  1       -1 0.86160535E-02 0.91408517E+02</pdfrwt>
<totfact> 0.89056839E+04</totfact>
</mgrwt>
</event>
<event>
 7    1  0.3607059E-009  0.8971317E+02  0.7818608E-02  0.1303548E+00
         -1   -1    0    0    0  501 -0.00000000000E+00  0.00000000000E+00  0.23076294538E+03  0.23076294543E+03  0.50400000000E-02 0.  1.
          1   -1    0    0  501    0  0.00000000000E+00 -0.00000000000E+00 -0.87193930258E+01  0.87193944824E+01  0.50400000000E-02 0. -1.
         23    2    1    2    0    0  0.00000000000E+00  0.00000000000E+00  0.22204355235E+03  0.23948233991E+03  0.89713165088E+02 0.  0.
    9000005    2    3    3    0    0  0.32123972707E+02  0.11836931556E+01  0.28243592606E+02  0.43034445680E+02  0.45729902411E+01 0.  0.
         22    1    3    3    0    0 -0.32123972707E+02 -0.11836931556E+01  0.19379995974E+03  0.19644789423E+03  0.00000000000E+00 0.  1.
         22    1    4    4    0    0  0.25401350022E+02  0.15882224475E+01  0.24509982057E+02  0.35333981575E+02  0.00000000000E+00 0.  1.
         22    1    4    4    0    0  0.67226226841E+01 -0.40452929189E+00  0.37336105493E+01  0.77004641051E+01  0.00000000000E+00 0.  1.
<mgrwt>
<rscale>  0 0.89713165E+02</rscale>
<asrwt>0</asrwt>
<pdfrwt beam="2">  1        1 0.13414453E-02 0.89713165E+02</pdfrwt>
<pdfrwt beam="1">  1       -1 0.35501989E-01 0.89713165E+02</pdfrwt>
<totfact> 0.69355455E+04</totfact>
</mgrwt>
</event>
<event>
 7    1  0.3607059E-009  0.9120390E+02  0.7818608E-02  0.1299962E+00
          1   -1    0    0  501    0  0.00000000000E+00  0.00000000000E+00  0.44427179845E+02  0.44427180131E+02  0.50400000000E-02 0. -1.
         -1   -1    0    0    0  501 -0.00000000000E+00 -0.00000000000E+00 -0.46807782890E+02  0.46807783161E+02  0.50400000000E-02 0.  1.
         23    2    1    2    0    0  0.00000000000E+00  0.00000000000E+00 -0.23806030444E+01  0.91234963292E+02  0.91203899347E+02 0.  0.
    9000005    2    3    3    0    0  0.37726562916E+02  0.16494395314E+02  0.15797965010E+02  0.46225864626E+02  0.13852661684E+02 0.  0.
         22    1    3    3    0    0 -0.37726562916E+02 -0.16494395314E+02 -0.18178568055E+02  0.45009098666E+02  0.00000000000E+00 0. -1.
         22    1    4    4    0    0  0.31855422757E+02  0.76806328335E+01  0.13159408518E+02  0.35311897602E+02  0.00000000000E+00 0. -1.
         22    1    4    4    0    0  0.58711401594E+01  0.88137624805E+01  0.26385564920E+01  0.10913967024E+02  0.00000000000E+00 0. -1.
<mgrwt>
<rscale>  0 0.91203899E+02</rscale>
<asrwt>0</asrwt>
<pdfrwt beam="1">  1        1 0.68349507E-02 0.91203899E+02</pdfrwt>
<pdfrwt beam="2">  1       -1 0.72011975E-02 0.91203899E+02</pdfrwt>
<totfact> 0.92037133E+04</totfact>
</mgrwt>
</event>
<event>
 7    1  0.4383580E-009  0.9912165E+02  0.7818608E-02  0.1282154E+00
          1   -1    0    0  501    0  0.00000000000E+00  0.00000000000E+00  0.16401475564E+03  0.16401475572E+03  0.50400000000E-02 0. -1.
         -1   -1    0    0    0  501 -0.00000000000E+00 -0.00000000000E+00 -0.14975940547E+02  0.14975941395E+02  0.50400000000E-02 0.  1.
         23    2    1    2    0    0 -0.35527136788E-14  0.00000000000E+00  0.14903881509E+03  0.17899069711E+03  0.99121648737E+02 0.  0.
    9000005    2    3    3    0    0 -0.29713307589E+02  0.84025065986E+01  0.14367176968E+03  0.14764922392E+03  0.14325960991E+02 0.  0.
         22    1    3    3    0    0  0.29713307589E+02 -0.84025065986E+01  0.53670454146E+01  0.31341473187E+02  0.00000000000E+00 0.  1.
         22    1    4    4    0    0 -0.26506486505E+02  0.27429380140E+01  0.12673357000E+03  0.12950488524E+03  0.00000000000E+00 0.  1.
         22    1    4    4    0    0 -0.32068210842E+01  0.56595685846E+01  0.16938199673E+02  0.18144338682E+02  0.00000000000E+00 0.  1.
<mgrwt>
<rscale>  0 0.99121649E+02</rscale>
<asrwt>0</asrwt>
<pdfrwt beam="1">  1        1 0.25233038E-01 0.99121649E+02</pdfrwt>
<pdfrwt beam="2">  1       -1 0.23039910E-02 0.99121649E+02</pdfrwt>
<totfact> 0.90928290E+04</totfact>
</mgrwt>
</event>
<event>
 7    1  0.3607059E-009  0.9097877E+02  0.7818608E-02  0.1300499E+00
         -1   -1    0    0    0  501 -0.00000000000E+00  0.00000000000E+00  0.26194188000E+02  0.26194188485E+02  0.50400000000E-02 0. -1.
          1   -1    0    0  501    0  0.00000000000E+00 -0.00000000000E+00 -0.78997827725E+02  0.78997827886E+02  0.50400000000E-02 0.  1.
         23    2    1    2    0    0  0.00000000000E+00  0.00000000000E+00 -0.52803639725E+02  0.10519201637E+03  0.90978766424E+02 0.  0.
    9000005    2    3    3    0    0  0.21708847149E+02 -0.34530305037E+02 -0.57277358366E+01  0.42904323065E+02  0.12014906130E+02 0.  0.
         22    1    3    3    0    0 -0.21708847149E+02  0.34530305037E+02 -0.47075903888E+02  0.62287693306E+02  0.00000000000E+00 0.  1.
         22    1    4    4    0    0  0.10600871251E+02 -0.16127886499E+02  0.33187594728E+01  0.19583190717E+02  0.00000000000E+00 0.  1.
         22    1    4    4    0    0  0.11107975898E+02 -0.18402418538E+02 -0.90464953094E+01  0.23321132348E+02  0.00000000000E+00 0.  1.
<mgrwt>
<rscale>  0 0.90978766E+02</rscale>
<asrwt>0</asrwt>
<pdfrwt beam="2">  1        1 0.12153512E-01 0.90978766E+02</pdfrwt>
<pdfrwt beam="1">  1       -1 0.40298752E-02 0.90978766E+02</pdfrwt>
<totfact> 0.10114658E+05</totfact>
</mgrwt>
</event>
<event>
 7    1  0.3607059E-009  0.9810662E+02  0.7818608E-02  0.1284329E+00
         -1   -1    0    0    0  501 -0.00000000000E+00  0.00000000000E+00  0.18781221140E+02  0.18781221817E+02  0.50400000000E-02 0.  1.
          1   -1    0    0  501    0  0.00000000000E+00 -0.00000000000E+00 -0.12811879077E+03  0.12811879087E+03  0.50400000000E-02 0. -1.
         23    2    1    2    0    0  0.71054273576E-14  0.00000000000E+00 -0.10933756963E+03  0.14690001268E+03  0.98106623601E+02 0.  0.
    9000005    2    3    3    0    0  0.40111385840E+02  0.12665137098E+02 -0.91854274411E+02  0.10134790424E+03  0.80536324236E+01 0.  0.
         22    1    3    3    0    0 -0.40111385840E+02 -0.12665137098E+02 -0.17483295215E+02  0.45552108439E+02  0.00000000000E+00 0.  1.
         22    1    4    4    0    0  0.14532787098E+02  0.84785964665E+01 -0.39280489975E+02  0.42732252358E+02  0.00000000000E+00 0. -1.
         22    1    4    4    0    0  0.25578598741E+02  0.41865406317E+01 -0.52573784436E+02  0.58615651885E+02  0.00000000000E+00 0. -1.
<mgrwt>
<rscale>  0 0.98106624E+02</rscale>
<asrwt>0</asrwt>
<pdfrwt beam="2">  1        1 0.19710583E-01 0.98106624E+02</pdfrwt>
<pdfrwt beam="1">  1       -1 0.28894188E-02 0.98106624E+02</pdfrwt>
<totfact> 0.89284750E+04</totfact>
</mgrwt>
</event>
<event>
 7    1  0.3607059E-009  0.8868100E+02  0.7818608E-02  0.1306078E+00
         -1   -1    0    0    0  501 -0.00000000000E+00  0.00000000000E+00  0.69229409933E+03  0.69229409934E+03  0.50400000000E-02 0.  1.
          1   -1    0    0  501    0  0.00000000000E+00 -0.00000000000E+00 -0.28399468444E+01  0.28399513165E+01  0.50400000000E-02 0. -1.
         23    2    1    2    0    0  0.00000000000E+00 -0.88817841970E-15  0.68945415248E+03  0.69513405066E+03  0.88681001427E+02 0.  0.
    9000005    2    3    3    0    0  0.10291355024E+02  0.40567841642E+01  0.68107697052E+03  0.68125793220E+03  0.11142752125E+02 0.  0.
         22    1    3    3    0    0 -0.10291355024E+02 -0.40567841642E+01  0.83771819635E+01  0.13876118464E+02  0.00000000000E+00 0. -1.
         22    1    4    4    0    0  0.11033758709E+02  0.35293659319E+00  0.58909323975E+03  0.58919666795E+03  0.00000000000E+00 0.  1.
         22    1    4    4    0    0 -0.74240368509E+00  0.37038475710E+01  0.91983730765E+02  0.92061264251E+02  0.00000000000E+00 0.  1.
<mgrwt>
<rscale>  0 0.88681001E+02</rscale>
<asrwt>0</asrwt>
<pdfrwt beam="2">  1        1 0.43691497E-03 0.88681001E+02</pdfrwt>
<pdfrwt beam="1">  1       -1 0.10650685E+00 0.88681001E+02</pdfrwt>
<totfact> 0.40001172E+04</totfact>
</mgrwt>
</event>
<event>
 7    1  0.3607059E-009  0.9124455E+02  0.7818608E-02  0.1299866E+00
         -1   -1    0    0    0  501 -0.00000000000E+00  0.00000000000E+00  0.65940357435E+02  0.65940357627E+02  0.50400000000E-02 0.  1.
          1   -1    0    0  501    0  0.00000000000E+00 -0.00000000000E+00 -0.31564765407E+02  0.31564765810E+02  0.50400000000E-02 0. -1.
         23    2    1    2    0    0  0.71054273576E-14  0.00000000000E+00  0.34375592027E+02  0.97505123437E+02  0.91244549258E+02 0.  0.
    9000005    2    3    3    0    0  0.41653638064E+02 -0.16412268161E+02  0.23714307136E+02  0.51482834210E+02  0.91501773295E+01 0.  0.
         22    1    3    3    0    0 -0.41653638064E+02  0.16412268161E+02  0.10661284891E+02  0.46022289227E+02  0.00000000000E+00 0. -1.
         22    1    4    4    0    0  0.34172610660E+02 -0.17033361453E+02  0.20140638963E+02  0.43168832038E+02  0.00000000000E+00 0. -1.
         22    1    4    4    0    0  0.74810274041E+01  0.62109329188E+00  0.35736681736E+01  0.83140021718E+01  0.00000000000E+00 0. -1.
<mgrwt>
<rscale>  0 0.91244549E+02</rscale>
<asrwt>0</asrwt>
<pdfrwt beam="2">  1        1 0.48561178E-02 0.91244549E+02</pdfrwt>
<pdfrwt beam="1">  1       -1 0.10144670E-01 0.91244549E+02</pdfrwt>
<totfact> 0.87207664E+04</totfact>
</mgrwt>
</event>
<event>
 7    1  0.3607059E-009  0.8629637E+02  0.7818608E-02  0.1312077E+00
          1   -1    0    0  501    0  0.00000000000E+00  0.00000000000E+00  0.85665781230E+03  0.85665781232E+03  0.50400000000E-02 0. -1.
         -1   -1    0    0    0  501 -0.00000000000E+00 -0.00000000000E+00 -0.21732872568E+01  0.21732931009E+01  0.50400000000E-02 0.  1.
         23    2    1    2    0    0  0.00000000000E+00  0.00000000000E+00  0.85448452504E+03  0.85883110542E+03  0.86296373569E+02 0.  0.
    9000005    2    3    3    0    0 -0.10127420196E+02 -0.15081437076E+02  0.81625723209E+03  0.81650687700E+03  0.88089086707E+01 0.  0.
         22    1    3    3    0    0  0.10127420196E+02  0.15081437076E+02  0.38227292956E+02  0.42324228415E+02  0.00000000000E+00 0.  1.
         22    1    4    4    0    0 -0.84294956296E+01 -0.13747059990E+02  0.78881339847E+03  0.78897820988E+03  0.00000000000E+00 0. -1.
         22    1    4    4    0    0 -0.16979245666E+01 -0.13343770862E+01  0.27443833614E+02  0.27528667121E+02  0.00000000000E+00 0. -1.
<mgrwt>
<rscale>  0 0.86296374E+02</rscale>
<asrwt>0</asrwt>
<pdfrwt beam="1">  1        1 0.13179358E+00 0.86296374E+02</pdfrwt>
<pdfrwt beam="2">  1       -1 0.33435216E-03 0.86296374E+02</pdfrwt>
<totfact> 0.16212364E+05</totfact>
</mgrwt>
</event>
<event>
 7    1  0.3607059E-009  0.9162851E+02  0.7818608E-02  0.1298955E+00
         -1   -1    0    0    0  501 -0.00000000000E+00  0.00000000000E+00  0.20237382053E+02  0.20237382681E+02  0.50400000000E-02 0.  1.
          1   -1    0    0  501    0  0.00000000000E+00 -0.00000000000E+00 -0.10371628213E+03  0.10371628225E+03  0.50400000000E-02 0. -1.
         23    2    1    2    0    0  0.00000000000E+00  0.00000000000E+00 -0.83478900078E+02  0.12395366493E+03  0.91628512442E+02 0.  0.
    9000005    2    3    3    0    0 -0.36619623325E+02 -0.25917514196E+02 -0.46545479935E+02  0.65843494757E+02  0.12496789383E+02 0.  0.
         22    1    3    3    0    0  0.36619623325E+02  0.25917514196E+02 -0.36933420143E+02  0.58110170177E+02  0.00000000000E+00 0. -1.
         22    1    4    4    0    0 -0.34337453114E+02 -0.25656363448E+02 -0.46880231636E+02  0.63522167705E+02  0.00000000000E+00 0. -1.
         22    1    4    4    0    0 -0.22821702103E+01 -0.26115074762E+00  0.33475170006E+00  0.23213270520E+01  0.00000000000E+00 0. -1.
<mgrwt>
<rscale>  0 0.91628512E+02</rscale>
<asrwt>0</asrwt>
<pdfrwt beam="2">  1        1 0.15956351E-01 0.91628512E+02</pdfrwt>
<pdfrwt beam="1">  1       -1 0.31134435E-02 0.91628512E+02</pdfrwt>
<totfact> 0.10368367E+05</totfact>
</mgrwt>
</event>
<event>
 7    1  0.3607059E-009  0.9408218E+02  0.7818608E-02  0.1293257E+00
          1   -1    0    0  501    0  0.00000000000E+00  0.00000000000E+00  0.16235559670E+03  0.16235559678E+03  0.50400000000E-02 0. -1.
         -1   -1    0    0    0  501 -0.00000000000E+00 -0.00000000000E+00 -0.13629736723E+02  0.13629737654E+02  0.50400000000E-02 0.  1.
         23    2    1    2    0    0 -0.17763568394E-14 -0.35527136788E-14  0.14872585998E+03  0.17598533443E+03  0.94082179552E+02 0.  0.
    9000005    2    3    3    0    0  0.11046524008E+02  0.28686468583E+02  0.14074036435E+03  0.14422518152E+03  0.69364007462E+01 0.  0.
         22    1    3    3    0    0 -0.11046524008E+02 -0.28686468583E+02  0.79854956255E+01  0.31760152909E+02  0.00000000000E+00 0.  1.
         22    1    4    4    0    0  0.70214154160E+01  0.23636465017E+02  0.11981996040E+03  0.12233072248E+03  0.00000000000E+00 0. -1.
         22    1    4    4    0    0  0.40251085915E+01  0.50500035655E+01  0.20920403952E+02  0.21894459041E+02  0.00000000000E+00 0. -1.
<mgrwt>
<rscale>  0 0.94082180E+02</rscale>
<asrwt>0</asrwt>
<pdfrwt beam="1">  1        1 0.24977785E-01 0.94082180E+02</pdfrwt>
<pdfrwt beam="2">  1       -1 0.20968826E-02 0.94082180E+02</pdfrwt>
<totfact> 0.10454932E+05</totfact>
</mgrwt>
</event>
<event>
 7    1  0.3607059E-009  0.9320164E+02  0.7818608E-02  0.1295279E+00
          1   -1    0    0  501    0  0.00000000000E+00  0.00000000000E+00  0.66077069332E+03  0.66077069334E+03  0.50400000000E-02 0. -1.
         -1   -1    0    0    0  501 -0.00000000000E+00 -0.00000000000E+00 -0.32865185689E+01  0.32865224334E+01  0.50400000000E-02 0.  1.
         23    2    1    2    0    0  0.00000000000E+00  0.00000000000E+00  0.65748417475E+03  0.66405721577E+03  0.93201640391E+02 0.  0.
    9000005    2    3    3    0    0  0.48074182283E+01  0.25794111289E+02  0.60303904500E+03  0.60361948252E+03  0.34557827333E+01 0.  0.
         22    1    3    3    0    0 -0.48074182283E+01 -0.25794111289E+02  0.54445129745E+02  0.60437733248E+02  0.00000000000E+00 0.  1.
         22    1    4    4    0    0  0.25099188784E-02  0.49539577357E-02  0.10526855836E+02  0.10526857301E+02  0.00000000000E+00 0. -1.
         22    1    4    4    0    0  0.48049083094E+01  0.25789157331E+02  0.59251218917E+03  0.59309262522E+03  0.00000000000E+00 0. -1.
<mgrwt>
<rscale>  0 0.93201640E+02</rscale>
<asrwt>0</asrwt>
<pdfrwt beam="1">  1        1 0.10165700E+00 0.93201640E+02</pdfrwt>
<pdfrwt beam="2">  1       -1 0.50561867E-03 0.93201640E+02</pdfrwt>
<totfact> 0.13410092E+05</totfact>
</mgrwt>
</event>
<event>
 7    1  0.3607059E-009  0.9245008E+02  0.7818608E-02  0.1297025E+00
          1   -1    0    0  501    0  0.00000000000E+00  0.00000000000E+00  0.45176652018E+01  0.45176680131E+01  0.50400000000E-02 0. -1.
         -1   -1    0    0    0  501 -0.00000000000E+00 -0.00000000000E+00 -0.47297737307E+03  0.47297737309E+03  0.50400000000E-02 0.  1.
         23    2    1    2    0    0  0.00000000000E+00  0.00000000000E+00 -0.46845970786E+03  0.47749504111E+03  0.92450075114E+02 0.  0.
    9000005    2    3    3    0    0 -0.63542587434E+01  0.44908809046E+02 -0.24136625015E+03  0.24591650957E+03  0.12652479243E+02 0.  0.
         22    1    3    3    0    0  0.63542587434E+01 -0.44908809046E+02 -0.22709345771E+03  0.23157853154E+03  0.00000000000E+00 0.  1.
         22    1    4    4    0    0 -0.34052013232E+01  0.74455134569E+01 -0.24869600586E+02  0.26182591544E+02  0.00000000000E+00 0.  1.
         22    1    4    4    0    0 -0.29490574202E+01  0.37463295589E+02 -0.21649664957E+03  0.21973391802E+03  0.00000000000E+00 0.  1.
<mgrwt>
<rscale>  0 0.92450075E+02</rscale>
<asrwt>0</asrwt>
<pdfrwt beam="1">  1        1 0.69502601E-03 0.92450075E+02</pdfrwt>
<pdfrwt beam="2">  1       -1 0.72765711E-01 0.92450075E+02</pdfrwt>
<totfact> 0.46902592E+04</totfact>
</mgrwt>
</event>
<event>
 7    1  0.3607059E-009  0.9271179E+02  0.7818608E-02  0.1296414E+00
          1   -1    0    0  501    0  0.00000000000E+00  0.00000000000E+00  0.85778849082E+01  0.85778863888E+01  0.50400000000E-02 0. -1.
         -1   -1    0    0    0  501 -0.00000000000E+00 -0.00000000000E+00 -0.25051265905E+03  0.25051265910E+03  0.50400000000E-02 0.  1.
         23    2    1    2    0    0  0.00000000000E+00  0.00000000000E+00 -0.24193477414E+03  0.25909054549E+03  0.92711789019E+02 0.  0.
    9000005    2    3    3    0    0  0.41625092665E+02  0.10132529208E+02 -0.82103223212E+02  0.93617160439E+02  0.13708281413E+02 0.  0.
         22    1    3    3    0    0 -0.41625092665E+02 -0.10132529208E+02 -0.15983155093E+03  0.16547338505E+03  0.00000000000E+00 0. -1.
         22    1    4    4    0    0  0.94553733780E+00 -0.15942052241E+00 -0.11102364579E+02  0.11143695751E+02  0.00000000000E+00 0.  1.
         22    1    4    4    0    0  0.40679555327E+02  0.10291949731E+02 -0.71000858634E+02  0.82473464688E+02  0.00000000000E+00 0.  1.
<mgrwt>
<rscale>  0 0.92711789E+02</rscale>
<asrwt>0</asrwt>
<pdfrwt beam="1">  1        1 0.13196749E-02 0.92711789E+02</pdfrwt>
<pdfrwt beam="2">  1       -1 0.38540404E-01 0.92711789E+02</pdfrwt>
<totfact> 0.61955806E+04</totfact>
</mgrwt>
</event>
<event>
 7    1  0.3607059E-009  0.9103457E+02  0.7818608E-02  0.1300366E+00
          1   -1    0    0  501    0  0.00000000000E+00  0.00000000000E+00  0.84123386613E+01  0.84123401710E+01  0.50400000000E-02 0. -1.
         -1   -1    0    0    0  501 -0.00000000000E+00 -0.00000000000E+00 -0.24628382660E+03  0.24628382665E+03  0.50400000000E-02 0.  1.
         23    2    1    2    0    0  0.00000000000E+00 -0.35527136788E-14 -0.23787148794E+03  0.25469616682E+03  0.91034568269E+02 0.  0.
    9000005    2    3    3    0    0  0.32181444806E+02  0.28240888851E+02 -0.15882440621E+03  0.16479825626E+03  0.10004002544E+02 0.  0.
         22    1    3    3    0    0 -0.32181444806E+02 -0.28240888851E+02 -0.79047081731E+02  0.89897910561E+02  0.00000000000E+00 0. -1.
         22    1    4    4    0    0  0.11282758450E+02  0.73841882993E+01 -0.67009402051E+02  0.68352665188E+02  0.00000000000E+00 0. -1.
         22    1    4    4    0    0  0.20898686357E+02  0.20856700552E+02 -0.91815004155E+02  0.96445591073E+02  0.00000000000E+00 0. -1.
<mgrwt>
<rscale>  0 0.91034568E+02</rscale>
<asrwt>0</asrwt>
<pdfrwt beam="1">  1        1 0.12942063E-02 0.91034568E+02</pdfrwt>
<pdfrwt beam="2">  1       -1 0.37889814E-01 0.91034568E+02</pdfrwt>
<totfact> 0.65358680E+04</totfact>
</mgrwt>
</event>
<event>
 7    1  0.3607059E-009  0.9212120E+02  0.7818608E-02  0.1297795E+00
          1   -1    0    0  501    0  0.00000000000E+00  0.00000000000E+00  0.13427587606E+03  0.13427587616E+03  0.50400000000E-02 0. -1.
         -1   -1    0    0    0  501 -0.00000000000E+00 -0.00000000000E+00 -0.15800149967E+02  0.15800150771E+02  0.50400000000E-02 0.  1.
         23    2    1    2    0    0  0.00000000000E+00  0.00000000000E+00  0.11847572609E+03  0.15007602693E+03  0.92121203774E+02 0.  0.
    9000005    2    3    3    0    0 -0.30862080494E+02  0.25462060866E+02  0.94156495375E+02  0.10325498958E+03  0.13977220576E+02 0.  0.
         22    1    3    3    0    0  0.30862080494E+02 -0.25462060866E+02  0.24319230720E+02  0.46821037352E+02  0.00000000000E+00 0. -1.
         22    1    4    4    0    0 -0.70224891437E+01  0.19498830544E+01  0.30161893574E+02  0.31029940729E+02  0.00000000000E+00 0. -1.
         22    1    4    4    0    0 -0.23839591350E+02  0.23512177812E+02  0.63994601801E+02  0.72225048846E+02  0.00000000000E+00 0. -1.
<mgrwt>
<rscale>  0 0.92121204E+02</rscale>
<asrwt>0</asrwt>
<pdfrwt beam="1">  1        1 0.20657828E-01 0.92121204E+02</pdfrwt>
<pdfrwt beam="2">  1       -1 0.24307923E-02 0.92121204E+02</pdfrwt>
<totfact> 0.10687537E+05</totfact>
</mgrwt>
</event>
<event>
 7    1  0.3607059E-009  0.9010077E+02  0.7818608E-02  0.1302608E+00
         -1   -1    0    0    0  501 -0.00000000000E+00  0.00000000000E+00  0.13473890181E+02  0.13473891124E+02  0.50400000000E-02 0.  1.
          1   -1    0    0  501    0  0.00000000000E+00 -0.00000000000E+00 -0.15062741544E+03  0.15062741552E+03  0.50400000000E-02 0. -1.
         23    2    1    2    0    0  0.00000000000E+00  0.00000000000E+00 -0.13715352525E+03  0.16410130664E+03  0.90100773319E+02 0.  0.
    9000005    2    3    3    0    0 -0.32850736659E+02  0.11008650492E+02 -0.18525057804E+02  0.40517025385E+02  0.99040544592E+01 0.  0.
         22    1    3    3    0    0  0.32850736659E+02 -0.11008650492E+02 -0.11862846745E+03  0.12358428126E+03  0.00000000000E+00 0. -1.
         22    1    4    4    0    0 -0.29219499501E+02  0.78459626485E+01 -0.12330093668E+02  0.32670621219E+02  0.00000000000E+00 0. -1.
         22    1    4    4    0    0 -0.36312371575E+01  0.31626878438E+01 -0.61949641355E+01  0.78464041657E+01  0.00000000000E+00 0. -1.
<mgrwt>
<rscale>  0 0.90100773E+02</rscale>
<asrwt>0</asrwt>
<pdfrwt beam="2">  1        1 0.23173447E-01 0.90100773E+02</pdfrwt>
<pdfrwt beam="1">  1       -1 0.20729064E-02 0.90100773E+02</pdfrwt>
<totfact> 0.11586592E+05</totfact>
</mgrwt>
</event>
<event>
 7    1  0.3607059E-009  0.9166936E+02  0.7818608E-02  0.1298859E+00
         -1   -1    0    0    0  501 -0.00000000000E+00  0.00000000000E+00  0.71981846282E+01  0.71981863926E+01  0.50400000000E-02 0.  1.
          1   -1    0    0  501    0  0.00000000000E+00 -0.00000000000E+00 -0.29185378948E+03  0.29185378953E+03  0.50400000000E-02 0. -1.
         23    2    1    2    0    0  0.00000000000E+00 -0.71054273576E-14 -0.28465560485E+03  0.29905197592E+03  0.91669356526E+02 0.  0.
    9000005    2    3    3    0    0 -0.77858920478E+01 -0.39818429733E+02 -0.74489151281E+02  0.85005098649E+02  0.55772463111E+01 0.  0.
         22    1    3    3    0    0  0.77858920478E+01  0.39818429733E+02 -0.21016645357E+03  0.21404687727E+03  0.00000000000E+00 0. -1.
         22    1    4    4    0    0 -0.15754323529E+00 -0.10562992697E+02 -0.16171669770E+02  0.19316431807E+02  0.00000000000E+00 0.  1.
         22    1    4    4    0    0 -0.76283488125E+01 -0.29255437035E+02 -0.58317481511E+02  0.65688666843E+02  0.00000000000E+00 0.  1.
<mgrwt>
<rscale>  0 0.91669357E+02</rscale>
<asrwt>0</asrwt>
<pdfrwt beam="2">  1        1 0.44900574E-01 0.91669357E+02</pdfrwt>
<pdfrwt beam="1">  1       -1 0.11074134E-02 0.91669357E+02</pdfrwt>
<totfact> 0.12562999E+05</totfact>
</mgrwt>
</event>
<event>
 7    1  0.3607059E-009  0.9123623E+02  0.7818608E-02  0.1299885E+00
         -1   -1    0    0    0  501 -0.00000000000E+00  0.00000000000E+00  0.10023334322E+03  0.10023334334E+03  0.50400000000E-02 0.  1.
          1   -1    0    0  501    0  0.00000000000E+00 -0.00000000000E+00 -0.20761676383E+02  0.20761676994E+02  0.50400000000E-02 0. -1.
         23    2    1    2    0    0  0.00000000000E+00 -0.35527136788E-14  0.79471666835E+02  0.12099502034E+03  0.91236227000E+02 0.  0.
    9000005    2    3    3    0    0 -0.15725654302E+02  0.28601796883E+02  0.77614545686E+00  0.35799104514E+02  0.14683817422E+02 0.  0.
         22    1    3    3    0    0  0.15725654302E+02 -0.28601796883E+02  0.78695521378E+02  0.85195915825E+02  0.00000000000E+00 0.  1.
         22    1    4    4    0    0  0.10305934491E+01  0.75391320491E+01  0.41604069863E+01  0.86723480790E+01  0.00000000000E+00 0.  1.
         22    1    4    4    0    0 -0.16756247751E+02  0.21062664834E+02 -0.33842615294E+01  0.27126756435E+02  0.00000000000E+00 0.  1.
<mgrwt>
<rscale>  0 0.91236227E+02</rscale>
<asrwt>0</asrwt>
<pdfrwt beam="2">  1        1 0.31941042E-02 0.91236227E+02</pdfrwt>
<pdfrwt beam="1">  1       -1 0.15420514E-01 0.91236227E+02</pdfrwt>
<totfact> 0.81198886E+04</totfact>
</mgrwt>
</event>
<event>
 7    1  0.3607059E-009  0.9364361E+02  0.7818608E-02  0.1294261E+00
         -1   -1    0    0    0  501 -0.00000000000E+00  0.00000000000E+00  0.28473735185E+03  0.28473735190E+03  0.50400000000E-02 0.  1.
          1   -1    0    0  501    0  0.00000000000E+00 -0.00000000000E+00 -0.76993107435E+01  0.76993123931E+01  0.50400000000E-02 0. -1.
         23    2    1    2    0    0  0.00000000000E+00  0.35527136788E-14  0.27703804111E+03  0.29243666429E+03  0.93643613769E+02 0.  0.
    9000005    2    3    3    0    0  0.31429674184E+02 -0.22356714380E+02  0.21841860959E+03  0.22226626563E+03  0.14420704647E+02 0.  0.
         22    1    3    3    0    0 -0.31429674184E+02  0.22356714380E+02  0.58619431518E+02  0.70170398664E+02  0.00000000000E+00 0. -1.
         22    1    4    4    0    0  0.19535328337E+02 -0.17176402806E+02  0.10801885654E+03  0.11110684603E+03  0.00000000000E+00 0.  1.
         22    1    4    4    0    0  0.11894345847E+02 -0.51803115738E+01  0.11039975306E+03  0.11115941960E+03  0.00000000000E+00 0.  1.
<mgrwt>
<rscale>  0 0.93643614E+02</rscale>
<asrwt>0</asrwt>
<pdfrwt beam="2">  1        1 0.11845096E-02 0.93643614E+02</pdfrwt>
<pdfrwt beam="1">  1       -1 0.43805743E-01 0.93643614E+02</pdfrwt>
<totfact> 0.57644825E+04</totfact>
</mgrwt>
</event>
<event>
 7    1  0.3607059E-009  0.9057087E+02  0.7818608E-02  0.1301475E+00
         -1   -1    0    0    0  501 -0.00000000000E+00  0.00000000000E+00  0.32052704116E+03  0.32052704120E+03  0.50400000000E-02 0.  1.
          1   -1    0    0  501    0  0.00000000000E+00 -0.00000000000E+00 -0.63981192418E+01  0.63981212268E+01  0.50400000000E-02 0. -1.
         23    2    1    2    0    0  0.00000000000E+00  0.00000000000E+00  0.31412892192E+03  0.32692516243E+03  0.90570868617E+02 0.  0.
    9000005    2    3    3    0    0  0.38144720106E+02 -0.21358268501E+02  0.12786664892E+03  0.13560127566E+03  0.11253032881E+02 0.  0.
         22    1    3    3    0    0 -0.38144720106E+02  0.21358268501E+02  0.18626227300E+03  0.19132388677E+03  0.00000000000E+00 0.  1.
         22    1    4    4    0    0  0.16572265663E+02 -0.69334894603E+01  0.68383864446E+02  0.70704074719E+02  0.00000000000E+00 0. -1.
         22    1    4    4    0    0  0.21572454442E+02 -0.14424779041E+02  0.59482784471E+02  0.64897200937E+02  0.00000000000E+00 0. -1.
<mgrwt>
<rscale>  0 0.90570869E+02</rscale>
<asrwt>0</asrwt>
<pdfrwt beam="2">  1        1 0.98432638E-03 0.90570869E+02</pdfrwt>
<pdfrwt beam="1">  1       -1 0.49311843E-01 0.90570869E+02</pdfrwt>
<totfact> 0.60022811E+04</totfact>
</mgrwt>
</event>
<event>
 7    1  0.3607059E-009  0.9129835E+02  0.7818608E-02  0.1299738E+00
         -1   -1    0    0    0  501 -0.00000000000E+00  0.00000000000E+00  0.35019631386E+01  0.35019667653E+01  0.50400000000E-02 0.  1.
          1   -1    0    0  501    0  0.00000000000E+00 -0.00000000000E+00 -0.59505078431E+03  0.59505078433E+03  0.50400000000E-02 0. -1.
         23    2    1    2    0    0 -0.35527136788E-14  0.00000000000E+00 -0.59154882117E+03  0.59855275109E+03  0.91298346185E+02 0.  0.
    9000005    2    3    3    0    0  0.29566104938E+02  0.34256540534E+02 -0.32737979155E+03  0.33053607001E+03  0.53759213787E+01 0.  0.
         22    1    3    3    0    0 -0.29566104938E+02 -0.34256540534E+02 -0.26416902962E+03  0.26801668108E+03  0.00000000000E+00 0.  1.
         22    1    4    4    0    0  0.28197886713E+01  0.27103461849E+01 -0.19277358254E+02  0.19670122669E+02  0.00000000000E+00 0.  1.
         22    1    4    4    0    0  0.26746316266E+02  0.31546194349E+02 -0.30810243330E+03  0.31086594734E+03  0.00000000000E+00 0.  1.
<mgrwt>
<rscale>  0 0.91298346E+02</rscale>
<asrwt>0</asrwt>
<pdfrwt beam="2">  1        1 0.91546194E-01 0.91298346E+02</pdfrwt>
<pdfrwt beam="1">  1       -1 0.53876431E-03 0.91298346E+02</pdfrwt>
<totfact> 0.14101725E+05</totfact>
</mgrwt>
</event>
<event>
 7    1  0.3607059E-009  0.9149206E+02  0.7818608E-02  0.1299278E+00
         -1   -1    0    0    0  501 -0.00000000000E+00  0.00000000000E+00  0.14083650335E+01  0.14083740516E+01  0.50400000000E-02 0. -1.
          1   -1    0    0  501    0  0.00000000000E+00 -0.00000000000E+00 -0.14859021886E+04  0.14859021886E+04  0.50400000000E-02 0.  1.
         23    2    1    2    0    0 -0.88817841970E-15  0.00000000000E+00 -0.14844938235E+04  0.14873105626E+04  0.91492063008E+02 0.  0.
    9000005    2    3    3    0    0 -0.66806309672E+01 -0.20865100473E+02 -0.13928001311E+04  0.13930358763E+04  0.13295271728E+02 0.  0.
         22    1    3    3    0    0  0.66806309672E+01  0.20865100473E+02 -0.91693692428E+02  0.94274686311E+02  0.00000000000E+00 0. -1.
         22    1    4    4    0    0 -0.22793486746E+01 -0.27393759644E+01 -0.62158890010E+03  0.62159911546E+03  0.00000000000E+00 0.  1.
         22    1    4    4    0    0 -0.44012822926E+01 -0.18125724508E+02 -0.77121123101E+03  0.77143676086E+03  0.00000000000E+00 0.  1.
<mgrwt>
<rscale>  0 0.91492063E+02</rscale>
<asrwt>0</asrwt>
<pdfrwt beam="2">  1        1 0.22859908E+00 0.91492063E+02</pdfrwt>
<pdfrwt beam="1">  1       -1 0.21667343E-03 0.91492063E+02</pdfrwt>
<totfact> 0.11034602E+05</totfact>
</mgrwt>
</event>
<event>
 7    1  0.3607059E-009  0.9181756E+02  0.7818608E-02  0.1298509E+00
         -1   -1    0    0    0  501 -0.00000000000E+00  0.00000000000E+00  0.19110079277E+02  0.19110079942E+02  0.50400000000E-02 0.  1.
          1   -1    0    0  501    0  0.00000000000E+00 -0.00000000000E+00 -0.11028818393E+03  0.11028818404E+03  0.50400000000E-02 0. -1.
         23    2    1    2    0    0 -0.71054273576E-14  0.35527136788E-14 -0.91178104652E+02  0.12939826399E+03  0.91817557987E+02 0.  0.
    9000005    2    3    3    0    0 -0.41448064687E+02  0.17624974620E+02 -0.49601391795E+02  0.68102221303E+02  0.12207894236E+02 0.  0.
         22    1    3    3    0    0  0.41448064687E+02 -0.17624974620E+02 -0.41576712856E+02  0.61296042683E+02  0.00000000000E+00 0.  1.
         22    1    4    4    0    0 -0.13780122450E+02  0.33297564084E+00 -0.18084471134E+02  0.22738749827E+02  0.00000000000E+00 0.  1.
         22    1    4    4    0    0 -0.27667942238E+02  0.17291998979E+02 -0.31516920661E+02  0.45363471475E+02  0.00000000000E+00 0.  1.
<mgrwt>
<rscale>  0 0.91817558E+02</rscale>
<asrwt>0</asrwt>
<pdfrwt beam="2">  1        1 0.16967413E-01 0.91817558E+02</pdfrwt>
<pdfrwt beam="1">  1       -1 0.29400123E-02 0.91817558E+02</pdfrwt>
<totfact> 0.10418202E+05</totfact>
</mgrwt>
</event>
<event>
 7    1  0.3607059E-009  0.9265004E+02  0.7818608E-02  0.1296558E+00
         -1   -1    0    0    0  501 -0.00000000000E+00  0.00000000000E+00  0.79843301552E+01  0.79843317459E+01  0.50400000000E-02 0.  1.
          1   -1    0    0  501    0  0.00000000000E+00 -0.00000000000E+00 -0.26877735701E+03  0.26877735706E+03  0.50400000000E-02 0. -1.
         23    2    1    2    0    0  0.00000000000E+00  0.00000000000E+00 -0.26079302685E+03  0.27676168880E+03  0.92650037955E+02 0.  0.
    9000005    2    3    3    0    0  0.30207868670E+02  0.23757277707E+02 -0.20678361589E+03  0.21047488735E+03  0.79555535480E+01 0.  0.
         22    1    3    3    0    0 -0.30207868670E+02 -0.23757277707E+02 -0.54009410965E+02  0.66286801450E+02  0.00000000000E+00 0.  1.
         22    1    4    4    0    0  0.44563976006E+01  0.11612548659E+01 -0.35604952773E+02  0.35901541115E+02  0.00000000000E+00 0. -1.
         22    1    4    4    0    0  0.25751471070E+02  0.22596022842E+02 -0.17117866312E+03  0.17457334624E+03  0.00000000000E+00 0. -1.
<mgrwt>
<rscale>  0 0.92650038E+02</rscale>
<asrwt>0</asrwt>
<pdfrwt beam="2">  1        1 0.41350356E-01 0.92650038E+02</pdfrwt>
<pdfrwt beam="1">  1       -1 0.12283588E-02 0.92650038E+02</pdfrwt>
<totfact> 0.12017152E+05</totfact>
</mgrwt>
</event>
<event>
 7    1  0.3607059E-009  0.9031497E+02  0.7818608E-02  0.1302091E+00
          1   -1    0    0  501    0  0.00000000000E+00  0.00000000000E+00  0.89744505096E+03  0.89744505098E+03  0.50400000000E-02 0. -1.
         -1   -1    0    0    0  501 -0.00000000000E+00 -0.00000000000E+00 -0.22722236235E+01  0.22722292131E+01  0.50400000000E-02 0.  1.
         23    2    1    2    0    0  0.88817841970E-15  0.00000000000E+00  0.89517282734E+03  0.89971728019E+03  0.90314968118E+02 0.  0.
    9000005    2    3    3    0    0 -0.41730707950E+01 -0.38026557169E+02  0.67695583958E+03  0.67817250522E+03  0.13612660450E+02 0.  0.
         22    1    3    3    0    0  0.41730707950E+01  0.38026557169E+02  0.21821698776E+03  0.22154477497E+03  0.00000000000E+00 0. -1.
         22    1    4    4    0    0  0.41101190214E+01 -0.14663816735E+02  0.31583421788E+03  0.31620116031E+03  0.00000000000E+00 0.  1.
         22    1    4    4    0    0 -0.82831898164E+01 -0.23362740434E+02  0.36112162170E+03  0.36197134491E+03  0.00000000000E+00 0.  1.
<mgrwt>
<rscale>  0 0.90314968E+02</rscale>
<asrwt>0</asrwt>
<pdfrwt beam="1">  1        1 0.13806844E+00 0.90314968E+02</pdfrwt>
<pdfrwt beam="2">  1       -1 0.34957338E-03 0.90314968E+02</pdfrwt>
<totfact> 0.14278291E+05</totfact>
</mgrwt>
</event>
<event>
 7    1  0.3607059E-009  0.8406276E+02  0.7818608E-02  0.1317902E+00
          1   -1    0    0  501    0  0.00000000000E+00  0.00000000000E+00  0.30972738789E+03  0.30972738793E+03  0.50400000000E-02 0. -1.
         -1   -1    0    0    0  501 -0.00000000000E+00 -0.00000000000E+00 -0.57038431815E+01  0.57038454082E+01  0.50400000000E-02 0.  1.
         23    2    1    2    0    0  0.00000000000E+00  0.00000000000E+00  0.30402354471E+03  0.31543123334E+03  0.84062757680E+02 0.  0.
    9000005    2    3    3    0    0 -0.33893988991E+02 -0.16365204320E+01  0.24400306613E+03  0.24648242235E+03  0.80378824723E+01 0.  0.
         22    1    3    3    0    0  0.33893988991E+02  0.16365204320E+01  0.60020478576E+02  0.68948810993E+02  0.00000000000E+00 0.  1.
         22    1    4    4    0    0 -0.18789433228E+02  0.75426926495E+00  0.15972621291E+03  0.16082933443E+03  0.00000000000E+00 0.  1.
         22    1    4    4    0    0 -0.15104555763E+02 -0.23907896969E+01  0.84276853221E+02  0.85653087913E+02  0.00000000000E+00 0.  1.
<mgrwt>
<rscale>  0 0.84062758E+02</rscale>
<asrwt>0</asrwt>
<pdfrwt beam="1">  1        1 0.47650385E-01 0.84062758E+02</pdfrwt>
<pdfrwt beam="2">  1       -1 0.87751419E-03 0.84062758E+02</pdfrwt>
<totfact> 0.15987608E+05</totfact>
</mgrwt>
</event>
<event>
 7    1  0.3607059E-009  0.9155753E+02  0.7818608E-02  0.1299123E+00
         -1   -1    0    0    0  501 -0.00000000000E+00  0.00000000000E+00  0.41399576242E+02  0.41399576549E+02  0.50400000000E-02 0.  1.
          1   -1    0    0  501    0  0.00000000000E+00 -0.00000000000E+00 -0.50621175551E+02  0.50621175802E+02  0.50400000000E-02 0. -1.
         23    2    1    2    0    0  0.35527136788E-14  0.00000000000E+00 -0.92215993088E+01  0.92020752350E+02  0.91557528196E+02 0.  0.
    9000005    2    3    3    0    0 -0.20250266846E+02  0.44961901858E+01 -0.45233232916E+02  0.50462037398E+02  0.83715485313E+01 0.  0.
         22    1    3    3    0    0  0.20250266846E+02 -0.44961901858E+01  0.36011633607E+02  0.41558714953E+02  0.00000000000E+00 0.  1.
         22    1    4    4    0    0 -0.15106900246E+02  0.46690220077E+01 -0.24968730106E+02  0.29554283694E+02  0.00000000000E+00 0.  1.
         22    1    4    4    0    0 -0.51433665997E+01 -0.17283182188E+00 -0.20264502809E+02  0.20907753704E+02  0.00000000000E+00 0.  1.
<mgrwt>
<rscale>  0 0.91557528E+02</rscale>
<asrwt>0</asrwt>
<pdfrwt beam="2">  1        1 0.77878732E-02 0.91557528E+02</pdfrwt>
<pdfrwt beam="1">  1       -1 0.63691656E-02 0.91557528E+02</pdfrwt>
<totfact> 0.92849255E+04</totfact>
</mgrwt>
</event>
<event>
 7    1  0.3607059E-009  0.9182665E+02  0.7818608E-02  0.1298488E+00
         -1   -1    0    0    0  501 -0.00000000000E+00  0.00000000000E+00  0.55001828143E+02  0.55001828374E+02  0.50400000000E-02 0.  1.
          1   -1    0    0  501    0  0.00000000000E+00 -0.00000000000E+00 -0.38326602427E+02  0.38326602758E+02  0.50400000000E-02 0. -1.
         23    2    1    2    0    0  0.00000000000E+00 -0.35527136788E-14  0.16675225716E+02  0.93328431132E+02  0.91826645941E+02 0.  0.
    9000005    2    3    3    0    0  0.18489943685E+02 -0.21347234652E+02 -0.28285048590E+02  0.40234093294E+02  0.45995483195E+01 0.  0.
         22    1    3    3    0    0 -0.18489943685E+02  0.21347234652E+02  0.44960274306E+02  0.53094337837E+02  0.00000000000E+00 0.  1.
         22    1    4    4    0    0  0.88471090541E-01 -0.14127177131E+00 -0.12368891519E+01  0.12480703592E+01  0.00000000000E+00 0.  1.
         22    1    4    4    0    0  0.18401472594E+02 -0.21205962880E+02 -0.27048159438E+02  0.38986022935E+02  0.00000000000E+00 0.  1.
<mgrwt>
<rscale>  0 0.91826646E+02</rscale>
<asrwt>0</asrwt>
<pdfrwt beam="2">  1        1 0.58964004E-02 0.91826646E+02</pdfrwt>
<pdfrwt beam="1">  1       -1 0.84618197E-02 0.91826646E+02</pdfrwt>
<totfact> 0.88279373E+04</totfact>
</mgrwt>
</event>
<event>
 7    1  0.3607059E-009  0.8934207E+02  0.7818608E-02  0.1304453E+00
          1   -1    0    0  501    0  0.00000000000E+00  0.00000000000E+00  0.11211725627E+03  0.11211725639E+03  0.50400000000E-02 0. -1.
         -1   -1    0    0    0  501 -0.00000000000E+00 -0.00000000000E+00 -0.17798342193E+02  0.17798342907E+02  0.50400000000E-02 0.  1.
         23    2    1    2    0    0 -0.35527136788E-14 -0.35527136788E-14  0.94318914081E+02  0.12991559929E+03  0.89342069523E+02 0.  0.
    9000005    2    3    3    0    0  0.30913237143E+02  0.29758499075E+02  0.61453667549E+02  0.75866353903E+02  0.11745377871E+02 0.  0.
         22    1    3    3    0    0 -0.30913237143E+02 -0.29758499075E+02  0.32865246532E+02  0.54049245392E+02  0.00000000000E+00 0.  1.
         22    1    4    4    0    0  0.21157242338E+02  0.23974909004E+02  0.36944188883E+02  0.48859986260E+02  0.00000000000E+00 0.  1.
         22    1    4    4    0    0  0.97559948053E+01  0.57835900705E+01  0.24509478666E+02  0.27006367643E+02  0.00000000000E+00 0.  1.
<mgrwt>
<rscale>  0 0.89342070E+02</rscale>
<asrwt>0</asrwt>
<pdfrwt beam="1">  1        1 0.17248809E-01 0.89342070E+02</pdfrwt>
<pdfrwt beam="2">  1       -1 0.27382065E-02 0.89342070E+02</pdfrwt>
<totfact> 0.11251915E+05</totfact>
</mgrwt>
</event>
<event>
 7    1  0.3607059E-009  0.9204571E+02  0.7818608E-02  0.1297972E+00
          1   -1    0    0  501    0  0.00000000000E+00  0.00000000000E+00  0.73326797866E+02  0.73326798040E+02  0.50400000000E-02 0. -1.
         -1   -1    0    0    0  501 -0.00000000000E+00 -0.00000000000E+00 -0.28885797043E+02  0.28885797483E+02  0.50400000000E-02 0.  1.
         23    2    1    2    0    0  0.00000000000E+00  0.00000000000E+00  0.44441000823E+02  0.10221259552E+03  0.92045706740E+02 0.  0.
    9000005    2    3    3    0    0  0.31480933829E+02  0.19131962378E+02 -0.79684044547E+01  0.38151476732E+02  0.59125737278E+01 0.  0.
         22    1    3    3    0    0 -0.31480933829E+02 -0.19131962378E+02  0.52409405278E+02  0.64061118791E+02  0.00000000000E+00 0. -1.
         22    1    4    4    0    0  0.76594646844E+01  0.18494405601E+01 -0.17138064669E+01  0.80638056923E+01  0.00000000000E+00 0. -1.
         22    1    4    4    0    0  0.23821469144E+02  0.17282521818E+02 -0.62545979877E+01  0.30087671039E+02  0.00000000000E+00 0. -1.
<mgrwt>
<rscale>  0 0.92045707E+02</rscale>
<asrwt>0</asrwt>
<pdfrwt beam="1">  1        1 0.11281046E-01 0.92045707E+02</pdfrwt>
<pdfrwt beam="2">  1       -1 0.44439688E-02 0.92045707E+02</pdfrwt>
<totfact> 0.96813524E+04</totfact>
</mgrwt>
</event>
<event>
 7    1  0.3607059E-009  0.1116637E+03  0.7818608E-02  0.1257520E+00
         -1   -1    0    0    0  501 -0.00000000000E+00  0.00000000000E+00  0.93491008694E+01  0.93491022279E+01  0.50400000000E-02 0.  1.
          1   -1    0    0  501    0  0.00000000000E+00 -0.00000000000E+00 -0.33342196241E+03  0.33342196245E+03  0.50400000000E-02 0. -1.
         23    2    1    2    0    0  0.00000000000E+00 -0.44408920985E-15 -0.32407286154E+03  0.34277106468E+03  0.11166370580E+03 0.  0.
    9000005    2    3    3    0    0 -0.38420865432E+02 -0.83654499434E+00 -0.28514621642E+03  0.28807054906E+03  0.14121394787E+02 0.  0.
         22    1    3    3    0    0  0.38420865432E+02  0.83654499434E+00 -0.38926645124E+02  0.54700515617E+02  0.00000000000E+00 0.  1.
         22    1    4    4    0    0 -0.31923345823E+02 -0.52468295773E+01 -0.24815705914E+03  0.25025697838E+03  0.00000000000E+00 0. -1.
         22    1    4    4    0    0 -0.64975196093E+01  0.44102845830E+01 -0.36989157284E+02  0.37813570682E+02  0.00000000000E+00 0. -1.
<mgrwt>
<rscale>  0 0.11166371E+03</rscale>
<asrwt>0</asrwt>
<pdfrwt beam="2">  1        1 0.51295677E-01 0.11166371E+03</pdfrwt>
<pdfrwt beam="1">  1       -1 0.14383236E-02 0.11166371E+03</pdfrwt>
<totfact> 0.75766636E+04</totfact>
</mgrwt>
</event>
<event>
 7    1  0.4944155E-009  0.9363063E+02  0.7818608E-02  0.1294290E+00
          1   -1    0    0  501    0  0.00000000000E+00  0.00000000000E+00  0.62546879205E+02  0.62546879408E+02  0.50400000000E-02 0. -1.
         -1   -1    0    0    0  501 -0.00000000000E+00 -0.00000000000E+00 -0.35040498262E+02  0.35040498625E+02  0.50400000000E-02 0.  1.
         23    2    1    2    0    0  0.00000000000E+00  0.35527136788E-14  0.27506380942E+02  0.97587378033E+02  0.93630632587E+02 0.  0.
    9000005    2    3    3    0    0  0.23604658154E+02  0.28087873966E+02 -0.14625545155E+02  0.41719607832E+02  0.13435421693E+02 0.  0.
         22    1    3    3    0    0 -0.23604658154E+02 -0.28087873966E+02  0.42131926097E+02  0.55867770200E+02  0.00000000000E+00 0. -1.
         22    1    4    4    0    0  0.51055746854E+01  0.15392736587E+02 -0.31555440782E+01  0.16521522053E+02  0.00000000000E+00 0. -1.
         22    1    4    4    0    0  0.18499083468E+02  0.12695137379E+02 -0.11470001077E+02  0.25198085779E+02  0.00000000000E+00 0. -1.
<mgrwt>
<rscale>  0 0.93630633E+02</rscale>
<asrwt>0</asrwt>
<pdfrwt beam="1">  1        1 0.96225967E-02 0.93630633E+02</pdfrwt>
<pdfrwt beam="2">  1       -1 0.53908460E-02 0.93630633E+02</pdfrwt>
<totfact> 0.90085148E+04</totfact>
</mgrwt>
</event>
<event>
 7    1  0.3607059E-009  0.9196203E+02  0.7818608E-02  0.1298169E+00
         -1   -1    0    0    0  501 -0.00000000000E+00  0.00000000000E+00  0.83832118838E+01  0.83832133989E+01  0.50400000000E-02 0.  1.
          1   -1    0    0  501    0  0.00000000000E+00 -0.00000000000E+00 -0.25220088882E+03  0.25220088887E+03  0.50400000000E-02 0. -1.
         23    2    1    2    0    0  0.00000000000E+00  0.00000000000E+00 -0.24381767694E+03  0.26058410227E+03  0.91962028952E+02 0.  0.
    9000005    2    3    3    0    0 -0.39803577024E+02 -0.19749880959E+02 -0.10637732030E+03  0.11613953099E+03  0.14066763698E+02 0.  0.
         22    1    3    3    0    0  0.39803577024E+02  0.19749880959E+02 -0.13744035664E+03  0.14444457129E+03  0.00000000000E+00 0. -1.
         22    1    4    4    0    0 -0.10546561567E+02 -0.38592531607E+01 -0.44256274955E+02  0.45658971393E+02  0.00000000000E+00 0.  1.
         22    1    4    4    0    0 -0.29257015457E+02 -0.15890627798E+02 -0.62121045350E+02  0.70480559594E+02  0.00000000000E+00 0.  1.
<mgrwt>
<rscale>  0 0.91962029E+02</rscale>
<asrwt>0</asrwt>
<pdfrwt beam="2">  1        1 0.38800131E-01 0.91962029E+02</pdfrwt>
<pdfrwt beam="1">  1       -1 0.12897252E-02 0.91962029E+02</pdfrwt>
<totfact> 0.12107279E+05</totfact>
</mgrwt>
</event>
<event>
 7    1  0.3607059E-009  0.8865725E+02  0.7818608E-02  0.1306136E+00
          1   -1    0    0  501    0  0.00000000000E+00  0.00000000000E+00  0.82131838069E+02  0.82131838224E+02  0.50400000000E-02 0. -1.
         -1   -1    0    0    0  501 -0.00000000000E+00 -0.00000000000E+00 -0.23925278339E+02  0.23925278870E+02  0.50400000000E-02 0.  1.
         23    2    1    2    0    0  0.00000000000E+00  0.35527136788E-14  0.58206559730E+02  0.10605711709E+03  0.88657252894E+02 0.  0.
    9000005    2    3    3    0    0 -0.33247801510E+02  0.23002835446E+02  0.90040137512E+01  0.42374801852E+02  0.89445416102E+01 0.  0.
         22    1    3    3    0    0  0.33247801510E+02 -0.23002835446E+02  0.49202545978E+02  0.63682315242E+02  0.00000000000E+00 0. -1.
         22    1    4    4    0    0 -0.13705319598E+02  0.72089590526E+01  0.74914916389E+01  0.17202538268E+02  0.00000000000E+00 0.  1.
         22    1    4    4    0    0 -0.19542481912E+02  0.15793876393E+02  0.15125221124E+01  0.25172263584E+02  0.00000000000E+00 0.  1.
<mgrwt>
<rscale>  0 0.88657253E+02</rscale>
<asrwt>0</asrwt>
<pdfrwt beam="1">  1        1 0.12635667E-01 0.88657253E+02</pdfrwt>
<pdfrwt beam="2">  1       -1 0.36808121E-02 0.88657253E+02</pdfrwt>
<totfact> 0.10922258E+05</totfact>
</mgrwt>
</event>
<event>
 7    1  0.3607059E-009  0.9090900E+02  0.7818608E-02  0.1300665E+00
         -1   -1    0    0    0  501 -0.00000000000E+00  0.00000000000E+00  0.20030818834E+01  0.20030882240E+01  0.50400000000E-02 0.  1.
          1   -1    0    0  501    0  0.00000000000E+00 -0.00000000000E+00 -0.10314647441E+04  0.10314647441E+04  0.50400000000E-02 0. -1.
         23    2    1    2    0    0 -0.88817841970E-15  0.00000000000E+00 -0.10294616622E+04  0.10334678323E+04  0.90909001205E+02 0.  0.
    9000005    2    3    3    0    0  0.68059559118E+01 -0.82266231077E+01 -0.10164873967E+04  0.10166651561E+04  0.15729385606E+02 0.  0.
         22    1    3    3    0    0 -0.68059559118E+01  0.82266231077E+01 -0.12974265506E+02  0.16802676246E+02  0.00000000000E+00 0.  1.
         22    1    4    4    0    0  0.51637182143E+00 -0.11049985589E+02 -0.77637813492E+03  0.77645693841E+03  0.00000000000E+00 0. -1.
         22    1    4    4    0    0  0.62895840904E+01  0.28233624816E+01 -0.24010926177E+03  0.24020821766E+03  0.00000000000E+00 0. -1.
<mgrwt>
<rscale>  0 0.90909001E+02</rscale>
<asrwt>0</asrwt>
<pdfrwt beam="2">  1        1 0.15868646E+00 0.90909001E+02</pdfrwt>
<pdfrwt beam="1">  1       -1 0.30816776E-03 0.90909001E+02</pdfrwt>
<totfact> 0.13588850E+05</totfact>
</mgrwt>
</event>
<event>
 7    1  0.3607059E-009  0.9041232E+02  0.7818608E-02  0.1301856E+00
          1   -1    0    0  501    0  0.00000000000E+00  0.00000000000E+00  0.31400396560E+03  0.31400396564E+03  0.50400000000E-02 0. -1.
         -1   -1    0    0    0  501 -0.00000000000E+00 -0.00000000000E+00 -0.65081868053E+01  0.65081887568E+01  0.50400000000E-02 0.  1.
         23    2    1    2    0    0  0.00000000000E+00  0.00000000000E+00  0.30749577879E+03  0.32051215439E+03  0.90412317412E+02 0.  0.
    9000005    2    3    3    0    0 -0.31395571956E+02 -0.31728276838E+02  0.15940106992E+03  0.16583698417E+03  0.10041849228E+02 0.  0.
         22    1    3    3    0    0  0.31395571956E+02  0.31728276838E+02  0.14809470887E+03  0.15467517023E+03  0.00000000000E+00 0.  1.
         22    1    4    4    0    0 -0.15662169959E+02 -0.21213318820E+02  0.80977530711E+02  0.85162602962E+02  0.00000000000E+00 0.  1.
         22    1    4    4    0    0 -0.15733401997E+02 -0.10514958017E+02  0.78423539209E+02  0.80674381203E+02  0.00000000000E+00 0.  1.
<mgrwt>
<rscale>  0 0.90412317E+02</rscale>
<asrwt>0</asrwt>
<pdfrwt beam="1">  1        1 0.48308292E-01 0.90412317E+02</pdfrwt>
<pdfrwt beam="2">  1       -1 0.10012599E-02 0.90412317E+02</pdfrwt>
<totfact> 0.13216114E+05</totfact>
</mgrwt>
</event>
<event>
 7    1  0.3607059E-009  0.1008165E+03  0.7818608E-02  0.1278588E+00
          1   -1    0    0  501    0  0.00000000000E+00  0.00000000000E+00  0.19330100988E+03  0.19330100994E+03  0.50400000000E-02 0. -1.
         -1   -1    0    0    0  501 -0.00000000000E+00 -0.00000000000E+00 -0.13145256209E+02  0.13145257176E+02  0.50400000000E-02 0.  1.
         23    2    1    2    0    0  0.00000000000E+00  0.00000000000E+00  0.18015575367E+03  0.20644626712E+03  0.10081649482E+03 0.  0.
    9000005    2    3    3    0    0  0.35311232737E+02  0.29662885189E+02  0.51153225969E+02  0.69448376376E+02  0.89249391652E+01 0.  0.
         22    1    3    3    0    0 -0.35311232737E+02 -0.29662885189E+02  0.12900252770E+03  0.13699789074E+03  0.00000000000E+00 0. -1.
         22    1    4    4    0    0  0.19811808654E+02  0.12113316162E+02  0.29624257191E+02  0.37640892719E+02  0.00000000000E+00 0.  1.
         22    1    4    4    0    0  0.15499424083E+02  0.17549569027E+02  0.21528968778E+02  0.31807483657E+02  0.00000000000E+00 0.  1.
<mgrwt>
<rscale>  0 0.10081649E+03</rscale>
<asrwt>0</asrwt>
<pdfrwt beam="1">  1        1 0.29738616E-01 0.10081649E+03</pdfrwt>
<pdfrwt beam="2">  1       -1 0.20223472E-02 0.10081649E+03</pdfrwt>
<totfact> 0.89672666E+04</totfact>
</mgrwt>
</event>
<event>
 7    1  0.3607059E-009  0.9065088E+02  0.7818608E-02  0.1301283E+00
         -1   -1    0    0    0  501 -0.00000000000E+00  0.00000000000E+00  0.21135991587E+02  0.21135992188E+02  0.50400000000E-02 0.  1.
          1   -1    0    0  501    0  0.00000000000E+00 -0.00000000000E+00 -0.97198921433E+02  0.97198921564E+02  0.50400000000E-02 0. -1.
         23    2    1    2    0    0 -0.35527136788E-14  0.00000000000E+00 -0.76062929846E+02  0.11833491375E+03  0.90650882598E+02 0.  0.
    9000005    2    3    3    0    0  0.28679500567E+02  0.30860717132E+02 -0.20115563634E+02  0.48299170015E+02  0.12380480976E+02 0.  0.
         22    1    3    3    0    0 -0.28679500567E+02 -0.30860717132E+02 -0.55947366212E+02  0.70035743737E+02  0.00000000000E+00 0. -1.
         22    1    4    4    0    0  0.77653141841E+01  0.25738666955E+01 -0.94277078289E+00  0.82349080683E+01  0.00000000000E+00 0. -1.
         22    1    4    4    0    0  0.20914186383E+02  0.28286850436E+02 -0.19172792851E+02  0.40064261947E+02  0.00000000000E+00 0. -1.
<mgrwt>
<rscale>  0 0.90650883E+02</rscale>
<asrwt>0</asrwt>
<pdfrwt beam="2">  1        1 0.14953680E-01 0.90650883E+02</pdfrwt>
<pdfrwt beam="1">  1       -1 0.32516911E-02 0.90650883E+02</pdfrwt>
<totfact> 0.10561376E+05</totfact>
</mgrwt>
</event>
<event>
 7    1  0.3607059E-009  0.9217224E+02  0.7818608E-02  0.1297675E+00
         -1   -1    0    0    0  501 -0.00000000000E+00  0.00000000000E+00  0.12643998090E+02  0.12643999094E+02  0.50400000000E-02 0.  1.
          1   -1    0    0  501    0  0.00000000000E+00 -0.00000000000E+00 -0.16797933758E+03  0.16797933765E+03  0.50400000000E-02 0. -1.
         23    2    1    2    0    0  0.00000000000E+00  0.00000000000E+00 -0.15533533949E+03  0.18062333675E+03  0.92172241397E+02 0.  0.
    9000005    2    3    3    0    0 -0.34263267890E+02  0.28688827583E+02 -0.93493253716E+02  0.10432481824E+03  0.12068921028E+02 0.  0.
         22    1    3    3    0    0  0.34263267890E+02 -0.28688827583E+02 -0.61842085773E+02  0.76298518513E+02  0.00000000000E+00 0. -1.
         22    1    4    4    0    0 -0.16047414069E+02  0.65263469311E+01 -0.40867283180E+02  0.44387470496E+02  0.00000000000E+00 0.  1.
         22    1    4    4    0    0 -0.18215853821E+02  0.22162480652E+02 -0.52625970537E+02  0.59937347739E+02  0.00000000000E+00 0.  1.
<mgrwt>
<rscale>  0 0.92172241E+02</rscale>
<asrwt>0</asrwt>
<pdfrwt beam="2">  1        1 0.25842973E-01 0.92172241E+02</pdfrwt>
<pdfrwt beam="1">  1       -1 0.19452307E-02 0.92172241E+02</pdfrwt>
<totfact> 0.11121542E+05</totfact>
</mgrwt>
</event>
<event>
 7    1  0.3607059E-009  0.9294417E+02  0.7818608E-02  0.1295875E+00
          1   -1    0    0  501    0  0.00000000000E+00  0.00000000000E+00  0.22174914678E+01  0.22174971953E+01  0.50400000000E-02 0. -1.
         -1   -1    0    0    0  501 -0.00000000000E+00 -0.00000000000E+00 -0.97391672316E+03  0.97391672317E+03  0.50400000000E-02 0.  1.
         23    2    1    2    0    0  0.00000000000E+00  0.88817841970E-15 -0.97169923169E+03  0.97613422036E+03  0.92944173044E+02 0.  0.
    9000005    2    3    3    0    0 -0.21433554645E+02  0.67928459126E+01 -0.91198530665E+03  0.91232753683E+03  0.10899306861E+02 0.  0.
         22    1    3    3    0    0  0.21433554645E+02 -0.67928459126E+01 -0.59713925036E+02  0.63806683533E+02  0.00000000000E+00 0. -1.
         22    1    4    4    0    0 -0.90559184940E+01  0.11449225950E+01 -0.56790061218E+03  0.56797396580E+03  0.00000000000E+00 0.  1.
         22    1    4    4    0    0 -0.12377636151E+02  0.56479233177E+01 -0.34408469447E+03  0.34435357103E+03  0.00000000000E+00 0.  1.
<mgrwt>
<rscale>  0 0.92944173E+02</rscale>
<asrwt>0</asrwt>
<pdfrwt beam="1">  1        1 0.34115375E-03 0.92944173E+02</pdfrwt>
<pdfrwt beam="2">  1       -1 0.14983300E+00 0.92944173E+02</pdfrwt>
<totfact> 0.25162774E+04</totfact>
</mgrwt>
</event>
<event>
 6    1  0.3607059E-009  0.1529855E+03  0.7818608E-02  0.1196852E+00
          1   -1    0    0  501    0  0.00000000000E+00  0.00000000000E+00  0.15743544071E+02  0.15743544878E+02  0.50400000000E-02 0. -1.
         -1   -1    0    0    0  501 -0.00000000000E+00 -0.00000000000E+00 -0.37165318225E+03  0.37165318228E+03  0.50400000000E-02 0.  1.
    9000005    2    1    2    0    0  0.52401637494E+02 -0.40369845990E+02 -0.81656075586E+02  0.10527853797E+03  0.63403312315E+01 0.  0.
         22    1    1    2    0    0 -0.52401637494E+02  0.40369845990E+02 -0.27425356259E+03  0.28211818919E+03  0.00000000000E+00 0.  1.
         22    1    3    3    0    0  0.54645047925E+00 -0.23258718543E+00 -0.57453391090E-01  0.59666223045E+00  0.00000000000E+00 0. -1.
         22    1    3    3    0    0  0.51855187014E+02 -0.40137258805E+02 -0.81598622195E+02  0.10468187574E+03  0.00000000000E+00 0. -1.
<mgrwt>
<rscale>  0 0.15298547E+03</rscale>
<asrwt>0</asrwt>
<pdfrwt beam="1">  1        1 0.24220840E-02 0.15298547E+03</pdfrwt>
<pdfrwt beam="2">  1       -1 0.57177406E-01 0.15298547E+03</pdfrwt>
<totfact> 0.13929700E+04</totfact>
</mgrwt>
</event>
<event>
 7    1  0.3607059E-009  0.9019768E+02  0.7818608E-02  0.1302374E+00
          1   -1    0    0  501    0  0.00000000000E+00  0.00000000000E+00  0.45659417877E+03  0.45659417880E+03  0.50400000000E-02 0. -1.
         -1   -1    0    0    0  501 -0.00000000000E+00 -0.00000000000E+00 -0.44545127677E+01  0.44545156189E+01  0.50400000000E-02 0.  1.
         23    2    1    2    0    0  0.71054273576E-14  0.00000000000E+00  0.45213966601E+03  0.46104869442E+03  0.90197677635E+02 0.  0.
    9000005    2    3    3    0    0  0.42255867284E+02  0.14642803223E+02  0.21643494010E+03  0.22113894509E+03  0.76406633362E+01 0.  0.
         22    1    3    3    0    0 -0.42255867284E+02 -0.14642803223E+02  0.23570472591E+03  0.23990974933E+03  0.00000000000E+00 0.  1.
         22    1    4    4    0    0  0.13434982145E+02  0.57684454398E+01  0.88369962618E+02  0.89571334707E+02  0.00000000000E+00 0.  1.
         22    1    4    4    0    0  0.28820885139E+02  0.88743577828E+01  0.12806497748E+03  0.13156761039E+03  0.00000000000E+00 0.  1.
<mgrwt>
<rscale>  0 0.90197678E+02</rscale>
<asrwt>0</asrwt>
<pdfrwt beam="1">  1        1 0.70245248E-01 0.90197678E+02</pdfrwt>
<pdfrwt beam="2">  1       -1 0.68530998E-03 0.90197678E+02</pdfrwt>
<totfact> 0.14163476E+05</totfact>
</mgrwt>
</event>
<event>
 7    1  0.3607059E-009  0.9167446E+02  0.7818608E-02  0.1298847E+00
         -1   -1    0    0    0  501 -0.00000000000E+00  0.00000000000E+00  0.61815497827E+01  0.61815518373E+01  0.50400000000E-02 0.  1.
          1   -1    0    0  501    0  0.00000000000E+00 -0.00000000000E+00 -0.33989070692E+03  0.33989070695E+03  0.50400000000E-02 0. -1.
         23    2    1    2    0    0  0.00000000000E+00  0.00000000000E+00 -0.33370915713E+03  0.34607225879E+03  0.91674460728E+02 0.  0.
    9000005    2    3    3    0    0 -0.20471376131E+02  0.12803566754E+01 -0.32087656420E+03  0.32187738340E+03  0.14918576877E+02 0.  0.
         22    1    3    3    0    0  0.20471376131E+02 -0.12803566754E+01 -0.12832592934E+02  0.24194875394E+02  0.00000000000E+00 0.  1.
         22    1    4    4    0    0 -0.14667130620E+02  0.31355293937E+00 -0.29392813156E+03  0.29429401890E+03  0.00000000000E+00 0. -1.
         22    1    4    4    0    0 -0.58042455111E+01  0.96680373600E+00 -0.26948432637E+02  0.27583364497E+02  0.00000000000E+00 0. -1.
<mgrwt>
<rscale>  0 0.91674461E+02</rscale>
<asrwt>0</asrwt>
<pdfrwt beam="2">  1        1 0.52290864E-01 0.91674461E+02</pdfrwt>
<pdfrwt beam="1">  1       -1 0.95100808E-03 0.91674461E+02</pdfrwt>
<totfact> 0.12925219E+05</totfact>
</mgrwt>
</event>
<event>
 7    1  0.3868347E-009  0.8916894E+02  0.7818608E-02  0.1304877E+00
          1   -1    0    0  501    0  0.00000000000E+00  0.00000000000E+00  0.34541027279E+02  0.34541027647E+02  0.50400000000E-02 0. -1.
         -1   -1    0    0    0  501 -0.00000000000E+00 -0.00000000000E+00 -0.57548228569E+02  0.57548228789E+02  0.50400000000E-02 0.  1.
         23    2    1    2    0    0  0.00000000000E+00  0.00000000000E+00 -0.23007201289E+02  0.92089256436E+02  0.89168939883E+02 0.  0.
    9000005    2    3    3    0    0 -0.15303718597E+02 -0.79719949688E+01  0.29386330494E+02  0.36927325003E+02  0.14223726843E+02 0.  0.
         22    1    3    3    0    0  0.15303718597E+02  0.79719949688E+01 -0.52393531783E+02  0.55161931433E+02  0.00000000000E+00 0.  1.
         22    1    4    4    0    0 -0.16906753217E+02 -0.67662944246E+01  0.29757533591E+02  0.34887416786E+02  0.00000000000E+00 0. -1.
         22    1    4    4    0    0  0.16030346203E+01 -0.12057005442E+01 -0.37120309668E+00  0.20399082173E+01  0.00000000000E+00 0. -1.
<mgrwt>
<rscale>  0 0.89168940E+02</rscale>
<asrwt>0</asrwt>
<pdfrwt beam="1">  1        1 0.53140042E-02 0.89168940E+02</pdfrwt>
<pdfrwt beam="2">  1       -1 0.88535737E-02 0.89168940E+02</pdfrwt>
<totfact> 0.94426748E+04</totfact>
</mgrwt>
</event>
<event>
 7    1  0.3607059E-009  0.9503550E+02  0.7818608E-02  0.1291096E+00
          1   -1    0    0  501    0  0.00000000000E+00  0.00000000000E+00  0.16296079263E+03  0.16296079271E+03  0.50400000000E-02 0. -1.
         -1   -1    0    0    0  501 -0.00000000000E+00 -0.00000000000E+00 -0.13855704959E+02  0.13855705876E+02  0.50400000000E-02 0.  1.
         23    2    1    2    0    0  0.00000000000E+00  0.00000000000E+00  0.14910508767E+03  0.17681649858E+03  0.95035503903E+02 0.  0.
    9000005    2    3    3    0    0 -0.16973562252E+02 -0.21626312081E+02  0.14624668317E+03  0.14917649739E+03  0.10475487893E+02 0.  0.
         22    1    3    3    0    0  0.16973562252E+02  0.21626312081E+02  0.28584045061E+01  0.27640001195E+02  0.00000000000E+00 0.  1.
         22    1    4    4    0    0 -0.15466240181E+02 -0.19787662598E+02  0.14278529755E+03  0.14497723054E+03  0.00000000000E+00 0.  1.
         22    1    4    4    0    0 -0.15073220706E+01 -0.18386494833E+01  0.34613856108E+01  0.41992668519E+01  0.00000000000E+00 0.  1.
<mgrwt>
<rscale>  0 0.95035504E+02</rscale>
<asrwt>0</asrwt>
<pdfrwt beam="1">  1        1 0.25070892E-01 0.95035504E+02</pdfrwt>
<pdfrwt beam="2">  1       -1 0.21316469E-02 0.95035504E+02</pdfrwt>
<totfact> 0.10180702E+05</totfact>
</mgrwt>
</event>
<event>
 7    1  0.3607059E-009  0.9085821E+02  0.7818608E-02  0.1300787E+00
          1   -1    0    0  501    0  0.00000000000E+00  0.00000000000E+00  0.42034722332E+03  0.42034722335E+03  0.50400000000E-02 0. -1.
         -1   -1    0    0    0  501 -0.00000000000E+00 -0.00000000000E+00 -0.49097575506E+01  0.49097601375E+01  0.50400000000E-02 0.  1.
         23    2    1    2    0    0  0.00000000000E+00  0.00000000000E+00  0.41543746577E+03  0.42525698349E+03  0.90858208436E+02 0.  0.
    9000005    2    3    3    0    0 -0.57501467699E+01  0.21000814053E+02  0.39327886120E+03  0.39419089047E+03  0.15623606698E+02 0.  0.
         22    1    3    3    0    0  0.57501467699E+01 -0.21000814053E+02  0.22158604571E+02  0.31066093016E+02  0.00000000000E+00 0.  1.
         22    1    4    4    0    0  0.49165977410E+01  0.63639506413E+01  0.16439882906E+03  0.16459540636E+03  0.00000000000E+00 0.  1.
         22    1    4    4    0    0 -0.10666744511E+02  0.14636863412E+02  0.22888003214E+03  0.22959548411E+03  0.00000000000E+00 0.  1.
<mgrwt>
<rscale>  0 0.90858208E+02</rscale>
<asrwt>0</asrwt>
<pdfrwt beam="1">  1        1 0.64668812E-01 0.90858208E+02</pdfrwt>
<pdfrwt beam="2">  1       -1 0.75534742E-03 0.90858208E+02</pdfrwt>
<totfact> 0.13723431E+05</totfact>
</mgrwt>
</event>
<event>
 7    1  0.3607059E-009  0.9119420E+02  0.7818608E-02  0.1299985E+00
         -1   -1    0    0    0  501 -0.00000000000E+00  0.00000000000E+00  0.13196304501E+02  0.13196305464E+02  0.50400000000E-02 0.  1.
          1   -1    0    0  501    0  0.00000000000E+00 -0.00000000000E+00 -0.15755133264E+03  0.15755133272E+03  0.50400000000E-02 0. -1.
         23    2    1    2    0    0  0.00000000000E+00  0.00000000000E+00 -0.14435502813E+03  0.17074763818E+03  0.91194198260E+02 0.  0.
    9000005    2    3    3    0    0 -0.38710108696E+02  0.10697698491E+02 -0.35170513290E+02  0.54411179793E+02  0.10521321832E+02 0.  0.
         22    1    3    3    0    0  0.38710108696E+02 -0.10697698491E+02 -0.10918451484E+03  0.11633645839E+03  0.00000000000E+00 0. -1.
         22    1    4    4    0    0 -0.84869717193E+01  0.56197436702E+01 -0.47601682923E+01  0.11236966230E+02  0.00000000000E+00 0. -1.
         22    1    4    4    0    0 -0.30223136977E+02  0.50779548208E+01 -0.30410344998E+02  0.43174213563E+02  0.00000000000E+00 0. -1.
<mgrwt>
<rscale>  0 0.91194198E+02</rscale>
<asrwt>0</asrwt>
<pdfrwt beam="2">  1        1 0.24238665E-01 0.91194198E+02</pdfrwt>
<pdfrwt beam="1">  1       -1 0.20302009E-02 0.91194198E+02</pdfrwt>
<totfact> 0.11309704E+05</totfact>
</mgrwt>
</event>
<event>
 7    1  0.3607059E-009  0.9373863E+02  0.7818608E-02  0.1294043E+00
          1   -1    0    0  501    0  0.00000000000E+00  0.00000000000E+00  0.30452781390E+03  0.30452781394E+03  0.50400000000E-02 0. -1.
         -1   -1    0    0    0  501 -0.00000000000E+00 -0.00000000000E+00 -0.72135690622E+01  0.72135708229E+01  0.50400000000E-02 0.  1.
         23    2    1    2    0    0  0.00000000000E+00 -0.35527136788E-14  0.29731424484E+03  0.31174138476E+03  0.93738630198E+02 0.  0.
    9000005    2    3    3    0    0  0.28137943410E+02 -0.31255244737E+02  0.82565057672E+02  0.92913032919E+02  0.68708627508E+01 0.  0.
         22    1    3    3    0    0 -0.28137943410E+02  0.31255244737E+02  0.21474918717E+03  0.21882835184E+03  0.00000000000E+00 0. -1.
         22    1    4    4    0    0  0.14246765828E+02 -0.16448414265E+02  0.35245648359E+02  0.41421931349E+02  0.00000000000E+00 0.  1.
         22    1    4    4    0    0  0.13891177582E+02 -0.14806830472E+02  0.47319409312E+02  0.51491101570E+02  0.00000000000E+00 0.  1.
<mgrwt>
<rscale>  0 0.93738630E+02</rscale>
<asrwt>0</asrwt>
<pdfrwt beam="1">  1        1 0.46850441E-01 0.93738630E+02</pdfrwt>
<pdfrwt beam="2">  1       -1 0.11097798E-02 0.93738630E+02</pdfrwt>
<totfact> 0.11932667E+05</totfact>
</mgrwt>
</event>
<event>
 7    1  0.3607059E-009  0.1185511E+03  0.7818608E-02  0.1245507E+00
          1   -1    0    0  501    0  0.00000000000E+00  0.00000000000E+00  0.35294615416E+03  0.35294615420E+03  0.50400000000E-02 0. -1.
         -1   -1    0    0    0  501 -0.00000000000E+00 -0.00000000000E+00 -0.99550378405E+01  0.99550391163E+01  0.50400000000E-02 0.  1.
         23    2    1    2    0    0  0.00000000000E+00  0.00000000000E+00  0.34299111632E+03  0.36290119331E+03  0.11855112920E+03 0.  0.
    9000005    2    3    3    0    0  0.39147201464E+02  0.31004532765E+02  0.26682251564E+03  0.27182188632E+03  0.14110229988E+02 0.  0.
         22    1    3    3    0    0 -0.39147201464E+02 -0.31004532765E+02  0.76168600677E+02  0.91079307000E+02  0.00000000000E+00 0.  1.
         22    1    4    4    0    0  0.26628933247E+02  0.28611554036E+02  0.19532871685E+03  0.19920097575E+03  0.00000000000E+00 0.  1.
         22    1    4    4    0    0  0.12518268217E+02  0.23929787292E+01  0.71493798791E+02  0.72620910569E+02  0.00000000000E+00 0.  1.
<mgrwt>
<rscale>  0 0.11855113E+03</rscale>
<asrwt>0</asrwt>
<pdfrwt beam="1">  1        1 0.54299409E-01 0.11855113E+03</pdfrwt>
<pdfrwt beam="2">  1       -1 0.15315444E-02 0.11855113E+03</pdfrwt>
<totfact> 0.65057367E+04</totfact>
</mgrwt>
</event>
<event>
 7    1  0.3607059E-009  0.9059549E+02  0.7818608E-02  0.1301416E+00
          1   -1    0    0  501    0  0.00000000000E+00  0.00000000000E+00  0.41963857832E+02  0.41963858135E+02  0.50400000000E-02 0. -1.
         -1   -1    0    0    0  501 -0.00000000000E+00 -0.00000000000E+00 -0.48896496598E+02  0.48896496858E+02  0.50400000000E-02 0.  1.
         23    2    1    2    0    0 -0.35527136788E-14  0.00000000000E+00 -0.69326387658E+01  0.90860354992E+02  0.90595489010E+02 0.  0.
    9000005    2    3    3    0    0  0.26307831269E+02 -0.36211186207E+02 -0.22949372869E+01  0.45861907601E+02  0.97311787100E+01 0.  0.
         22    1    3    3    0    0 -0.26307831269E+02  0.36211186207E+02 -0.46377014789E+01  0.44998447391E+02  0.00000000000E+00 0.  1.
         22    1    4    4    0    0  0.70854586277E+01 -0.16224574829E+02 -0.37365212845E+01  0.18094257201E+02  0.00000000000E+00 0.  1.
         22    1    4    4    0    0  0.19222372641E+02 -0.19986611378E+02  0.14415839976E+01  0.27767650401E+02  0.00000000000E+00 0.  1.
<mgrwt>
<rscale>  0 0.90595489E+02</rscale>
<asrwt>0</asrwt>
<pdfrwt beam="1">  1        1 0.64559782E-02 0.90595489E+02</pdfrwt>
<pdfrwt beam="2">  1       -1 0.75225380E-02 0.90595489E+02</pdfrwt>
<totfact> 0.92984065E+04</totfact>
</mgrwt>
</event>
<event>
 7    1  0.3607059E-009  0.9242421E+02  0.7818608E-02  0.1297085E+00
         -1   -1    0    0    0  501 -0.00000000000E+00  0.00000000000E+00  0.16367844061E+02  0.16367844837E+02  0.50400000000E-02 0.  1.
          1   -1    0    0  501    0  0.00000000000E+00 -0.00000000000E+00 -0.13047282118E+03  0.13047282128E+03  0.50400000000E-02 0. -1.
         23    2    1    2    0    0  0.00000000000E+00  0.17763568394E-14 -0.11410497712E+03  0.14684066612E+03  0.92424214476E+02 0.  0.
    9000005    2    3    3    0    0  0.23788909143E+02  0.95950793955E+01 -0.11733725565E+03  0.12098674240E+03  0.14552749852E+02 0.  0.
         22    1    3    3    0    0 -0.23788909143E+02 -0.95950793955E+01  0.32322785255E+01  0.25853923711E+02  0.00000000000E+00 0.  1.
         22    1    4    4    0    0  0.21484189022E+02  0.12208903876E+02 -0.86725408277E+02  0.90177181995E+02  0.00000000000E+00 0.  1.
         22    1    4    4    0    0  0.23047201203E+01 -0.26138244808E+01 -0.30611847369E+02  0.30809560409E+02  0.00000000000E+00 0.  1.
<mgrwt>
<rscale>  0 0.92424214E+02</rscale>
<asrwt>0</asrwt>
<pdfrwt beam="2">  1        1 0.20072741E-01 0.92424214E+02</pdfrwt>
<pdfrwt beam="1">  1       -1 0.25181300E-02 0.92424214E+02</pdfrwt>
<totfact> 0.10538320E+05</totfact>
</mgrwt>
</event>
<event>
 7    1  0.3607059E-009  0.8887759E+02  0.7818608E-02  0.1305593E+00
         -1   -1    0    0    0  501 -0.00000000000E+00  0.00000000000E+00  0.11518658056E+03  0.11518658067E+03  0.50400000000E-02 0.  1.
          1   -1    0    0  501    0  0.00000000000E+00 -0.00000000000E+00 -0.17144414885E+02  0.17144415626E+02  0.50400000000E-02 0. -1.
         23    2    1    2    0    0  0.00000000000E+00  0.00000000000E+00  0.98042165678E+02  0.13233099630E+03  0.88877591837E+02 0.  0.
    9000005    2    3    3    0    0 -0.94967208592E+01 -0.40450863510E+02  0.68763106734E+02  0.81500657343E+02  0.13694240899E+02 0.  0.
         22    1    3    3    0    0  0.94967208592E+01  0.40450863510E+02  0.29279058944E+02  0.50830338956E+02  0.00000000000E+00 0. -1.
         22    1    4    4    0    0 -0.35207869393E+01 -0.16582688412E+01  0.29953329976E+01  0.49109893085E+01  0.00000000000E+00 0. -1.
         22    1    4    4    0    0 -0.59759339199E+01 -0.38792594669E+02  0.65767773737E+02  0.76589668034E+02  0.00000000000E+00 0. -1.
<mgrwt>
<rscale>  0 0.88877592E+02</rscale>
<asrwt>0</asrwt>
<pdfrwt beam="2">  1        1 0.26376025E-02 0.88877592E+02</pdfrwt>
<pdfrwt beam="1">  1       -1 0.17721012E-01 0.88877592E+02</pdfrwt>
<totfact> 0.84576007E+04</totfact>
</mgrwt>
</event>
<event>
 7    1  0.3607059E-009  0.9088819E+02  0.7818608E-02  0.1300715E+00
          1   -1    0    0  501    0  0.00000000000E+00  0.00000000000E+00  0.16864876816E+02  0.16864877569E+02  0.50400000000E-02 0. -1.
         -1   -1    0    0    0  501 -0.00000000000E+00 -0.00000000000E+00 -0.12245365046E+03  0.12245365056E+03  0.50400000000E-02 0.  1.
         23    2    1    2    0    0  0.00000000000E+00  0.17763568394E-14 -0.10558877364E+03  0.13931852813E+03  0.90888190439E+02 0.  0.
    9000005    2    3    3    0    0  0.42530832156E+02 -0.82351522923E+01 -0.40051496747E+02  0.60757570397E+02  0.14514494538E+02 0.  0.
         22    1    3    3    0    0 -0.42530832156E+02  0.82351522923E+01 -0.65537276897E+02  0.78560957735E+02  0.00000000000E+00 0.  1.
         22    1    4    4    0    0  0.20069738862E+02 -0.30552683695E+01 -0.28454389180E+02  0.34953988992E+02  0.00000000000E+00 0.  1.
         22    1    4    4    0    0  0.22461093294E+02 -0.51798839228E+01 -0.11597107567E+02  0.25803581405E+02  0.00000000000E+00 0.  1.
<mgrwt>
<rscale>  0 0.90888190E+02</rscale>
<asrwt>0</asrwt>
<pdfrwt beam="1">  1        1 0.25945966E-02 0.90888190E+02</pdfrwt>
<pdfrwt beam="2">  1       -1 0.18839023E-01 0.90888190E+02</pdfrwt>
<totfact> 0.78848245E+04</totfact>
</mgrwt>
</event>
<event>
 7    1  0.3607059E-009  0.9170202E+02  0.7818608E-02  0.1298782E+00
          1   -1    0    0  501    0  0.00000000000E+00  0.00000000000E+00  0.22761804224E+02  0.22761804782E+02  0.50400000000E-02 0. -1.
         -1   -1    0    0    0  501 -0.00000000000E+00 -0.00000000000E+00 -0.92361531970E+02  0.92361532108E+02  0.50400000000E-02 0.  1.
         23    2    1    2    0    0  0.00000000000E+00  0.00000000000E+00 -0.69599727746E+02  0.11512333689E+03  0.91702020667E+02 0.  0.
    9000005    2    3    3    0    0 -0.25868147962E+02  0.18935639194E+02 -0.74942970377E+02  0.82623033007E+02  0.13505453110E+02 0.  0.
         22    1    3    3    0    0  0.25868147962E+02 -0.18935639194E+02  0.53432426309E+01  0.32500303883E+02  0.00000000000E+00 0. -1.
         22    1    4    4    0    0 -0.18300409850E+02  0.90761044410E+01 -0.58815420732E+02  0.62261821274E+02  0.00000000000E+00 0. -1.
         22    1    4    4    0    0 -0.75677381124E+01  0.98595347533E+01 -0.16127549645E+02  0.20361211733E+02  0.00000000000E+00 0. -1.
<mgrwt>
<rscale>  0 0.91702021E+02</rscale>
<asrwt>0</asrwt>
<pdfrwt beam="1">  1        1 0.35018162E-02 0.91702021E+02</pdfrwt>
<pdfrwt beam="2">  1       -1 0.14209466E-01 0.91702021E+02</pdfrwt>
<totfact> 0.81348733E+04</totfact>
</mgrwt>
</event>
<event>
 7    1  0.3607059E-009  0.9137492E+02  0.7818608E-02  0.1299556E+00
         -1   -1    0    0    0  501 -0.00000000000E+00  0.00000000000E+00  0.15163253744E+02  0.15163254582E+02  0.50400000000E-02 0.  1.
          1   -1    0    0  501    0  0.00000000000E+00 -0.00000000000E+00 -0.13765803753E+03  0.13765803762E+03  0.50400000000E-02 0. -1.
         23    2    1    2    0    0  0.71054273576E-14  0.00000000000E+00 -0.12249478378E+03  0.15282129220E+03  0.91374916121E+02 0.  0.
    9000005    2    3    3    0    0 -0.34358433103E+02  0.48321348189E+01 -0.11611717881E+02  0.36636500787E+02  0.18840768377E+01 0.  0.
         22    1    3    3    0    0  0.34358433103E+02 -0.48321348189E+01 -0.11088306590E+03  0.11618479142E+03  0.00000000000E+00 0. -1.
         22    1    4    4    0    0 -0.14125422661E+02  0.28946108217E+01 -0.45758374158E+01  0.15127611352E+02  0.00000000000E+00 0.  1.
         22    1    4    4    0    0 -0.20233010443E+02  0.19375239972E+01 -0.70358804650E+01  0.21508889435E+02  0.00000000000E+00 0.  1.
<mgrwt>
<rscale>  0 0.91374916E+02</rscale>
<asrwt>0</asrwt>
<pdfrwt beam="2">  1        1 0.21178159E-01 0.91374916E+02</pdfrwt>
<pdfrwt beam="1">  1       -1 0.23328084E-02 0.91374916E+02</pdfrwt>
<totfact> 0.10974671E+05</totfact>
</mgrwt>
</event>
<event>
 7    1  0.3607059E-009  0.8966556E+02  0.7818608E-02  0.1303664E+00
          1   -1    0    0  501    0  0.00000000000E+00  0.00000000000E+00  0.16263730237E+03  0.16263730245E+03  0.50400000000E-02 0. -1.
         -1   -1    0    0    0  501 -0.00000000000E+00 -0.00000000000E+00 -0.12358652382E+02  0.12358653409E+02  0.50400000000E-02 0.  1.
         23    2    1    2    0    0  0.00000000000E+00 -0.35527136788E-14  0.15027864999E+03  0.17499595586E+03  0.89665555952E+02 0.  0.
    9000005    2    3    3    0    0  0.36521605234E+02  0.23217479752E+02  0.91818562508E+02  0.10226040167E+03  0.12396060407E+02 0.  0.
         22    1    3    3    0    0 -0.36521605234E+02 -0.23217479752E+02  0.58460087482E+02  0.72735554190E+02  0.00000000000E+00 0.  1.
         22    1    4    4    0    0  0.30887270355E+02  0.23257962351E+02  0.85236647397E+02  0.93596166279E+02  0.00000000000E+00 0.  1.
         22    1    4    4    0    0  0.56343348781E+01 -0.40482598689E-01  0.65819151110E+01  0.86642353897E+01  0.00000000000E+00 0.  1.
<mgrwt>
<rscale>  0 0.89665556E+02</rscale>
<asrwt>0</asrwt>
<pdfrwt beam="1">  1        1 0.25021125E-01 0.89665556E+02</pdfrwt>
<pdfrwt beam="2">  1       -1 0.19013311E-02 0.89665556E+02</pdfrwt>
<totfact> 0.11905768E+05</totfact>
</mgrwt>
</event>
<event>
 7    1  0.3607059E-009  0.8993986E+02  0.7818608E-02  0.1302997E+00
          1   -1    0    0  501    0  0.00000000000E+00  0.00000000000E+00  0.52393049959E+02  0.52393050202E+02  0.50400000000E-02 0. -1.
         -1   -1    0    0    0  501 -0.00000000000E+00 -0.00000000000E+00 -0.38598526073E+02  0.38598526402E+02  0.50400000000E-02 0.  1.
         23    2    1    2    0    0  0.00000000000E+00  0.00000000000E+00  0.13794523887E+02  0.90991576604E+02  0.89939858370E+02 0.  0.
    9000005    2    3    3    0    0 -0.44536853917E+02 -0.16762174298E+01  0.11072565307E+02  0.46340147509E+02  0.62021372977E+01 0.  0.
         22    1    3    3    0    0  0.44536853917E+02  0.16762174298E+01  0.27219585797E+01  0.44651429094E+02  0.00000000000E+00 0. -1.
         22    1    4    4    0    0 -0.55051860791E+01  0.12137351752E+01  0.29693451909E+01  0.63715961661E+01  0.00000000000E+00 0.  1.
         22    1    4    4    0    0 -0.39031667837E+02 -0.28899526050E+01  0.81032201160E+01  0.39968551343E+02  0.00000000000E+00 0.  1.
<mgrwt>
<rscale>  0 0.89939858E+02</rscale>
<asrwt>0</asrwt>
<pdfrwt beam="1">  1        1 0.80604693E-02 0.89939858E+02</pdfrwt>
<pdfrwt beam="2">  1       -1 0.59382348E-02 0.89939858E+02</pdfrwt>
<totfact> 0.98084240E+04</totfact>
</mgrwt>
</event>
<event>
 7    1  0.3607059E-009  0.9151679E+02  0.7818608E-02  0.1299220E+00
         -1   -1    0    0    0  501 -0.00000000000E+00  0.00000000000E+00  0.65617820283E+03  0.65617820285E+03  0.50400000000E-02 0.  1.
          1   -1    0    0  501    0  0.00000000000E+00 -0.00000000000E+00 -0.31909465671E+01  0.31909505474E+01  0.50400000000E-02 0. -1.
         23    2    1    2    0    0  0.00000000000E+00  0.00000000000E+00  0.65298725626E+03  0.65936915340E+03  0.91516794139E+02 0.  0.
    9000005    2    3    3    0    0 -0.43487080867E+02 -0.54126359297E+01  0.42112850711E+03  0.42340537993E+03  0.15727119404E+01 0.  0.
         22    1    3    3    0    0  0.43487080867E+02  0.54126359297E+01  0.23185874915E+03  0.23596377347E+03  0.00000000000E+00 0. -1.
         22    1    4    4    0    0 -0.12414461373E+02 -0.14371661312E+01  0.12698833434E+03  0.12760180781E+03  0.00000000000E+00 0.  1.
         22    1    4    4    0    0 -0.31072619494E+02 -0.39754697986E+01  0.29414017277E+03  0.29580357212E+03  0.00000000000E+00 0.  1.
<mgrwt>
<rscale>  0 0.91516794E+02</rscale>
<asrwt>0</asrwt>
<pdfrwt beam="2">  1        1 0.49091578E-03 0.91516794E+02</pdfrwt>
<pdfrwt beam="1">  1       -1 0.10095037E+00 0.91516794E+02</pdfrwt>
<totfact> 0.38487379E+04</totfact>
</mgrwt>
</event>
<event>
 6    1  0.3607059E-009  0.2183636E+03  0.7818608E-02  0.1135109E+00
         -1   -1    0    0    0  501 -0.00000000000E+00  0.00000000000E+00  0.34382391892E+02  0.34382392262E+02  0.50400000000E-02 0.  1.
          1   -1    0    0  501    0  0.00000000000E+00 -0.00000000000E+00 -0.34670839782E+03  0.34670839786E+03  0.50400000000E-02 0. -1.
    9000005    2    1    2    0    0 -0.38579797481E+02 -0.10012058837E+03 -0.19042389352E+03  0.21869418302E+03  0.73043460707E+01 0.  0.
         22    1    1    2    0    0  0.38579797481E+02  0.10012058837E+03 -0.12190211241E+03  0.16239660710E+03  0.00000000000E+00 0.  1.
         22    1    3    3    0    0 -0.66733150431E+01 -0.22741784841E+02 -0.46880865381E+02  0.52531299720E+02  0.00000000000E+00 0. -1.
         22    1    3    3    0    0 -0.31906482438E+02 -0.77378803530E+02 -0.14354302814E+03  0.16616288330E+03  0.00000000000E+00 0. -1.
<mgrwt>
<rscale>  0 0.21836359E+03</rscale>
<asrwt>0</asrwt>
<pdfrwt beam="2">  1        1 0.53339751E-01 0.21836359E+03</pdfrwt>
<pdfrwt beam="1">  1       -1 0.52895990E-02 0.21836359E+03</pdfrwt>
<totfact> 0.11519363E+04</totfact>
</mgrwt>
</event>
<event>
 7    1  0.3607059E-009  0.1014090E+03  0.7818608E-02  0.1277361E+00
         -1   -1    0    0    0  501 -0.00000000000E+00  0.00000000000E+00  0.18981306898E+02  0.18981307568E+02  0.50400000000E-02 0.  1.
          1   -1    0    0  501    0  0.00000000000E+00 -0.00000000000E+00 -0.13544618047E+03  0.13544618056E+03  0.50400000000E-02 0. -1.
         23    2    1    2    0    0  0.00000000000E+00  0.00000000000E+00 -0.11646487357E+03  0.15442748813E+03  0.10140898537E+03 0.  0.
    9000005    2    3    3    0    0  0.29301882874E+02  0.55008312213E+01  0.24569025964E+01  0.31825496585E+02  0.10861232823E+02 0.  0.
         22    1    3    3    0    0 -0.29301882874E+02 -0.55008312213E+01 -0.11892177617E+03  0.12260199154E+03  0.00000000000E+00 0. -1.
         22    1    4    4    0    0  0.79604147761E+01 -0.10410669220E+01 -0.34460490053E+01  0.87365483740E+01  0.00000000000E+00 0.  1.
         22    1    4    4    0    0  0.21341468098E+02  0.65418981433E+01  0.59029516018E+01  0.23088948211E+02  0.00000000000E+00 0.  1.
<mgrwt>
<rscale>  0 0.10140899E+03</rscale>
<asrwt>0</asrwt>
<pdfrwt beam="2">  1        1 0.20837873E-01 0.10140899E+03</pdfrwt>
<pdfrwt beam="1">  1       -1 0.29202012E-02 0.10140899E+03</pdfrwt>
<totfact> 0.82392845E+04</totfact>
</mgrwt>
</event>
<event>
 7    1  0.3607059E-009  0.9114829E+02  0.7818608E-02  0.1300095E+00
          1   -1    0    0  501    0  0.00000000000E+00  0.00000000000E+00  0.10271422666E+02  0.10271423903E+02  0.50400000000E-02 0. -1.
         -1   -1    0    0    0  501 -0.00000000000E+00 -0.00000000000E+00 -0.20221178594E+03  0.20221178600E+03  0.50400000000E-02 0.  1.
         23    2    1    2    0    0  0.00000000000E+00 -0.35527136788E-14 -0.19194036327E+03  0.21248320990E+03  0.91148293665E+02 0.  0.
    9000005    2    3    3    0    0 -0.31761585319E+02 -0.27959060536E+02 -0.13141217897E+03  0.13863086761E+03  0.12603543283E+02 0.  0.
         22    1    3    3    0    0  0.31761585319E+02  0.27959060536E+02 -0.60528184300E+02  0.73852342296E+02  0.00000000000E+00 0.  1.
         22    1    4    4    0    0 -0.12162273039E+02 -0.32556688808E+01 -0.39724214845E+02  0.41671735150E+02  0.00000000000E+00 0.  1.
         22    1    4    4    0    0 -0.19599312280E+02 -0.24703391656E+02 -0.91687964126E+02  0.96959132457E+02  0.00000000000E+00 0.  1.
<mgrwt>
<rscale>  0 0.91148294E+02</rscale>
<asrwt>0</asrwt>
<pdfrwt beam="1">  1        1 0.15802191E-02 0.91148294E+02</pdfrwt>
<pdfrwt beam="2">  1       -1 0.31109503E-01 0.91148294E+02</pdfrwt>
<totfact> 0.69262170E+04</totfact>
</mgrwt>
</event>
<event>
 7    1  0.3607059E-009  0.9269436E+02  0.7818608E-02  0.1296455E+00
          1   -1    0    0  501    0  0.00000000000E+00  0.00000000000E+00  0.62509942794E+01  0.62509963112E+01  0.50400000000E-02 0. -1.
         -1   -1    0    0    0  501 -0.00000000000E+00 -0.00000000000E+00 -0.34363502650E+03  0.34363502653E+03  0.50400000000E-02 0.  1.
         23    2    1    2    0    0  0.00000000000E+00  0.00000000000E+00 -0.33738403222E+03  0.34988602284E+03  0.92694356824E+02 0.  0.
    9000005    2    3    3    0    0  0.33761237235E+02  0.12621068465E+02 -0.27567962417E+03  0.27842591872E+03  0.14920607375E+02 0.  0.
         22    1    3    3    0    0 -0.33761237235E+02 -0.12621068465E+02 -0.61704408046E+02  0.71460104123E+02  0.00000000000E+00 0. -1.
         22    1    4    4    0    0  0.34496721379E+02  0.13676157130E+02 -0.27216854915E+03  0.27468669463E+03  0.00000000000E+00 0.  1.
         22    1    4    4    0    0 -0.73548414361E+00 -0.10550886654E+01 -0.35110750206E+01  0.37392240930E+01  0.00000000000E+00 0.  1.
<mgrwt>
<rscale>  0 0.92694357E+02</rscale>
<asrwt>0</asrwt>
<pdfrwt beam="1">  1        1 0.96169185E-03 0.92694357E+02</pdfrwt>
<pdfrwt beam="2">  1       -1 0.52866913E-01 0.92694357E+02</pdfrwt>
<totfact> 0.54828492E+04</totfact>
</mgrwt>
</event>
<event>
 7    1  0.3607059E-009  0.9053237E+02  0.7818608E-02  0.1301568E+00
         -1   -1    0    0    0  501 -0.00000000000E+00  0.00000000000E+00  0.86844680096E+01  0.86844694721E+01  0.50400000000E-02 0.  1.
          1   -1    0    0  501    0  0.00000000000E+00 -0.00000000000E+00 -0.23594161969E+03  0.23594161974E+03  0.50400000000E-02 0. -1.
         23    2    1    2    0    0  0.00000000000E+00  0.00000000000E+00 -0.22725715168E+03  0.24462608921E+03  0.90532372856E+02 0.  0.
    9000005    2    3    3    0    0 -0.15130579942E+02  0.42390588168E+02 -0.11911819713E+03  0.12749398471E+03  0.62987963214E+01 0.  0.
         22    1    3    3    0    0  0.15130579942E+02 -0.42390588168E+02 -0.10813895454E+03  0.11713210450E+03  0.00000000000E+00 0.  1.
         22    1    4    4    0    0 -0.88648536781E+01  0.30402339519E+02 -0.89362020464E+02  0.94807481669E+02  0.00000000000E+00 0.  1.
         22    1    4    4    0    0 -0.62657262639E+01  0.11988248650E+02 -0.29756176669E+02  0.32686503044E+02  0.00000000000E+00 0.  1.
<mgrwt>
<rscale>  0 0.90532373E+02</rscale>
<asrwt>0</asrwt>
<pdfrwt beam="2">  1        1 0.36298706E-01 0.90532373E+02</pdfrwt>
<pdfrwt beam="1">  1       -1 0.13360723E-02 0.90532373E+02</pdfrwt>
<totfact> 0.12462188E+05</totfact>
</mgrwt>
</event>
<event>
 7    1  0.3607059E-009  0.9460363E+02  0.7818608E-02  0.1292071E+00
          1   -1    0    0  501    0  0.00000000000E+00  0.00000000000E+00  0.98134731520E+03  0.98134731521E+03  0.50400000000E-02 0. -1.
         -1   -1    0    0    0  501 -0.00000000000E+00 -0.00000000000E+00 -0.22799866416E+01  0.22799922122E+01  0.50400000000E-02 0.  1.
         23    2    1    2    0    0 -0.17763568394E-14  0.00000000000E+00  0.97906732856E+03  0.98362730743E+03  0.94603626050E+02 0.  0.
    9000005    2    3    3    0    0 -0.90639890016E+01  0.94601369747E+01  0.96195649404E+03  0.96207665207E+03  0.77160839473E+01 0.  0.
         22    1    3    3    0    0  0.90639890016E+01 -0.94601369747E+01  0.17110834523E+02  0.21550655356E+02  0.00000000000E+00 0.  1.
         22    1    4    4    0    0 -0.42966509783E+01  0.32910649599E+01  0.65077501988E+03  0.65079752521E+03  0.00000000000E+00 0. -1.
         22    1    4    4    0    0 -0.47673380233E+01  0.61690720147E+01  0.31118147416E+03  0.31127912686E+03  0.00000000000E+00 0. -1.
<mgrwt>
<rscale>  0 0.94603626E+02</rscale>
<asrwt>0</asrwt>
<pdfrwt beam="1">  1        1 0.15097622E+00 0.94603626E+02</pdfrwt>
<pdfrwt beam="2">  1       -1 0.35076828E-03 0.94603626E+02</pdfrwt>
<totfact> 0.12395338E+05</totfact>
</mgrwt>
</event>
<event>
 7    1  0.3607059E-009  0.9209135E+02  0.7818608E-02  0.1297865E+00
          1   -1    0    0  501    0  0.00000000000E+00  0.00000000000E+00  0.40721373557E+03  0.40721373560E+03  0.50400000000E-02 0. -1.
         -1   -1    0    0    0  501 -0.00000000000E+00 -0.00000000000E+00 -0.52066115774E+01  0.52066140168E+01  0.50400000000E-02 0.  1.
         23    2    1    2    0    0 -0.17763568394E-14  0.00000000000E+00  0.40200712399E+03  0.41242034961E+03  0.92091351592E+02 0.  0.
    9000005    2    3    3    0    0  0.10651723729E+02  0.23343119888E+02  0.37203965660E+03  0.37296899265E+03  0.58312032720E+01 0.  0.
         22    1    3    3    0    0 -0.10651723729E+02 -0.23343119888E+02  0.29967467386E+02  0.39451356960E+02  0.00000000000E+00 0.  1.
         22    1    4    4    0    0  0.10445569109E+02  0.20525799006E+02  0.34855483521E+03  0.34931488873E+03  0.00000000000E+00 0.  1.
         22    1    4    4    0    0  0.20615461914E+00  0.28173208818E+01  0.23484821395E+02  0.23654103928E+02  0.00000000000E+00 0.  1.
<mgrwt>
<rscale>  0 0.92091352E+02</rscale>
<asrwt>0</asrwt>
<pdfrwt beam="1">  1        1 0.62648264E-01 0.92091352E+02</pdfrwt>
<pdfrwt beam="2">  1       -1 0.80101740E-03 0.92091352E+02</pdfrwt>
<totfact> 0.13174278E+05</totfact>
</mgrwt>
</event>
<event>
 7    1  0.3607059E-009  0.7095214E+02  0.7818608E-02  0.1356885E+00
         -1   -1    0    0    0  501 -0.00000000000E+00  0.00000000000E+00  0.20487052266E+03  0.20487052272E+03  0.50400000000E-02 0.  1.
          1   -1    0    0  501    0  0.00000000000E+00 -0.00000000000E+00 -0.61431547166E+01  0.61431567841E+01  0.50400000000E-02 0. -1.
         23    2    1    2    0    0  0.00000000000E+00 -0.35527136788E-14  0.19872736794E+03  0.21101367950E+03  0.70952139988E+02 0.  0.
    9000005    2    3    3    0    0 -0.26323547672E+02 -0.23389107589E+02  0.11037552714E+03  0.11590307395E+03  0.32842112976E+01 0.  0.
         22    1    3    3    0    0  0.26323547672E+02  0.23389107589E+02  0.88351840798E+02  0.95110605551E+02  0.00000000000E+00 0.  1.
         22    1    4    4    0    0 -0.65351033119E+00 -0.11853726286E+01  0.30034677408E+01  0.32943895476E+01  0.00000000000E+00 0.  1.
         22    1    4    4    0    0 -0.25670037340E+02 -0.22203734960E+02  0.10737205940E+03  0.11260868440E+03  0.00000000000E+00 0.  1.
<mgrwt>
<rscale>  0 0.70952140E+02</rscale>
<asrwt>0</asrwt>
<pdfrwt beam="2">  1        1 0.94510112E-03 0.70952140E+02</pdfrwt>
<pdfrwt beam="1">  1       -1 0.31518534E-01 0.70952140E+02</pdfrwt>
<totfact> 0.13179162E+05</totfact>
</mgrwt>
</event>
<event>
 7    1  0.4267044E-009  0.9413839E+02  0.7818608E-02  0.1293129E+00
          1   -1    0    0  501    0  0.00000000000E+00  0.00000000000E+00  0.14141288423E+02  0.14141289321E+02  0.50400000000E-02 0. -1.
         -1   -1    0    0    0  501 -0.00000000000E+00 -0.00000000000E+00 -0.15666954264E+03  0.15666954272E+03  0.50400000000E-02 0.  1.
         23    2    1    2    0    0  0.00000000000E+00  0.17763568394E-14 -0.14252825422E+03  0.17081083205E+03  0.94138393300E+02 0.  0.
    9000005    2    3    3    0    0  0.83692083710E+01  0.13081742969E+02 -0.15141286317E+03  0.15291916013E+03  0.14739021379E+02 0.  0.
         22    1    3    3    0    0 -0.83692083710E+01 -0.13081742969E+02  0.88846089530E+01  0.17891671921E+02  0.00000000000E+00 0. -1.
         22    1    4    4    0    0  0.39384599766E+01  0.12611946730E+02 -0.14066759571E+03  0.14128674796E+03  0.00000000000E+00 0. -1.
         22    1    4    4    0    0  0.44307483945E+01  0.46979623981E+00 -0.10745267464E+02  0.11632412162E+02  0.00000000000E+00 0. -1.
<mgrwt>
<rscale>  0 0.94138393E+02</rscale>
<asrwt>0</asrwt>
<pdfrwt beam="1">  1        1 0.21755830E-02 0.94138393E+02</pdfrwt>
<pdfrwt beam="2">  1       -1 0.24103006E-01 0.94138393E+02</pdfrwt>
<totfact> 0.68113623E+04</totfact>
</mgrwt>
</event>
<event>
 7    1  0.3607059E-009  0.9479401E+02  0.7818608E-02  0.1291641E+00
          1   -1    0    0  501    0  0.00000000000E+00  0.00000000000E+00  0.36343969823E+02  0.36343970173E+02  0.50400000000E-02 0. -1.
         -1   -1    0    0    0  501 -0.00000000000E+00 -0.00000000000E+00 -0.61811518077E+02  0.61811518282E+02  0.50400000000E-02 0.  1.
         23    2    1    2    0    0 -0.35527136788E-14  0.00000000000E+00 -0.25467548253E+02  0.98155488455E+02  0.94794007721E+02 0.  0.
    9000005    2    3    3    0    0 -0.20308953180E+02  0.28104364848E+02 -0.45330208465E+02  0.58195080881E+02  0.11381157083E+02 0.  0.
         22    1    3    3    0    0  0.20308953180E+02 -0.28104364848E+02  0.19862660212E+02  0.39960407573E+02  0.00000000000E+00 0. -1.
         22    1    4    4    0    0 -0.12855069194E+02  0.25567589117E+02 -0.35226527334E+02  0.45385709703E+02  0.00000000000E+00 0. -1.
         22    1    4    4    0    0 -0.74538839857E+01  0.25367757305E+01 -0.10103681131E+02  0.12809371178E+02  0.00000000000E+00 0. -1.
<mgrwt>
<rscale>  0 0.94794008E+02</rscale>
<asrwt>0</asrwt>
<pdfrwt beam="1">  1        1 0.55913800E-02 0.94794008E+02</pdfrwt>
<pdfrwt beam="2">  1       -1 0.95094644E-02 0.94794008E+02</pdfrwt>
<totfact> 0.79961239E+04</totfact>
</mgrwt>
</event>
<event>
 7    1  0.3607059E-009  0.9215640E+02  0.7818608E-02  0.1297712E+00
          1   -1    0    0  501    0  0.00000000000E+00  0.00000000000E+00  0.91446979713E+03  0.91446979715E+03  0.50400000000E-02 0. -1.
         -1   -1    0    0    0  501 -0.00000000000E+00 -0.00000000000E+00 -0.23217804853E+01  0.23217859555E+01  0.50400000000E-02 0.  1.
         23    2    1    2    0    0  0.00000000000E+00  0.00000000000E+00  0.91214801665E+03  0.91679158310E+03  0.92156402778E+02 0.  0.
    9000005    2    3    3    0    0  0.16094649365E+02  0.25740924719E+02  0.79948227983E+03  0.80010738881E+03  0.88478772897E+01 0.  0.
         22    1    3    3    0    0 -0.16094649365E+02 -0.25740924719E+02  0.11266573682E+03  0.11668419429E+03  0.00000000000E+00 0.  1.
         22    1    4    4    0    0 -0.20921694846E+00  0.60433236695E+01  0.15846266295E+03  0.15857799684E+03  0.00000000000E+00 0. -1.
         22    1    4    4    0    0  0.16303866313E+02  0.19697601050E+02  0.64101961687E+03  0.64152939197E+03  0.00000000000E+00 0. -1.
<mgrwt>
<rscale>  0 0.92156403E+02</rscale>
<asrwt>0</asrwt>
<pdfrwt beam="1">  1        1 0.14068759E+00 0.92156403E+02</pdfrwt>
<pdfrwt beam="2">  1       -1 0.35719760E-03 0.92156403E+02</pdfrwt>
<totfact> 0.13491091E+05</totfact>
</mgrwt>
</event>
<event>
 7    1  0.3607059E-009  0.8806093E+02  0.7818608E-02  0.1307617E+00
         -1   -1    0    0    0  501 -0.00000000000E+00  0.00000000000E+00  0.31310264350E+03  0.31310264354E+03  0.50400000000E-02 0.  1.
          1   -1    0    0  501    0  0.00000000000E+00 -0.00000000000E+00 -0.61918397555E+01  0.61918418068E+01  0.50400000000E-02 0. -1.
         23    2    1    2    0    0  0.00000000000E+00  0.00000000000E+00  0.30691080375E+03  0.31929448535E+03  0.88060927307E+02 0.  0.
    9000005    2    3    3    0    0 -0.17653291962E+02  0.25799637296E+02  0.26553293067E+03  0.26743517199E+03  0.60476396817E+01 0.  0.
         22    1    3    3    0    0  0.17653291962E+02 -0.25799637296E+02  0.41377873075E+02  0.51859313358E+02  0.00000000000E+00 0. -1.
         22    1    4    4    0    0 -0.36816118241E+01  0.10256437132E+02  0.84457341468E+02  0.85157450033E+02  0.00000000000E+00 0.  1.
         22    1    4    4    0    0 -0.13971680138E+02  0.15543200164E+02  0.18107558920E+03  0.18227772196E+03  0.00000000000E+00 0.  1.
<mgrwt>
<rscale>  0 0.88060927E+02</rscale>
<asrwt>0</asrwt>
<pdfrwt beam="2">  1        1 0.95259067E-03 0.88060927E+02</pdfrwt>
<pdfrwt beam="1">  1       -1 0.48169649E-01 0.88060927E+02</pdfrwt>
<totfact> 0.65218593E+04</totfact>
</mgrwt>
</event>
<event>
 7    1  0.3607059E-009  0.9482215E+02  0.7818608E-02  0.1291577E+00
          1   -1    0    0  501    0  0.00000000000E+00  0.00000000000E+00  0.16860260002E+02  0.16860260755E+02  0.50400000000E-02 0. -1.
         -1   -1    0    0    0  501 -0.00000000000E+00 -0.00000000000E+00 -0.13332000065E+03  0.13332000075E+03  0.50400000000E-02 0.  1.
         23    2    1    2    0    0 -0.17763568394E-14 -0.71054273576E-14 -0.11645974065E+03  0.15018026150E+03  0.94822148007E+02 0.  0.
    9000005    2    3    3    0    0  0.69378997422E+01  0.45520341666E+02 -0.56868258821E+02  0.74871691838E+02  0.15859868196E+02 0.  0.
         22    1    3    3    0    0 -0.69378997422E+01 -0.45520341666E+02 -0.59591481831E+02  0.75308569665E+02  0.00000000000E+00 0. -1.
         22    1    4    4    0    0 -0.48784284825E+01  0.13503495377E+02 -0.20156404239E+02  0.24747203553E+02  0.00000000000E+00 0. -1.
         22    1    4    4    0    0  0.11816328225E+02  0.32016846289E+02 -0.36711854582E+02  0.50124488285E+02  0.00000000000E+00 0. -1.
<mgrwt>
<rscale>  0 0.94822148E+02</rscale>
<asrwt>0</asrwt>
<pdfrwt beam="1">  1        1 0.25938863E-02 0.94822148E+02</pdfrwt>
<pdfrwt beam="2">  1       -1 0.20510769E-01 0.94822148E+02</pdfrwt>
<totfact> 0.69376847E+04</totfact>
</mgrwt>
</event>
<event>
 7    1  0.3607059E-009  0.1271494E+03  0.7818608E-02  0.1231748E+00
          1   -1    0    0  501    0  0.00000000000E+00  0.00000000000E+00  0.40963407697E+03  0.40963407700E+03  0.50400000000E-02 0. -1.
         -1   -1    0    0    0  501 -0.00000000000E+00 -0.00000000000E+00 -0.98667184617E+01  0.98667197489E+01  0.50400000000E-02 0.  1.
         23    2    1    2    0    0 -0.71054273576E-14  0.17763568394E-14  0.39976735851E+03  0.41950079675E+03  0.12714942998E+03 0.  0.
    9000005    2    3    3    0    0  0.39985850432E+02 -0.80443199997E+01  0.36011608857E+03  0.36261668186E+03  0.11986717527E+02 0.  0.
         22    1    3    3    0    0 -0.39985850432E+02  0.80443199997E+01  0.39651269937E+02  0.56884114889E+02  0.00000000000E+00 0.  1.
         22    1    4    4    0    0  0.72409567374E+01  0.31626456225E+01  0.66079829336E+02  0.66550564437E+02  0.00000000000E+00 0.  1.
         22    1    4    4    0    0  0.32744893695E+02 -0.11206965622E+02  0.29403625924E+03  0.29606611743E+03  0.00000000000E+00 0.  1.
<mgrwt>
<rscale>  0 0.12714943E+03</rscale>
<asrwt>0</asrwt>
<pdfrwt beam="1">  1        1 0.63020625E-01 0.12714943E+03</pdfrwt>
<pdfrwt beam="2">  1       -1 0.15179568E-02 0.12714943E+03</pdfrwt>
<totfact> 0.55167811E+04</totfact>
</mgrwt>
</event>
<event>
 7    1  0.3607059E-009  0.9136893E+02  0.7818608E-02  0.1299570E+00
          1   -1    0    0  501    0  0.00000000000E+00  0.00000000000E+00  0.82656928308E+02  0.82656928462E+02  0.50400000000E-02 0. -1.
         -1   -1    0    0    0  501 -0.00000000000E+00 -0.00000000000E+00 -0.25249792096E+02  0.25249792599E+02  0.50400000000E-02 0.  1.
         23    2    1    2    0    0  0.17763568394E-14  0.00000000000E+00  0.57407136213E+02  0.10790672106E+03  0.91368928865E+02 0.  0.
    9000005    2    3    3    0    0 -0.10622672072E+02 -0.17110336238E+02  0.76523414832E+02  0.80139170280E+02  0.12682619105E+02 0.  0.
         22    1    3    3    0    0  0.10622672072E+02  0.17110336238E+02 -0.19116278619E+02  0.27767550781E+02  0.00000000000E+00 0.  1.
         22    1    4    4    0    0  0.50791212344E+00 -0.44642841344E+01  0.35620406697E+02  0.35902662587E+02  0.00000000000E+00 0.  1.
         22    1    4    4    0    0 -0.11130584196E+02 -0.12646052103E+02  0.40903008135E+02  0.44236507693E+02  0.00000000000E+00 0.  1.
<mgrwt>
<rscale>  0 0.91368929E+02</rscale>
<asrwt>0</asrwt>
<pdfrwt beam="1">  1        1 0.12716450E-01 0.91368929E+02</pdfrwt>
<pdfrwt beam="2">  1       -1 0.38845835E-02 0.91368929E+02</pdfrwt>
<totfact> 0.10068347E+05</totfact>
</mgrwt>
</event>
<event>
 7    1  0.3607059E-009  0.9221503E+02  0.7818608E-02  0.1297575E+00
          1   -1    0    0  501    0  0.00000000000E+00  0.00000000000E+00  0.14232729531E+03  0.14232729540E+03  0.50400000000E-02 0. -1.
         -1   -1    0    0    0  501 -0.00000000000E+00 -0.00000000000E+00 -0.14936719935E+02  0.14936720785E+02  0.50400000000E-02 0.  1.
         23    2    1    2    0    0 -0.35527136788E-14  0.44408920985E-15  0.12739057537E+03  0.15726401618E+03  0.92215031812E+02 0.  0.
    9000005    2    3    3    0    0  0.27343227823E+02  0.25713463309E+01  0.20629671947E+01  0.28962522421E+02  0.89614698366E+01 0.  0.
         22    1    3    3    0    0 -0.27343227823E+02 -0.25713463309E+01  0.12532760818E+03  0.12830149376E+03  0.00000000000E+00 0. -1.
         22    1    4    4    0    0  0.17020477351E+02  0.57271182981E+01 -0.75673177982E-01  0.17958347911E+02  0.00000000000E+00 0. -1.
         22    1    4    4    0    0  0.10322750471E+02 -0.31557719672E+01  0.21386403727E+01  0.11004174510E+02  0.00000000000E+00 0. -1.
<mgrwt>
<rscale>  0 0.92215032E+02</rscale>
<asrwt>0</asrwt>
<pdfrwt beam="1">  1        1 0.21896508E-01 0.92215032E+02</pdfrwt>
<pdfrwt beam="2">  1       -1 0.22979569E-02 0.92215032E+02</pdfrwt>
<totfact> 0.10771161E+05</totfact>
</mgrwt>
</event>
<event>
 7    1  0.3607059E-009  0.9741018E+02  0.7818608E-02  0.1285838E+00
         -1   -1    0    0    0  501 -0.00000000000E+00  0.00000000000E+00  0.76036888312E+02  0.76036888479E+02  0.50400000000E-02 0.  1.
          1   -1    0    0  501    0  0.00000000000E+00 -0.00000000000E+00 -0.31197830820E+02  0.31197831227E+02  0.50400000000E-02 0. -1.
         23    2    1    2    0    0  0.00000000000E+00  0.00000000000E+00  0.44839057492E+02  0.10723471971E+03  0.97410184446E+02 0.  0.
    9000005    2    3    3    0    0  0.48059689275E+02  0.65868226082E+01  0.23189335234E+02  0.54113815732E+02  0.61188086415E+01 0.  0.
         22    1    3    3    0    0 -0.48059689275E+02 -0.65868226082E+01  0.21649722258E+02  0.53120903975E+02  0.00000000000E+00 0.  1.
         22    1    4    4    0    0  0.40815740377E+02  0.35703041491E+01  0.18337243735E+02  0.44887929803E+02  0.00000000000E+00 0. -1.
         22    1    4    4    0    0  0.72439488983E+01  0.30165184591E+01  0.48520914994E+01  0.92258859289E+01  0.00000000000E+00 0. -1.
<mgrwt>
<rscale>  0 0.97410184E+02</rscale>
<asrwt>0</asrwt>
<pdfrwt beam="2">  1        1 0.47996664E-02 0.97410184E+02</pdfrwt>
<pdfrwt beam="1">  1       -1 0.11697983E-01 0.97410184E+02</pdfrwt>
<totfact> 0.72080791E+04</totfact>
</mgrwt>
</event>
<event>
 7    1  0.3607059E-009  0.9232631E+02  0.7818608E-02  0.1297314E+00
         -1   -1    0    0    0  501 -0.00000000000E+00  0.00000000000E+00  0.99639900673E+02  0.99639900800E+02  0.50400000000E-02 0.  1.
          1   -1    0    0  501    0  0.00000000000E+00 -0.00000000000E+00 -0.21387384386E+02  0.21387384980E+02  0.50400000000E-02 0. -1.
         23    2    1    2    0    0  0.00000000000E+00 -0.35527136788E-14  0.78252516287E+02  0.12102728578E+03  0.92326310433E+02 0.  0.
    9000005    2    3    3    0    0  0.33399714764E+02  0.28413452014E+02  0.21166542762E+02  0.49043443323E+02  0.58627296333E+01 0.  0.
         22    1    3    3    0    0 -0.33399714764E+02 -0.28413452014E+02  0.57085973524E+02  0.71983842457E+02  0.00000000000E+00 0. -1.
         22    1    4    4    0    0  0.21107549447E+01  0.23393215779E+01  0.33163437289E+01  0.45744778510E+01  0.00000000000E+00 0. -1.
         22    1    4    4    0    0  0.31288959820E+02  0.26074130436E+02  0.17850199034E+02  0.44468965472E+02  0.00000000000E+00 0. -1.
<mgrwt>
<rscale>  0 0.92326310E+02</rscale>
<asrwt>0</asrwt>
<pdfrwt beam="2">  1        1 0.32903668E-02 0.92326310E+02</pdfrwt>
<pdfrwt beam="1">  1       -1 0.15329216E-01 0.92326310E+02</pdfrwt>
<totfact> 0.78837266E+04</totfact>
</mgrwt>
</event>
<event>
 7    1  0.3607059E-009  0.8999441E+02  0.7818608E-02  0.1302865E+00
         -1   -1    0    0    0  501 -0.00000000000E+00  0.00000000000E+00  0.81221774883E+02  0.81221775039E+02  0.50400000000E-02 0.  1.
          1   -1    0    0  501    0  0.00000000000E+00 -0.00000000000E+00 -0.24928642914E+02  0.24928643424E+02  0.50400000000E-02 0. -1.
         23    2    1    2    0    0  0.00000000000E+00  0.17763568394E-14  0.56293131968E+02  0.10615041846E+03  0.89994414455E+02 0.  0.
    9000005    2    3    3    0    0  0.34184427344E+02  0.92882332995E+01 -0.14442294662E+01  0.38412325369E+02  0.14784268356E+02 0.  0.
         22    1    3    3    0    0 -0.34184427344E+02 -0.92882332995E+01  0.57737361435E+02  0.67738093094E+02  0.00000000000E+00 0. -1.
         22    1    4    4    0    0  0.26498935421E+02  0.59568378490E+01 -0.73811183049E+01  0.28145308722E+02  0.00000000000E+00 0.  1.
         22    1    4    4    0    0  0.76854919222E+01  0.33313954505E+01  0.59368888387E+01  0.10267016646E+02  0.00000000000E+00 0.  1.
<mgrwt>
<rscale>  0 0.89994414E+02</rscale>
<asrwt>0</asrwt>
<pdfrwt beam="2">  1        1 0.38351759E-02 0.89994414E+02</pdfrwt>
<pdfrwt beam="1">  1       -1 0.12495658E-01 0.89994414E+02</pdfrwt>
<totfact> 0.87300779E+04</totfact>
</mgrwt>
</event>
<event>
 7    1  0.3607059E-009  0.9314702E+02  0.7818608E-02  0.1295405E+00
         -1   -1    0    0    0  501 -0.00000000000E+00  0.00000000000E+00  0.84619162821E+01  0.84619177830E+01  0.50400000000E-02 0.  1.
          1   -1    0    0  501    0  0.00000000000E+00 -0.00000000000E+00 -0.25633577379E+03  0.25633577384E+03  0.50400000000E-02 0. -1.
         23    2    1    2    0    0  0.00000000000E+00  0.35527136788E-14 -0.24787385751E+03  0.26479769163E+03  0.93147024928E+02 0.  0.
    9000005    2    3    3    0    0  0.27007798632E+02  0.18765797419E+02 -0.21723704131E+03  0.21985115842E+03  0.78117478905E+01 0.  0.
         22    1    3    3    0    0 -0.27007798632E+02 -0.18765797419E+02 -0.30636816206E+02  0.44946533203E+02  0.00000000000E+00 0.  1.
         22    1    4    4    0    0  0.26456726188E+02  0.18800553107E+02 -0.20090606510E+03  0.20351085021E+03  0.00000000000E+00 0. -1.
         22    1    4    4    0    0  0.55107244355E+00 -0.34755687909E-01 -0.16330976204E+02  0.16340308216E+02  0.00000000000E+00 0. -1.
<mgrwt>
<rscale>  0 0.93147025E+02</rscale>
<asrwt>0</asrwt>
<pdfrwt beam="2">  1        1 0.39436267E-01 0.93147025E+02</pdfrwt>
<pdfrwt beam="1">  1       -1 0.13018336E-02 0.93147025E+02</pdfrwt>
<totfact> 0.11736558E+05</totfact>
</mgrwt>
</event>
<event>
 7    1  0.3607059E-009  0.8955034E+02  0.7818608E-02  0.1303944E+00
          1   -1    0    0  501    0  0.00000000000E+00  0.00000000000E+00  0.16298563678E+03  0.16298563686E+03  0.50400000000E-02 0. -1.
         -1   -1    0    0    0  501 -0.00000000000E+00 -0.00000000000E+00 -0.12300568042E+02  0.12300569075E+02  0.50400000000E-02 0.  1.
         23    2    1    2    0    0 -0.35527136788E-14  0.44408920985E-15  0.15068506874E+03  0.17528620593E+03  0.89550343661E+02 0.  0.
    9000005    2    3    3    0    0 -0.31787728223E+02  0.31320104028E+01  0.13578128658E+03  0.14003862619E+03  0.12409266185E+02 0.  0.
         22    1    3    3    0    0  0.31787728223E+02 -0.31320104028E+01  0.14903782162E+02  0.35247579739E+02  0.00000000000E+00 0.  1.
         22    1    4    4    0    0 -0.47857290933E+01 -0.27938850990E+01  0.38817115211E+02  0.39210680053E+02  0.00000000000E+00 0.  1.
         22    1    4    4    0    0 -0.27001999130E+02  0.59258955018E+01  0.96964171364E+02  0.10082794614E+03  0.00000000000E+00 0.  1.
<mgrwt>
<rscale>  0 0.89550344E+02</rscale>
<asrwt>0</asrwt>
<pdfrwt beam="1">  1        1 0.25074714E-01 0.89550344E+02</pdfrwt>
<pdfrwt beam="2">  1       -1 0.18923951E-02 0.89550344E+02</pdfrwt>
<totfact> 0.11951693E+05</totfact>
</mgrwt>
</event>
<event>
 7    1  0.3607059E-009  0.9361267E+02  0.7818608E-02  0.1294332E+00
          1   -1    0    0  501    0  0.00000000000E+00  0.00000000000E+00  0.24968458611E+03  0.24968458616E+03  0.50400000000E-02 0. -1.
         -1   -1    0    0    0  501 -0.00000000000E+00 -0.00000000000E+00 -0.87744007757E+01  0.87744022232E+01  0.50400000000E-02 0.  1.
         23    2    1    2    0    0  0.17763568394E-14  0.00000000000E+00  0.24091018533E+03  0.25845898838E+03  0.93612666230E+02 0.  0.
    9000005    2    3    3    0    0 -0.11802941653E+02  0.10226028964E+01  0.24529961166E+03  0.24582481996E+03  0.10843776095E+02 0.  0.
         22    1    3    3    0    0  0.11802941653E+02 -0.10226028964E+01 -0.43894263233E+01  0.12634168425E+02  0.00000000000E+00 0.  1.
         22    1    4    4    0    0 -0.18786561989E+01 -0.43292160414E+01  0.82949233570E+02  0.83083372647E+02  0.00000000000E+00 0. -1.
         22    1    4    4    0    0 -0.99242854544E+01  0.53518189378E+01  0.16235037809E+03  0.16274144731E+03  0.00000000000E+00 0. -1.
<mgrwt>
<rscale>  0 0.93612666E+02</rscale>
<asrwt>0</asrwt>
<pdfrwt beam="1">  1        1 0.38413011E-01 0.93612666E+02</pdfrwt>
<pdfrwt beam="2">  1       -1 0.13499080E-02 0.93612666E+02</pdfrwt>
<totfact> 0.11521399E+05</totfact>
</mgrwt>
</event>
<event>
 7    1  0.3607059E-009  0.9010066E+02  0.7818608E-02  0.1302608E+00
          1   -1    0    0  501    0  0.00000000000E+00  0.00000000000E+00  0.47609500433E+03  0.47609500435E+03  0.50400000000E-02 0.  1.
         -1   -1    0    0    0  501 -0.00000000000E+00 -0.00000000000E+00 -0.42628709824E+01  0.42628739618E+01  0.50400000000E-02 0. -1.
         23    2    1    2    0    0  0.00000000000E+00 -0.71054273576E-14  0.47183213334E+03  0.48035787831E+03  0.90100661502E+02 0.  0.
    9000005    2    3    3    0    0 -0.49125821399E+01 -0.36113871267E+02  0.37534930241E+03  0.37722067927E+03  0.89440980757E+01 0.  0.
         22    1    3    3    0    0  0.49125821399E+01  0.36113871267E+02  0.96482830937E+02  0.10313719904E+03  0.00000000000E+00 0. -1.
         22    1    4    4    0    0 -0.25477232971E+01 -0.19349081495E+02  0.24506851404E+03  0.24584437033E+03  0.00000000000E+00 0. -1.
         22    1    4    4    0    0 -0.23648588427E+01 -0.16764789772E+02  0.13028078836E+03  0.13137630894E+03  0.00000000000E+00 0. -1.
<mgrwt>
<rscale>  0 0.90100662E+02</rscale>
<asrwt>0</asrwt>
<pdfrwt beam="1">  1        1 0.73245376E-01 0.90100662E+02</pdfrwt>
<pdfrwt beam="2">  1       -1 0.65582662E-03 0.90100662E+02</pdfrwt>
<totfact> 0.14284215E+05</totfact>
</mgrwt>
</event>
<event>
 7    1  0.3607059E-009  0.9110062E+02  0.7818608E-02  0.1300208E+00
         -1   -1    0    0    0  501 -0.00000000000E+00  0.00000000000E+00  0.78616471398E+02  0.78616471560E+02  0.50400000000E-02 0.  1.
          1   -1    0    0  501    0  0.00000000000E+00 -0.00000000000E+00 -0.26391805872E+02  0.26391806353E+02  0.50400000000E-02 0. -1.
         23    2    1    2    0    0  0.00000000000E+00  0.00000000000E+00  0.52224665526E+02  0.10500827791E+03  0.91100618773E+02 0.  0.
    9000005    2    3    3    0    0 -0.38937481847E+02  0.84366898124E+00  0.52228631914E+02  0.66061656934E+02  0.10930382217E+02 0.  0.
         22    1    3    3    0    0  0.38937481847E+02 -0.84366898124E+00 -0.39663872253E-02  0.38946620979E+02  0.00000000000E+00 0.  1.
         22    1    4    4    0    0 -0.29985461562E+02  0.15485961132E-03  0.46726272487E+02  0.55520018422E+02  0.00000000000E+00 0. -1.
         22    1    4    4    0    0 -0.89520202846E+01  0.84351412163E+00  0.55023594267E+01  0.10541638512E+02  0.00000000000E+00 0. -1.
<mgrwt>
<rscale>  0 0.91100619E+02</rscale>
<asrwt>0</asrwt>
<pdfrwt beam="2">  1        1 0.40602778E-02 0.91100619E+02</pdfrwt>
<pdfrwt beam="1">  1       -1 0.12094842E-01 0.91100619E+02</pdfrwt>
<totfact> 0.85081957E+04</totfact>
</mgrwt>
</event>
<event>
 7    1  0.3607059E-009  0.9045938E+02  0.7818608E-02  0.1301743E+00
         -1   -1    0    0    0  501 -0.00000000000E+00  0.00000000000E+00  0.39197218853E+02  0.39197219177E+02  0.50400000000E-02 0.  1.
          1   -1    0    0  501    0  0.00000000000E+00 -0.00000000000E+00 -0.52190559807E+02  0.52190560050E+02  0.50400000000E-02 0. -1.
         23    2    1    2    0    0  0.35527136788E-14  0.00000000000E+00 -0.12993340953E+02  0.91387779227E+02  0.90459379187E+02 0.  0.
    9000005    2    3    3    0    0 -0.30233414088E+02  0.28537020457E+02  0.11154665033E+02  0.43309228322E+02  0.47793139535E+01 0.  0.
         22    1    3    3    0    0  0.30233414088E+02 -0.28537020457E+02 -0.24148005986E+02  0.48078550905E+02  0.00000000000E+00 0. -1.
         22    1    4    4    0    0 -0.10240906848E+02  0.79711854441E+01  0.53973742133E+01  0.14055163423E+02  0.00000000000E+00 0.  1.
         22    1    4    4    0    0 -0.19992507240E+02  0.20565835013E+02  0.57572908197E+01  0.29254064899E+02  0.00000000000E+00 0.  1.
<mgrwt>
<rscale>  0 0.90459379E+02</rscale>
<asrwt>0</asrwt>
<pdfrwt beam="2">  1        1 0.80293169E-02 0.90459379E+02</pdfrwt>
<pdfrwt beam="1">  1       -1 0.60303414E-02 0.90459379E+02</pdfrwt>
<totfact> 0.96469577E+04</totfact>
</mgrwt>
</event>
<event>
 7    1  0.3607059E-009  0.8888396E+02  0.7818608E-02  0.1305577E+00
          1   -1    0    0  501    0  0.00000000000E+00  0.00000000000E+00  0.19551568048E+03  0.19551568055E+03  0.50400000000E-02 0. -1.
         -1   -1    0    0    0  501 -0.00000000000E+00 -0.00000000000E+00 -0.10101950210E+02  0.10101951467E+02  0.50400000000E-02 0.  1.
         23    2    1    2    0    0 -0.17763568394E-14  0.00000000000E+00  0.18541373027E+03  0.20561763202E+03  0.88883964930E+02 0.  0.
    9000005    2    3    3    0    0  0.13760416496E+02 -0.36807211386E+02  0.49417090786E+02  0.64057730122E+02  0.10827005795E+02 0.  0.
         22    1    3    3    0    0 -0.13760416496E+02  0.36807211386E+02  0.13599663949E+03  0.14155990189E+03  0.00000000000E+00 0. -1.
         22    1    4    4    0    0  0.10232308203E+02 -0.20814909348E+02  0.36291301736E+02  0.43069933410E+02  0.00000000000E+00 0. -1.
         22    1    4    4    0    0  0.35281082932E+01 -0.15992302038E+02  0.13125789050E+02  0.20987796711E+02  0.00000000000E+00 0. -1.
<mgrwt>
<rscale>  0 0.88883965E+02</rscale>
<asrwt>0</asrwt>
<pdfrwt beam="1">  1        1 0.30079333E-01 0.88883965E+02</pdfrwt>
<pdfrwt beam="2">  1       -1 0.15541464E-02 0.88883965E+02</pdfrwt>
<totfact> 0.12620638E+05</totfact>
</mgrwt>
</event>
<event>
 7    1  0.3607059E-009  0.9190577E+02  0.7818608E-02  0.1298301E+00
         -1   -1    0    0    0  501 -0.00000000000E+00  0.00000000000E+00  0.10092359532E+02  0.10092360791E+02  0.50400000000E-02 0.  1.
          1   -1    0    0  501    0  0.00000000000E+00 -0.00000000000E+00 -0.20923424997E+03  0.20923425003E+03  0.50400000000E-02 0. -1.
         23    2    1    2    0    0 -0.17763568394E-14 -0.71054273576E-14 -0.19914189044E+03  0.21932661082E+03  0.91905765257E+02 0.  0.
    9000005    2    3    3    0    0  0.11041035103E+02  0.42906001999E+02 -0.78089334113E+02  0.90421409777E+02  0.10735817629E+02 0.  0.
         22    1    3    3    0    0 -0.11041035103E+02 -0.42906001999E+02 -0.12105255633E+03  0.12890520105E+03  0.00000000000E+00 0. -1.
         22    1    4    4    0    0  0.10525385282E+01 -0.60002883943E-01 -0.49453656755E+00  0.11644758976E+01  0.00000000000E+00 0.  1.
         22    1    4    4    0    0  0.99884965753E+01  0.42966004883E+02 -0.77594797546E+02  0.89256933879E+02  0.00000000000E+00 0.  1.
<mgrwt>
<rscale>  0 0.91905765E+02</rscale>
<asrwt>0</asrwt>
<pdfrwt beam="2">  1        1 0.32189881E-01 0.91905765E+02</pdfrwt>
<pdfrwt beam="1">  1       -1 0.15526710E-02 0.91905765E+02</pdfrwt>
<totfact> 0.11692436E+05</totfact>
</mgrwt>
</event>
<event>
 7    1  0.3607059E-009  0.9051387E+02  0.7818608E-02  0.1301612E+00
          1   -1    0    0  501    0  0.00000000000E+00  0.00000000000E+00  0.79988450903E+02  0.79988451062E+02  0.50400000000E-02 0. -1.
         -1   -1    0    0    0  501 -0.00000000000E+00 -0.00000000000E+00 -0.25606075310E+02  0.25606075806E+02  0.50400000000E-02 0.  1.
         23    2    1    2    0    0  0.00000000000E+00  0.44408920985E-15  0.54382375593E+02  0.10559452687E+03  0.90513873683E+02 0.  0.
    9000005    2    3    3    0    0 -0.19933613701E+02 -0.23886682142E+01  0.74085877349E+02  0.77464779758E+02  0.10441273361E+02 0.  0.
         22    1    3    3    0    0  0.19933613701E+02  0.23886682142E+01 -0.19703501755E+02  0.28129747109E+02  0.00000000000E+00 0.  1.
         22    1    4    4    0    0 -0.89037196641E+01  0.26595977927E+01  0.45024100080E+02  0.45973027661E+02  0.00000000000E+00 0. -1.
         22    1    4    4    0    0 -0.11029894037E+02 -0.50482660069E+01  0.29061777269E+02  0.31491752097E+02  0.00000000000E+00 0. -1.
<mgrwt>
<rscale>  0 0.90513874E+02</rscale>
<asrwt>0</asrwt>
<pdfrwt beam="1">  1        1 0.12305916E-01 0.90513874E+02</pdfrwt>
<pdfrwt beam="2">  1       -1 0.39393962E-02 0.90513874E+02</pdfrwt>
<totfact> 0.10277797E+05</totfact>
</mgrwt>
</event>
<event>
 7    1  0.3607059E-009  0.9213938E+02  0.7818608E-02  0.1297752E+00
          1   -1    0    0  501    0  0.00000000000E+00  0.00000000000E+00  0.89121570008E+02  0.89121570150E+02  0.50400000000E-02 0. -1.
         -1   -1    0    0    0  501 -0.00000000000E+00 -0.00000000000E+00 -0.23814844523E+02  0.23814845056E+02  0.50400000000E-02 0.  1.
         23    2    1    2    0    0  0.17763568394E-14  0.35527136788E-14  0.65306725485E+02  0.11293641521E+03  0.92139380756E+02 0.  0.
    9000005    2    3    3    0    0 -0.15956817993E+02  0.20580318098E+02 -0.12772227658E+02  0.30629110200E+02  0.98408870969E+01 0.  0.
         22    1    3    3    0    0  0.15956817993E+02 -0.20580318098E+02  0.78078953143E+02  0.82307305006E+02  0.00000000000E+00 0. -1.
         22    1    4    4    0    0 -0.17248508379E+02  0.19459244626E+02 -0.11224633417E+02  0.28322528808E+02  0.00000000000E+00 0. -1.
         22    1    4    4    0    0  0.12916903866E+01  0.11210734713E+01 -0.15475942414E+01  0.23065813922E+01  0.00000000000E+00 0. -1.
<mgrwt>
<rscale>  0 0.92139381E+02</rscale>
<asrwt>0</asrwt>
<pdfrwt beam="1">  1        1 0.13711011E-01 0.92139381E+02</pdfrwt>
<pdfrwt beam="2">  1       -1 0.36638224E-02 0.92139381E+02</pdfrwt>
<totfact> 0.99590254E+04</totfact>
</mgrwt>
</event>
<event>
 7    1  0.3607059E-009  0.9148580E+02  0.7818608E-02  0.1299293E+00
          1   -1    0    0  501    0  0.00000000000E+00  0.00000000000E+00  0.38063475884E+03  0.38063475887E+03  0.50400000000E-02 0. -1.
         -1   -1    0    0    0  501 -0.00000000000E+00 -0.00000000000E+00 -0.54971664742E+01  0.54971687846E+01  0.50400000000E-02 0.  1.
         23    2    1    2    0    0  0.00000000000E+00  0.00000000000E+00  0.37513759236E+03  0.38613192765E+03  0.91485804094E+02 0.  0.
    9000005    2    3    3    0    0 -0.23244210584E+02 -0.36711669049E+02  0.23588930198E+03  0.24026168962E+03  0.13923962799E+02 0.  0.
         22    1    3    3    0    0  0.23244210584E+02  0.36711669049E+02  0.13924829038E+03  0.14587023804E+03  0.00000000000E+00 0.  1.
         22    1    4    4    0    0 -0.23092457880E+02 -0.25514497732E+02  0.17511822526E+03  0.17846748730E+03  0.00000000000E+00 0.  1.
         22    1    4    4    0    0 -0.15175270420E+00 -0.11197171318E+02  0.60771076717E+02  0.61794202315E+02  0.00000000000E+00 0.  1.
<mgrwt>
<rscale>  0 0.91485804E+02</rscale>
<asrwt>0</asrwt>
<pdfrwt beam="1">  1        1 0.58559200E-01 0.91485804E+02</pdfrwt>
<pdfrwt beam="2">  1       -1 0.84571802E-03 0.91485804E+02</pdfrwt>
<totfact> 0.13257851E+05</totfact>
</mgrwt>
</event>
<event>
 7    1  0.3607059E-009  0.9149073E+02  0.7818608E-02  0.1299281E+00
         -1   -1    0    0    0  501 -0.00000000000E+00  0.00000000000E+00  0.98998233710E+01  0.98998246540E+01  0.50400000000E-02 0.  1.
          1   -1    0    0  501    0  0.00000000000E+00 -0.00000000000E+00 -0.21138138446E+03  0.21138138452E+03  0.50400000000E-02 0. -1.
         23    2    1    2    0    0  0.00000000000E+00  0.00000000000E+00 -0.20148156109E+03  0.22128120917E+03  0.91490732179E+02 0.  0.
    9000005    2    3    3    0    0  0.34662912010E+02 -0.21774262875E+02 -0.14679518083E+03  0.15297135499E+03  0.13257991551E+02 0.  0.
         22    1    3    3    0    0 -0.34662912010E+02  0.21774262875E+02 -0.54686380260E+02  0.68309854185E+02  0.00000000000E+00 0.  1.
         22    1    4    4    0    0  0.17025258064E+02 -0.10399181582E+02 -0.95257082038E+02  0.97323759012E+02  0.00000000000E+00 0. -1.
         22    1    4    4    0    0  0.17637653946E+02 -0.11375081294E+02 -0.51538098790E+02  0.55647595977E+02  0.00000000000E+00 0. -1.
<mgrwt>
<rscale>  0 0.91490732E+02</rscale>
<asrwt>0</asrwt>
<pdfrwt beam="2">  1        1 0.32520210E-01 0.91490732E+02</pdfrwt>
<pdfrwt beam="1">  1       -1 0.15230500E-02 0.91490732E+02</pdfrwt>
<totfact> 0.11858884E+05</totfact>
</mgrwt>
</event>
<event>
 7    1  0.3607059E-009  0.9210486E+02  0.7818608E-02  0.1297833E+00
          1   -1    0    0  501    0  0.00000000000E+00  0.00000000000E+00  0.17626656342E+02  0.17626657062E+02  0.50400000000E-02 0. -1.
         -1   -1    0    0    0  501 -0.00000000000E+00 -0.00000000000E+00 -0.12031926385E+03  0.12031926395E+03  0.50400000000E-02 0.  1.
         23    2    1    2    0    0  0.00000000000E+00  0.00000000000E+00 -0.10269260751E+03  0.13794592101E+03  0.92104861372E+02 0.  0.
    9000005    2    3    3    0    0 -0.40832938836E+02  0.12596009840E+02 -0.28498759732E+02  0.52326323928E+02  0.99938236781E+01 0.  0.
         22    1    3    3    0    0  0.40832938836E+02 -0.12596009840E+02 -0.74193847773E+02  0.85619597087E+02  0.00000000000E+00 0.  1.
         22    1    4    4    0    0 -0.29030412071E+02  0.11502828136E+02 -0.15947592823E+02  0.35062880615E+02  0.00000000000E+00 0.  1.
         22    1    4    4    0    0 -0.11802526764E+02  0.10931817047E+01 -0.12551166909E+02  0.17263443313E+02  0.00000000000E+00 0.  1.
<mgrwt>
<rscale>  0 0.92104861E+02</rscale>
<asrwt>0</asrwt>
<pdfrwt beam="1">  1        1 0.27117934E-02 0.92104861E+02</pdfrwt>
<pdfrwt beam="2">  1       -1 0.18510656E-01 0.92104861E+02</pdfrwt>
<totfact> 0.76457428E+04</totfact>
</mgrwt>
</event>
<event>
 7    1  0.3607059E-009  0.9205322E+02  0.7818608E-02  0.1297954E+00
          1   -1    0    0  501    0  0.00000000000E+00  0.00000000000E+00  0.12429675336E+03  0.12429675346E+03  0.50400000000E-02 0. -1.
         -1   -1    0    0    0  501 -0.00000000000E+00 -0.00000000000E+00 -0.17043478042E+02  0.17043478787E+02  0.50400000000E-02 0.  1.
         23    2    1    2    0    0  0.00000000000E+00  0.88817841970E-15  0.10725327532E+03  0.14134023225E+03  0.92053224742E+02 0.  0.
    9000005    2    3    3    0    0  0.10368900167E+02  0.39004799466E+01  0.12167206307E+03  0.12315701815E+03  0.15518774258E+02 0.  0.
         22    1    3    3    0    0 -0.10368900167E+02 -0.39004799466E+01 -0.14418787753E+02  0.18183214093E+02  0.00000000000E+00 0.  1.
         22    1    4    4    0    0  0.22422697508E+01 -0.25060629824E+01  0.84626162706E+02  0.84692948583E+02  0.00000000000E+00 0. -1.
         22    1    4    4    0    0  0.81266304159E+01  0.64065429290E+01  0.37045900362E+02  0.38464069570E+02  0.00000000000E+00 0. -1.
<mgrwt>
<rscale>  0 0.92053225E+02</rscale>
<asrwt>0</asrwt>
<pdfrwt beam="1">  1        1 0.19122577E-01 0.92053225E+02</pdfrwt>
<pdfrwt beam="2">  1       -1 0.26220737E-02 0.92053225E+02</pdfrwt>
<totfact> 0.10562564E+05</totfact>
</mgrwt>
</event>
<event>
 7    1  0.3607059E-009  0.9040837E+02  0.7818608E-02  0.1301866E+00
         -1   -1    0    0    0  501 -0.00000000000E+00  0.00000000000E+00  0.67185540567E+02  0.67185540756E+02  0.50400000000E-02 0.  1.
          1   -1    0    0  501    0  0.00000000000E+00 -0.00000000000E+00 -0.30414557677E+02  0.30414558095E+02  0.50400000000E-02 0. -1.
         23    2    1    2    0    0  0.15959455979E-15  0.00000000000E+00  0.36770982890E+02  0.97600098850E+02  0.90408374131E+02 0.  0.
    9000005    2    3    3    0    0  0.44119325845E-01  0.32953477865E+02  0.50922041098E+02  0.61736662061E+02  0.11507715802E+02 0.  0.
         22    1    3    3    0    0 -0.44119325845E-01 -0.32953477865E+02 -0.14151058209E+02  0.35863436789E+02  0.00000000000E+00 0. -1.
         22    1    4    4    0    0 -0.12080394453E+01  0.24803496383E+02  0.45598051041E+02  0.51921624116E+02  0.00000000000E+00 0.  1.
         22    1    4    4    0    0  0.12521587712E+01  0.81499814817E+01  0.53239900577E+01  0.98150379456E+01  0.00000000000E+00 0.  1.
<mgrwt>
<rscale>  0 0.90408374E+02</rscale>
<asrwt>0</asrwt>
<pdfrwt beam="2">  1        1 0.46791629E-02 0.90408374E+02</pdfrwt>
<pdfrwt beam="1">  1       -1 0.10336237E-01 0.90408374E+02</pdfrwt>
<totfact> 0.89008330E+04</totfact>
</mgrwt>
</event>
<event>
 7    1  0.3607059E-009  0.9385612E+02  0.7818608E-02  0.1293773E+00
         -1   -1    0    0    0  501 -0.00000000000E+00  0.00000000000E+00  0.99736500027E+02  0.99736500155E+02  0.50400000000E-02 0.  1.
          1   -1    0    0  501    0  0.00000000000E+00 -0.00000000000E+00 -0.22080611249E+02  0.22080611825E+02  0.50400000000E-02 0. -1.
         23    2    1    2    0    0  0.00000000000E+00  0.00000000000E+00  0.77655888778E+02  0.12181711198E+03  0.93856122385E+02 0.  0.
    9000005    2    3    3    0    0  0.35344110598E+02 -0.37759723805E+01  0.77875661747E+02  0.86271192079E+02  0.10706809467E+02 0.  0.
         22    1    3    3    0    0 -0.35344110598E+02  0.37759723805E+01 -0.21977296879E+00  0.35545919900E+02  0.00000000000E+00 0. -1.
         22    1    4    4    0    0  0.25845125020E+02  0.93753613137E+00  0.62021503627E+02  0.67197592021E+02  0.00000000000E+00 0. -1.
         22    1    4    4    0    0  0.94989855778E+01 -0.47135085119E+01  0.15854158119E+02  0.19073600058E+02  0.00000000000E+00 0. -1.
<mgrwt>
<rscale>  0 0.93856122E+02</rscale>
<asrwt>0</asrwt>
<pdfrwt beam="2">  1        1 0.33970172E-02 0.93856122E+02</pdfrwt>
<pdfrwt beam="1">  1       -1 0.15344077E-01 0.93856122E+02</pdfrwt>
<totfact> 0.75552158E+04</totfact>
</mgrwt>
</event>
<event>
 7    1  0.3607059E-009  0.8969114E+02  0.7818608E-02  0.1303601E+00
          1   -1    0    0  501    0  0.00000000000E+00  0.00000000000E+00  0.42129286652E+01  0.42129316799E+01  0.50400000000E-02 0. -1.
         -1   -1    0    0    0  501 -0.00000000000E+00 -0.00000000000E+00 -0.47736971245E+03  0.47736971248E+03  0.50400000000E-02 0.  1.
         23    2    1    2    0    0 -0.17763568394E-14  0.35527136788E-14 -0.47315678378E+03  0.48158264416E+03  0.89691142881E+02 0.  0.
    9000005    2    3    3    0    0 -0.79862996071E+01  0.28796783362E+02 -0.41509133885E+03  0.41627849721E+03  0.96918488714E+01 0.  0.
         22    1    3    3    0    0  0.79862996071E+01 -0.28796783362E+02 -0.58065444933E+02  0.65304146948E+02  0.00000000000E+00 0. -1.
         22    1    4    4    0    0  0.20811019623E+01  0.66474711796E+01 -0.78092630690E+02  0.78402671042E+02  0.00000000000E+00 0.  1.
         22    1    4    4    0    0 -0.10067401569E+02  0.22149312182E+02 -0.33699870816E+03  0.33787582617E+03  0.00000000000E+00 0.  1.
<mgrwt>
<rscale>  0 0.89691143E+02</rscale>
<asrwt>0</asrwt>
<pdfrwt beam="1">  1        1 0.64814348E-03 0.89691143E+02</pdfrwt>
<pdfrwt beam="2">  1       -1 0.73441452E-01 0.89691143E+02</pdfrwt>
<totfact> 0.50505000E+04</totfact>
</mgrwt>
</event>
<event>
 7    1  0.3607059E-009  0.8966878E+02  0.7818608E-02  0.1303656E+00
          1   -1    0    0  501    0  0.00000000000E+00  0.00000000000E+00  0.16162468729E+02  0.16162469515E+02  0.50400000000E-02 0. -1.
         -1   -1    0    0    0  501 -0.00000000000E+00 -0.00000000000E+00 -0.12436977754E+03  0.12436977764E+03  0.50400000000E-02 0.  1.
         23    2    1    2    0    0  0.00000000000E+00  0.71054273576E-14 -0.10820730881E+03  0.14053224716E+03  0.89668783928E+02 0.  0.
    9000005    2    3    3    0    0  0.34254080692E+02 -0.26995355057E+02 -0.51985180333E+02  0.69377352953E+02  0.14445306843E+02 0.  0.
         22    1    3    3    0    0 -0.34254080692E+02  0.26995355057E+02 -0.56222128479E+02  0.71154894206E+02  0.00000000000E+00 0. -1.
         22    1    4    4    0    0  0.21520998286E+02 -0.23528662622E+02 -0.42470875610E+02  0.53108630251E+02  0.00000000000E+00 0. -1.
         22    1    4    4    0    0  0.12733082406E+02 -0.34666924348E+01 -0.95143047227E+01  0.16268722702E+02  0.00000000000E+00 0. -1.
<mgrwt>
<rscale>  0 0.89668784E+02</rscale>
<asrwt>0</asrwt>
<pdfrwt beam="1">  1        1 0.24865338E-02 0.89668784E+02</pdfrwt>
<pdfrwt beam="2">  1       -1 0.19133811E-01 0.89668784E+02</pdfrwt>
<totfact> 0.81384995E+04</totfact>
</mgrwt>
</event>
<event>
 7    1  0.3607059E-009  0.9184999E+02  0.7818608E-02  0.1298433E+00
          1   -1    0    0  501    0  0.00000000000E+00  0.00000000000E+00  0.11053579743E+04  0.11053579743E+04  0.50400000000E-02 0. -1.
         -1   -1    0    0    0  501 -0.00000000000E+00 -0.00000000000E+00 -0.19080710079E+01  0.19080776642E+01  0.50400000000E-02 0.  1.
         23    2    1    2    0    0  0.17763568394E-14  0.00000000000E+00  0.11034499033E+04  0.11072660519E+04  0.91849990650E+02 0.  0.
    9000005    2    3    3    0    0  0.15367677024E+02 -0.25579743056E+02  0.96915572093E+03  0.96969637447E+03  0.12560195120E+02 0.  0.
         22    1    3    3    0    0 -0.15367677024E+02  0.25579743056E+02  0.13429418234E+03  0.13756967748E+03  0.00000000000E+00 0.  1.
         22    1    4    4    0    0  0.85273019883E+01 -0.14846209692E+02  0.35911397329E+03  0.35952186392E+03  0.00000000000E+00 0.  1.
         22    1    4    4    0    0  0.68403750353E+01 -0.10733533365E+02  0.61004174764E+03  0.61017451055E+03  0.00000000000E+00 0.  1.
<mgrwt>
<rscale>  0 0.91849991E+02</rscale>
<asrwt>0</asrwt>
<pdfrwt beam="1">  1        1 0.17005500E+00 0.91849991E+02</pdfrwt>
<pdfrwt beam="2">  1       -1 0.29355003E-03 0.91849991E+02</pdfrwt>
<totfact> 0.12922677E+05</totfact>
</mgrwt>
</event>
<event>
 7    1  0.3607059E-009  0.9136731E+02  0.7818608E-02  0.1299574E+00
          1   -1    0    0  501    0  0.00000000000E+00  0.00000000000E+00  0.70957518900E+02  0.70957519079E+02  0.50400000000E-02 0. -1.
         -1   -1    0    0    0  501 -0.00000000000E+00 -0.00000000000E+00 -0.29411914795E+02  0.29411915227E+02  0.50400000000E-02 0.  1.
         23    2    1    2    0    0  0.00000000000E+00  0.00000000000E+00  0.41545604105E+02  0.10036943431E+03  0.91367314300E+02 0.  0.
    9000005    2    3    3    0    0 -0.40530858029E+02  0.74491921382E+01  0.19469150926E+00  0.41990166680E+02  0.80557604841E+01 0.  0.
         22    1    3    3    0    0  0.40530858029E+02 -0.74491921382E+01  0.41350912596E+02  0.58379267626E+02  0.00000000000E+00 0. -1.
         22    1    4    4    0    0 -0.21761123985E+02  0.49514190334E+01  0.40091639677E+01  0.22674577466E+02  0.00000000000E+00 0. -1.
         22    1    4    4    0    0 -0.18769734044E+02  0.24977731048E+01 -0.38144724585E+01  0.19315589214E+02  0.00000000000E+00 0. -1.
<mgrwt>
<rscale>  0 0.91367314E+02</rscale>
<asrwt>0</asrwt>
<pdfrwt beam="1">  1        1 0.10916541E-01 0.91367314E+02</pdfrwt>
<pdfrwt beam="2">  1       -1 0.45249101E-02 0.91367314E+02</pdfrwt>
<totfact> 0.98306502E+04</totfact>
</mgrwt>
</event>
<event>
 7    1  0.3607059E-009  0.9276251E+02  0.7818608E-02  0.1296296E+00
         -1   -1    0    0    0  501 -0.00000000000E+00  0.00000000000E+00  0.23071835271E+03  0.23071835276E+03  0.50400000000E-02 0.  1.
          1   -1    0    0  501    0  0.00000000000E+00 -0.00000000000E+00 -0.93240114066E+01  0.93240127687E+01  0.50400000000E-02 0. -1.
         23    2    1    2    0    0  0.00000000000E+00  0.00000000000E+00  0.22139434130E+03  0.24004236553E+03  0.92762507996E+02 0.  0.
    9000005    2    3    3    0    0  0.34563364558E+02 -0.91852779423E+01  0.18476960013E+03  0.18885284349E+03  0.15703371097E+02 0.  0.
         22    1    3    3    0    0 -0.34563364558E+02  0.91852779423E+01  0.36624741172E+02  0.51189522037E+02  0.00000000000E+00 0. -1.
         22    1    4    4    0    0  0.75280461882E+01  0.67569974098E+00  0.16612808599E+02  0.18251396087E+02  0.00000000000E+00 0.  1.
         22    1    4    4    0    0  0.27035318369E+02 -0.98609776833E+01  0.16815679153E+03  0.17060144741E+03  0.00000000000E+00 0.  1.
<mgrwt>
<rscale>  0 0.92762508E+02</rscale>
<asrwt>0</asrwt>
<pdfrwt beam="2">  1        1 0.14344635E-02 0.92762508E+02</pdfrwt>
<pdfrwt beam="1">  1       -1 0.35495129E-01 0.92762508E+02</pdfrwt>
<totfact> 0.63566009E+04</totfact>
</mgrwt>
</event>
<event>
 7    1  0.3607059E-009  0.9038525E+02  0.7818608E-02  0.1301921E+00
         -1   -1    0    0    0  501 -0.00000000000E+00  0.00000000000E+00  0.66737199204E+02  0.66737199394E+02  0.50400000000E-02 0.  1.
          1   -1    0    0  501    0  0.00000000000E+00 -0.00000000000E+00 -0.30603222931E+02  0.30603223346E+02  0.50400000000E-02 0. -1.
         23    2    1    2    0    0  0.35527136788E-14  0.00000000000E+00  0.36133976273E+02  0.97340422740E+02  0.90385251330E+02 0.  0.
    9000005    2    3    3    0    0 -0.25441240927E+02 -0.33766435354E+02  0.33313809125E+02  0.54968471651E+02  0.11148726419E+02 0.  0.
         22    1    3    3    0    0  0.25441240927E+02  0.33766435354E+02  0.28201671475E+01  0.42371951090E+02  0.00000000000E+00 0. -1.
         22    1    4    4    0    0 -0.11465573930E+02 -0.23943303725E+02  0.22010985748E+02  0.34485136978E+02  0.00000000000E+00 0. -1.
         22    1    4    4    0    0 -0.13975666997E+02 -0.98231316290E+01  0.11302823377E+02  0.20483334672E+02  0.00000000000E+00 0. -1.
<mgrwt>
<rscale>  0 0.90385251E+02</rscale>
<asrwt>0</asrwt>
<pdfrwt beam="2">  1        1 0.47081883E-02 0.90385251E+02</pdfrwt>
<pdfrwt beam="1">  1       -1 0.10267261E-01 0.90385251E+02</pdfrwt>
<totfact> 0.89161123E+04</totfact>
</mgrwt>
</event>
<event>
 7    1  0.3607059E-009  0.9133798E+02  0.7818608E-02  0.1299644E+00
          1   -1    0    0  501    0  0.00000000000E+00  0.00000000000E+00  0.21812414205E+02  0.21812414787E+02  0.50400000000E-02 0. -1.
         -1   -1    0    0    0  501 -0.00000000000E+00 -0.00000000000E+00 -0.95617875987E+02  0.95617876120E+02  0.50400000000E-02 0.  1.
         23    2    1    2    0    0  0.35527136788E-14  0.00000000000E+00 -0.73805461782E+02  0.11743029091E+03  0.91337982425E+02 0.  0.
    9000005    2    3    3    0    0 -0.20468046900E+02  0.91079135827E+01 -0.88018548870E+02  0.90899047470E+02  0.36710832089E+01 0.  0.
         22    1    3    3    0    0  0.20468046900E+02 -0.91079135827E+01  0.14213087088E+02  0.26531243437E+02  0.00000000000E+00 0. -1.
         22    1    4    4    0    0 -0.19921469057E+02  0.94291284079E+01 -0.86202198416E+02  0.88975234778E+02  0.00000000000E+00 0. -1.
         22    1    4    4    0    0 -0.54657784323E+00 -0.32121482522E+00 -0.18163504539E+01  0.19238126921E+01  0.00000000000E+00 0. -1.
<mgrwt>
<rscale>  0 0.91337982E+02</rscale>
<asrwt>0</asrwt>
<pdfrwt beam="1">  1        1 0.33557561E-02 0.91337982E+02</pdfrwt>
<pdfrwt beam="2">  1       -1 0.14710442E-01 0.91337982E+02</pdfrwt>
<totfact> 0.81672181E+04</totfact>
</mgrwt>
</event>
<event>
 7    1  0.3607059E-009  0.9016373E+02  0.7818608E-02  0.1302456E+00
         -1   -1    0    0    0  501 -0.00000000000E+00  0.00000000000E+00  0.47226921347E+01  0.47226948240E+01  0.50400000000E-02 0.  1.
          1   -1    0    0  501    0  0.00000000000E+00 -0.00000000000E+00 -0.43034225956E+03  0.43034225959E+03  0.50400000000E-02 0. -1.
         23    2    1    2    0    0  0.00000000000E+00 -0.17763568394E-14 -0.42561956743E+03  0.43506495442E+03  0.90163730976E+02 0.  0.
    9000005    2    3    3    0    0 -0.43665043367E+02  0.96963743930E+01 -0.21035526188E+03  0.21520277729E+03  0.78894526504E+01 0.  0.
         22    1    3    3    0    0  0.43665043367E+02 -0.96963743930E+01 -0.21526430555E+03  0.21986217713E+03  0.00000000000E+00 0. -1.
         22    1    4    4    0    0 -0.19024402919E+02  0.35784517011E+01 -0.10970126827E+03  0.11139614663E+03  0.00000000000E+00 0. -1.
         22    1    4    4    0    0 -0.24640640448E+02  0.61179226919E+01 -0.10065399361E+03  0.10380663066E+03  0.00000000000E+00 0. -1.
<mgrwt>
<rscale>  0 0.90163731E+02</rscale>
<asrwt>0</asrwt>
<pdfrwt beam="2">  1        1 0.66206471E-01 0.90163731E+02</pdfrwt>
<pdfrwt beam="1">  1       -1 0.72656857E-03 0.90163731E+02</pdfrwt>
<totfact> 0.14055978E+05</totfact>
</mgrwt>
</event>
<event>
 7    1  0.3607059E-009  0.9108750E+02  0.7818608E-02  0.1300239E+00
          1   -1    0    0  501    0  0.00000000000E+00  0.00000000000E+00  0.82669870465E+02  0.82669870619E+02  0.50400000000E-02 0. -1.
         -1   -1    0    0    0  501 -0.00000000000E+00 -0.00000000000E+00 -0.25090556284E+02  0.25090556790E+02  0.50400000000E-02 0.  1.
         23    2    1    2    0    0  0.00000000000E+00  0.00000000000E+00  0.57579314181E+02  0.10776042741E+03  0.91087498010E+02 0.  0.
    9000005    2    3    3    0    0 -0.30769975016E+02  0.10851716085E+02 -0.74676964861E+01  0.34989109562E+02  0.10194125398E+02 0.  0.
         22    1    3    3    0    0  0.30769975016E+02 -0.10851716085E+02  0.65047010667E+02  0.72771317847E+02  0.00000000000E+00 0. -1.
         22    1    4    4    0    0 -0.28532321983E+02  0.12678517981E+02 -0.61880199455E+01  0.31829700074E+02  0.00000000000E+00 0. -1.
         22    1    4    4    0    0 -0.22376530326E+01 -0.18268018960E+01 -0.12796765405E+01  0.31594094876E+01  0.00000000000E+00 0. -1.
<mgrwt>
<rscale>  0 0.91087498E+02</rscale>
<asrwt>0</asrwt>
<pdfrwt beam="1">  1        1 0.12718442E-01 0.91087498E+02</pdfrwt>
<pdfrwt beam="2">  1       -1 0.38600857E-02 0.91087498E+02</pdfrwt>
<totfact> 0.10154214E+05</totfact>
</mgrwt>
</event>
<event>
 7    1  0.3607059E-009  0.8748635E+02  0.7818608E-02  0.1309056E+00
         -1   -1    0    0    0  501 -0.00000000000E+00  0.00000000000E+00  0.21058060644E+01  0.21058120957E+01  0.50400000000E-02 0.  1.
          1   -1    0    0  501    0  0.00000000000E+00 -0.00000000000E+00 -0.90866050969E+03  0.90866050970E+03  0.50400000000E-02 0. -1.
         23    2    1    2    0    0  0.00000000000E+00  0.00000000000E+00 -0.90655470362E+03  0.91076632180E+03  0.87486354701E+02 0.  0.
    9000005    2    3    3    0    0 -0.32471333816E+02 -0.45563804112E+01 -0.75393763592E+03  0.75466661816E+03  0.49595949475E+01 0.  0.
         22    1    3    3    0    0  0.32471333816E+02  0.45563804112E+01 -0.15261706771E+03  0.15609970364E+03  0.00000000000E+00 0.  1.
         22    1    4    4    0    0 -0.99705584521E+01 -0.11813756000E+01 -0.18218674189E+03  0.18246319246E+03  0.00000000000E+00 0.  1.
         22    1    4    4    0    0 -0.22500775364E+02 -0.33750048113E+01 -0.57175089403E+03  0.57220342569E+03  0.00000000000E+00 0.  1.
<mgrwt>
<rscale>  0 0.87486355E+02</rscale>
<asrwt>0</asrwt>
<pdfrwt beam="2">  1        1 0.13979361E+00 0.87486355E+02</pdfrwt>
<pdfrwt beam="1">  1       -1 0.32397135E-03 0.87486355E+02</pdfrwt>
<totfact> 0.15494264E+05</totfact>
</mgrwt>
</event>
<event>
 7    1  0.3607059E-009  0.8209398E+02  0.7818608E-02  0.1323212E+00
         -1   -1    0    0    0  501 -0.00000000000E+00  0.00000000000E+00  0.50872733962E+01  0.50872758928E+01  0.50400000000E-02 0.  1.
          1   -1    0    0  501    0  0.00000000000E+00 -0.00000000000E+00 -0.33119017278E+03  0.33119017281E+03  0.50400000000E-02 0. -1.
         23    2    1    2    0    0  0.00000000000E+00  0.00000000000E+00 -0.32610289938E+03  0.33627744871E+03  0.82093979834E+02 0.  0.
    9000005    2    3    3    0    0 -0.39290667088E+02 -0.43062775869E+01 -0.20755314886E+03  0.21131207792E+03  0.34905769888E+01 0.  0.
         22    1    3    3    0    0  0.39290667088E+02  0.43062775869E+01 -0.11854975052E+03  0.12496537079E+03  0.00000000000E+00 0. -1.
         22    1    4    4    0    0 -0.28635136804E+02 -0.45902349368E+01 -0.15467768251E+03  0.15737289088E+03  0.00000000000E+00 0.  1.
         22    1    4    4    0    0 -0.10655530284E+02  0.28395734985E+00 -0.52875466343E+02  0.53939187039E+02  0.00000000000E+00 0.  1.
<mgrwt>
<rscale>  0 0.82093980E+02</rscale>
<asrwt>0</asrwt>
<pdfrwt beam="2">  1        1 0.50952318E-01 0.82093980E+02</pdfrwt>
<pdfrwt beam="1">  1       -1 0.78265790E-03 0.82093980E+02</pdfrwt>
<totfact> 0.17228666E+05</totfact>
</mgrwt>
</event>
<event>
 7    1  0.3607059E-009  0.9321464E+02  0.7818608E-02  0.1295249E+00
         -1   -1    0    0    0  501 -0.00000000000E+00  0.00000000000E+00  0.94256679733E+02  0.94256679867E+02  0.50400000000E-02 0.  1.
          1   -1    0    0  501    0  0.00000000000E+00 -0.00000000000E+00 -0.23046028191E+02  0.23046028742E+02  0.50400000000E-02 0. -1.
         23    2    1    2    0    0 -0.22204460493E-15  0.00000000000E+00  0.71210651542E+02  0.11730270861E+03  0.93214637016E+02 0.  0.
    9000005    2    3    3    0    0  0.16685701052E+01  0.35398626171E+02  0.73527873325E+02  0.81789100263E+02  0.52212934503E+01 0.  0.
         22    1    3    3    0    0 -0.16685701052E+01 -0.35398626171E+02 -0.23172217830E+01  0.35513608346E+02  0.00000000000E+00 0. -1.
         22    1    4    4    0    0 -0.11778817315E+01  0.25152341376E+02  0.50989858099E+02  0.56868210022E+02  0.00000000000E+00 0.  1.
         22    1    4    4    0    0  0.28464518366E+01  0.10246284795E+02  0.22538015225E+02  0.24920890242E+02  0.00000000000E+00 0.  1.
<mgrwt>
<rscale>  0 0.93214637E+02</rscale>
<asrwt>0</asrwt>
<pdfrwt beam="2">  1        1 0.35455428E-02 0.93214637E+02</pdfrwt>
<pdfrwt beam="1">  1       -1 0.14501028E-01 0.93214637E+02</pdfrwt>
<totfact> 0.77707556E+04</totfact>
</mgrwt>
</event>
<event>
 7    1  0.3607059E-009  0.9222413E+02  0.7818608E-02  0.1297553E+00
         -1   -1    0    0    0  501 -0.00000000000E+00  0.00000000000E+00  0.24479253541E+02  0.24479254060E+02  0.50400000000E-02 0.  1.
          1   -1    0    0  501    0  0.00000000000E+00 -0.00000000000E+00 -0.86862220667E+02  0.86862220813E+02  0.50400000000E-02 0. -1.
         23    2    1    2    0    0  0.00000000000E+00  0.35527136788E-14 -0.62382967126E+02  0.11134147487E+03  0.92224126125E+02 0.  0.
    9000005    2    3    3    0    0  0.33285683534E+02  0.25908439976E+02 -0.13844689434E+02  0.47036355392E+02  0.15542178504E+02 0.  0.
         22    1    3    3    0    0 -0.33285683534E+02 -0.25908439976E+02 -0.48538277691E+02  0.64305119482E+02  0.00000000000E+00 0.  1.
         22    1    4    4    0    0  0.27133364978E+02  0.24327826275E+02 -0.59851221740E+01  0.36930804402E+02  0.00000000000E+00 0. -1.
         22    1    4    4    0    0  0.61523185564E+01  0.15806137006E+01 -0.78595672604E+01  0.10105550990E+02  0.00000000000E+00 0. -1.
<mgrwt>
<rscale>  0 0.92224126E+02</rscale>
<asrwt>0</asrwt>
<pdfrwt beam="2">  1        1 0.13363419E-01 0.92224126E+02</pdfrwt>
<pdfrwt beam="1">  1       -1 0.37660391E-02 0.92224126E+02</pdfrwt>
<totfact> 0.98926355E+04</totfact>
</mgrwt>
</event>
<event>
 6    1  0.9303103E-009  0.3246128E+03  0.7818608E-02  0.1073546E+00
         -1   -1    0    0    0  501 -0.00000000000E+00  0.00000000000E+00  0.60733709796E+02  0.60733710005E+02  0.50400000000E-02 0.  1.
          1   -1    0    0  501    0  0.00000000000E+00 -0.00000000000E+00 -0.43375196259E+03  0.43375196261E+03  0.50400000000E-02 0. -1.
    9000005    2    1    2    0    0 -0.63486668268E+02  0.36516440330E+02  0.33695040217E+02  0.81230654295E+02  0.99526880752E+01 0.  0.
         22    1    1    2    0    0  0.63486668268E+02 -0.36516440330E+02 -0.40671329301E+03  0.41325501832E+03  0.00000000000E+00 0. -1.
         22    1    3    3    0    0 -0.21779202665E+01  0.33679469925E+01  0.52957871919E+00  0.40455972676E+01  0.00000000000E+00 0. -1.
         22    1    3    3    0    0 -0.61308748001E+02  0.33148493338E+02  0.33165461498E+02  0.77185057028E+02  0.00000000000E+00 0. -1.
<mgrwt>
<rscale>  0 0.32461279E+03</rscale>
<asrwt>0</asrwt>
<pdfrwt beam="2">  1        1 0.66731069E-01 0.32461279E+03</pdfrwt>
<pdfrwt beam="1">  1       -1 0.93436480E-02 0.32461279E+03</pdfrwt>
<totfact> 0.36969435E+03</totfact>
</mgrwt>
</event>
<event>
 7    1  0.3607059E-009  0.9064082E+02  0.7818608E-02  0.1301307E+00
          1   -1    0    0  501    0  0.00000000000E+00  0.00000000000E+00  0.38115130552E+02  0.38115130885E+02  0.50400000000E-02 0. -1.
         -1   -1    0    0    0  501 -0.00000000000E+00 -0.00000000000E+00 -0.53887778943E+02  0.53887779179E+02  0.50400000000E-02 0.  1.
         23    2    1    2    0    0  0.00000000000E+00  0.00000000000E+00 -0.15772648391E+02  0.92002910064E+02  0.90640824262E+02 0.  0.
    9000005    2    3    3    0    0 -0.21836214675E+02 -0.11356525419E+02 -0.45047069559E+02  0.53756568074E+02  0.15960551191E+02 0.  0.
         22    1    3    3    0    0  0.21836214675E+02  0.11356525419E+02  0.29274421168E+02  0.38246341990E+02  0.00000000000E+00 0. -1.
         22    1    4    4    0    0 -0.12028383667E+02 -0.86931012829E+01 -0.39461064908E+02  0.42159550131E+02  0.00000000000E+00 0. -1.
         22    1    4    4    0    0 -0.98078310079E+01 -0.26634241358E+01 -0.55860046504E+01  0.11597017943E+02  0.00000000000E+00 0. -1.
<mgrwt>
<rscale>  0 0.90640824E+02</rscale>
<asrwt>0</asrwt>
<pdfrwt beam="1">  1        1 0.58638662E-02 0.90640824E+02</pdfrwt>
<pdfrwt beam="2">  1       -1 0.82904276E-02 0.90640824E+02</pdfrwt>
<totfact> 0.91512666E+04</totfact>
</mgrwt>
</event>
<event>
 7    1  0.3607059E-009  0.8994515E+02  0.7818608E-02  0.1302985E+00
         -1   -1    0    0    0  501 -0.00000000000E+00  0.00000000000E+00  0.11759488327E+02  0.11759489407E+02  0.50400000000E-02 0.  1.
          1   -1    0    0  501    0  0.00000000000E+00 -0.00000000000E+00 -0.17199154429E+03  0.17199154437E+03  0.50400000000E-02 0. -1.
         23    2    1    2    0    0  0.00000000000E+00  0.00000000000E+00 -0.16023205597E+03  0.18375103377E+03  0.89945153589E+02 0.  0.
    9000005    2    3    3    0    0 -0.35819839081E+02  0.24054667263E+01 -0.29641631219E+02  0.48315786598E+02  0.12920595625E+02 0.  0.
         22    1    3    3    0    0  0.35819839081E+02 -0.24054667263E+01 -0.13059042475E+03  0.13543524718E+03  0.00000000000E+00 0. -1.
         22    1    4    4    0    0 -0.27808270210E+02  0.34567001624E+01 -0.28814072114E+02  0.40193275804E+02  0.00000000000E+00 0. -1.
         22    1    4    4    0    0 -0.80115688717E+01 -0.10512334361E+01 -0.82755910415E+00  0.81225107937E+01  0.00000000000E+00 0. -1.
<mgrwt>
<rscale>  0 0.89945154E+02</rscale>
<asrwt>0</asrwt>
<pdfrwt beam="2">  1        1 0.26460236E-01 0.89945154E+02</pdfrwt>
<pdfrwt beam="1">  1       -1 0.18091523E-02 0.89945154E+02</pdfrwt>
<totfact> 0.11930732E+05</totfact>
</mgrwt>
</event>
<event>
 7    1  0.3607059E-009  0.9119841E+02  0.7818608E-02  0.1299975E+00
          1   -1    0    0  501    0  0.00000000000E+00  0.00000000000E+00  0.26525536966E+02  0.26525537445E+02  0.50400000000E-02 0. -1.
         -1   -1    0    0    0  501 -0.00000000000E+00 -0.00000000000E+00 -0.78388141651E+02  0.78388141813E+02  0.50400000000E-02 0.  1.
         23    2    1    2    0    0  0.17763568394E-14 -0.35527136788E-14 -0.51862604685E+02  0.10491367926E+03  0.91198411888E+02 0.  0.
    9000005    2    3    3    0    0  0.93458865863E+01 -0.23186758561E+02  0.16150069753E+02  0.32451997986E+02  0.12935843676E+02 0.  0.
         22    1    3    3    0    0 -0.93458865863E+01  0.23186758561E+02 -0.68012674438E+02  0.72461681272E+02  0.00000000000E+00 0.  1.
         22    1    4    4    0    0 -0.25856142212E+01 -0.39300243259E+01  0.60109812584E+01  0.76329802693E+01  0.00000000000E+00 0. -1.
         22    1    4    4    0    0  0.11931500807E+02 -0.19256734235E+02  0.10139088494E+02  0.24819017717E+02  0.00000000000E+00 0. -1.
<mgrwt>
<rscale>  0 0.91198412E+02</rscale>
<asrwt>0</asrwt>
<pdfrwt beam="1">  1        1 0.40808519E-02 0.91198412E+02</pdfrwt>
<pdfrwt beam="2">  1       -1 0.12059714E-01 0.91198412E+02</pdfrwt>
<totfact> 0.84889938E+04</totfact>
</mgrwt>
</event>
<event>
 7    1  0.3607059E-009  0.8514702E+02  0.7818608E-02  0.1315049E+00
          1   -1    0    0  501    0  0.00000000000E+00  0.00000000000E+00  0.62011627822E+03  0.62011627824E+03  0.50400000000E-02 0. -1.
         -1   -1    0    0    0  501 -0.00000000000E+00 -0.00000000000E+00 -0.29228429805E+01  0.29228473258E+01  0.50400000000E-02 0.  1.
         23    2    1    2    0    0  0.00000000000E+00  0.00000000000E+00  0.61719343524E+03  0.62303912556E+03  0.85147022753E+02 0.  0.
    9000005    2    3    3    0    0  0.16901704902E+02 -0.12934168425E+02  0.57773587004E+03  0.57820766571E+03  0.96129502519E+01 0.  0.
         22    1    3    3    0    0 -0.16901704902E+02  0.12934168425E+02  0.39457565200E+02  0.44831459858E+02  0.00000000000E+00 0.  1.
         22    1    4    4    0    0  0.15469310733E+02 -0.87325257041E+01  0.51916407629E+03  0.51946789572E+03  0.00000000000E+00 0.  1.
         22    1    4    4    0    0  0.14323941695E+01 -0.42016427210E+01  0.58571793750E+02  0.58739769983E+02  0.00000000000E+00 0.  1.
<mgrwt>
<rscale>  0 0.85147023E+02</rscale>
<asrwt>0</asrwt>
<pdfrwt beam="1">  1        1 0.95402533E-01 0.85147023E+02</pdfrwt>
<pdfrwt beam="2">  1       -1 0.44966835E-03 0.85147023E+02</pdfrwt>
<totfact> 0.16988171E+05</totfact>
</mgrwt>
</event>
<event>
 7    1  0.3607059E-009  0.9201208E+02  0.7818608E-02  0.1298051E+00
         -1   -1    0    0    0  501 -0.00000000000E+00  0.00000000000E+00  0.12314675022E+03  0.12314675032E+03  0.50400000000E-02 0.  1.
          1   -1    0    0  501    0  0.00000000000E+00 -0.00000000000E+00 -0.17187261851E+02  0.17187262590E+02  0.50400000000E-02 0. -1.
         23    2    1    2    0    0 -0.44408920985E-15  0.00000000000E+00  0.10595948837E+03  0.14033401291E+03  0.92012075322E+02 0.  0.
    9000005    2    3    3    0    0  0.22617292745E+01 -0.44109347957E+02  0.66267236761E+02  0.80951988409E+02  0.14530236166E+02 0.  0.
         22    1    3    3    0    0 -0.22617292745E+01  0.44109347957E+02  0.39692251608E+02  0.59382024504E+02  0.00000000000E+00 0. -1.
         22    1    4    4    0    0  0.78638648217E+01 -0.31024178586E+02  0.41802718329E+02  0.52647956148E+02  0.00000000000E+00 0.  1.
         22    1    4    4    0    0 -0.56021355472E+01 -0.13085169371E+02  0.24464518432E+02  0.28304032261E+02  0.00000000000E+00 0.  1.
<mgrwt>
<rscale>  0 0.92012075E+02</rscale>
<asrwt>0</asrwt>
<pdfrwt beam="2">  1        1 0.26441941E-02 0.92012075E+02</pdfrwt>
<pdfrwt beam="1">  1       -1 0.18945654E-01 0.92012075E+02</pdfrwt>
<totfact> 0.76289894E+04</totfact>
</mgrwt>
</event>
<event>
 7    1  0.3607059E-009  0.9303921E+02  0.7818608E-02  0.1295654E+00
          1   -1    0    0  501    0  0.00000000000E+00  0.00000000000E+00  0.68372012173E+02  0.68372012359E+02  0.50400000000E-02 0. -1.
         -1   -1    0    0    0  501 -0.00000000000E+00 -0.00000000000E+00 -0.31651457711E+02  0.31651458113E+02  0.50400000000E-02 0.  1.
         23    2    1    2    0    0  0.00000000000E+00  0.71054273576E-14  0.36720554462E+02  0.10002347047E+03  0.93039214986E+02 0.  0.
    9000005    2    3    3    0    0 -0.18117402264E+02  0.40233111695E+02  0.29912779344E+02  0.55377201384E+02  0.14997217195E+02 0.  0.
         22    1    3    3    0    0  0.18117402264E+02 -0.40233111695E+02  0.68077751180E+01  0.44646269088E+02  0.00000000000E+00 0.  1.
         22    1    4    4    0    0 -0.47141659515E+01  0.78165037137E+00  0.45531071093E+01  0.66003880393E+01  0.00000000000E+00 0. -1.
         22    1    4    4    0    0 -0.13403236313E+02  0.39451461323E+02  0.25359672235E+02  0.48776813344E+02  0.00000000000E+00 0. -1.
<mgrwt>
<rscale>  0 0.93039215E+02</rscale>
<asrwt>0</asrwt>
<pdfrwt beam="1">  1        1 0.10518771E-01 0.93039215E+02</pdfrwt>
<pdfrwt beam="2">  1       -1 0.48694551E-02 0.93039215E+02</pdfrwt>
<totfact> 0.92960870E+04</totfact>
</mgrwt>
</event>
<event>
 7    1  0.3607059E-009  0.1105255E+03  0.7818608E-02  0.1259600E+00
          1   -1    0    0  501    0  0.00000000000E+00  0.00000000000E+00  0.12141904848E+03  0.12141904859E+03  0.50400000000E-02 0. -1.
         -1   -1    0    0    0  501 -0.00000000000E+00 -0.00000000000E+00 -0.25152319813E+02  0.25152320318E+02  0.50400000000E-02 0.  1.
         23    2    1    2    0    0  0.00000000000E+00  0.00000000000E+00  0.96266728671E+02  0.14657136891E+03  0.11052548635E+03 0.  0.
    9000005    2    3    3    0    0  0.35585004621E+02 -0.38439028496E+01  0.10381165390E+03  0.10999276806E+03  0.63624992424E+01 0.  0.
         22    1    3    3    0    0 -0.35585004621E+02  0.38439028496E+01 -0.75449252318E+01  0.36578600845E+02  0.00000000000E+00 0.  1.
         22    1    4    4    0    0  0.15099631717E+02 -0.33446081471E+01  0.52826190457E+02  0.55043543489E+02  0.00000000000E+00 0.  1.
         22    1    4    4    0    0  0.20485372905E+02 -0.49929470252E+00  0.50985463446E+02  0.54949224572E+02  0.00000000000E+00 0.  1.
<mgrwt>
<rscale>  0 0.11052549E+03</rscale>
<asrwt>0</asrwt>
<pdfrwt beam="1">  1        1 0.18679854E-01 0.11052549E+03</pdfrwt>
<pdfrwt beam="2">  1       -1 0.38695877E-02 0.11052549E+03</pdfrwt>
<totfact> 0.63646949E+04</totfact>
</mgrwt>
</event>
<event>
 6    1  0.3607059E-009  0.3477973E+03  0.7818608E-02  0.1063523E+00
          1   -1    0    0  501    0  0.00000000000E+00  0.00000000000E+00  0.11849301732E+04  0.11849301732E+04  0.50400000000E-02 0. -1.
         -1   -1    0    0    0  501 -0.00000000000E+00 -0.00000000000E+00 -0.25521113593E+02  0.25521114090E+02  0.50400000000E-02 0.  1.
    9000005    2    1    2    0    0  0.12464039206E+03  0.39416562896E+02  0.97850684783E+03  0.98725965891E+03  0.10820817107E+02 0.  0.
         22    1    1    2    0    0 -0.12464039206E+03 -0.39416562896E+02  0.18090221180E+03  0.22319162842E+03  0.00000000000E+00 0.  1.
         22    1    3    3    0    0  0.11173453933E+03  0.32481892840E+02  0.88356649240E+03  0.89119550444E+03  0.00000000000E+00 0. -1.
         22    1    3    3    0    0  0.12905852727E+02  0.69346700564E+01  0.94940355435E+02  0.96064154467E+02  0.00000000000E+00 0. -1.
<mgrwt>
<rscale>  0 0.34779728E+03</rscale>
<asrwt>0</asrwt>
<pdfrwt beam="1">  1        1 0.18229696E+00 0.34779728E+03</pdfrwt>
<pdfrwt beam="2">  1       -1 0.39263250E-02 0.34779728E+03</pdfrwt>
<totfact> 0.29727432E+03</totfact>
</mgrwt>
</event>
<event>
 7    1  0.3607059E-009  0.8972312E+02  0.7818608E-02  0.1303524E+00
         -1   -1    0    0    0  501 -0.00000000000E+00  0.00000000000E+00  0.11025741531E+02  0.11025742683E+02  0.50400000000E-02 0.  1.
          1   -1    0    0  501    0  0.00000000000E+00 -0.00000000000E+00 -0.18253278468E+03  0.18253278475E+03  0.50400000000E-02 0. -1.
         23    2    1    2    0    0  0.00000000000E+00  0.00000000000E+00 -0.17150704315E+03  0.19355852743E+03  0.89723116821E+02 0.  0.
    9000005    2    3    3    0    0 -0.49587863498E+01 -0.42087290015E+02 -0.11686839941E+03  0.12441150340E+03  0.49061038307E+01 0.  0.
         22    1    3    3    0    0  0.49587863498E+01  0.42087290015E+02 -0.54638643737E+02  0.69147024031E+02  0.00000000000E+00 0. -1.
         22    1    4    4    0    0 -0.38580727840E+01 -0.23317875220E+02 -0.58681601316E+02  0.63262456191E+02  0.00000000000E+00 0.  1.
         22    1    4    4    0    0 -0.11007135658E+01 -0.18769414795E+02 -0.58186798093E+02  0.61149047208E+02  0.00000000000E+00 0.  1.
<mgrwt>
<rscale>  0 0.89723117E+02</rscale>
<asrwt>0</asrwt>
<pdfrwt beam="2">  1        1 0.28081965E-01 0.89723117E+02</pdfrwt>
<pdfrwt beam="1">  1       -1 0.16962682E-02 0.89723117E+02</pdfrwt>
<totfact> 0.12146210E+05</totfact>
</mgrwt>
</event>
<event>
 7    1  0.3607059E-009  0.9172191E+02  0.7818608E-02  0.1298735E+00
          1   -1    0    0  501    0  0.00000000000E+00  0.00000000000E+00  0.15032352793E+02  0.15032353638E+02  0.50400000000E-02 0. -1.
         -1   -1    0    0    0  501 -0.00000000000E+00 -0.00000000000E+00 -0.13991337634E+03  0.13991337643E+03  0.50400000000E-02 0.  1.
         23    2    1    2    0    0  0.00000000000E+00 -0.35527136788E-14 -0.12488102354E+03  0.15494573006E+03  0.91721912453E+02 0.  0.
    9000005    2    3    3    0    0 -0.31228714687E+02 -0.30671798247E+02 -0.77745247947E+02  0.90620205039E+02  0.15865249900E+02 0.  0.
         22    1    3    3    0    0  0.31228714687E+02  0.30671798247E+02 -0.47135775597E+02  0.64325525025E+02  0.00000000000E+00 0. -1.
         22    1    4    4    0    0 -0.32504140403E+02 -0.28979209156E+02 -0.76827507742E+02  0.88310699536E+02  0.00000000000E+00 0.  1.
         22    1    4    4    0    0  0.12754257163E+01 -0.16925890908E+01 -0.91774020487E+00  0.23095055038E+01  0.00000000000E+00 0.  1.
<mgrwt>
<rscale>  0 0.91721912E+02</rscale>
<asrwt>0</asrwt>
<pdfrwt beam="1">  1        1 0.23126698E-02 0.91721912E+02</pdfrwt>
<pdfrwt beam="2">  1       -1 0.21525134E-01 0.91721912E+02</pdfrwt>
<totfact> 0.74824136E+04</totfact>
</mgrwt>
</event>
<event>
 7    1  0.3607059E-009  0.9055797E+02  0.7818608E-02  0.1301506E+00
          1   -1    0    0  501    0  0.00000000000E+00  0.00000000000E+00  0.80959363506E+01  0.80959379194E+01  0.50400000000E-02 0. -1.
         -1   -1    0    0    0  501 -0.00000000000E+00 -0.00000000000E+00 -0.25323648767E+03  0.25323648772E+03  0.50400000000E-02 0.  1.
         23    2    1    2    0    0 -0.88817841970E-15  0.00000000000E+00 -0.24514055132E+03  0.26133242564E+03  0.90557974742E+02 0.  0.
    9000005    2    3    3    0    0  0.67571208592E+01 -0.42183965512E+02 -0.16524185201E+03  0.17072918187E+03  0.42939795724E+01 0.  0.
         22    1    3    3    0    0 -0.67571208592E+01  0.42183965512E+02 -0.79898699309E+02  0.90603243761E+02  0.00000000000E+00 0. -1.
         22    1    4    4    0    0  0.20475688606E+01 -0.19072898128E+02 -0.66666511492E+02  0.69371404309E+02  0.00000000000E+00 0.  1.
         22    1    4    4    0    0  0.47095519985E+01 -0.23111067384E+02 -0.98575340514E+02  0.10135777757E+03  0.00000000000E+00 0.  1.
<mgrwt>
<rscale>  0 0.90557975E+02</rscale>
<asrwt>0</asrwt>
<pdfrwt beam="1">  1        1 0.12455290E-02 0.90557975E+02</pdfrwt>
<pdfrwt beam="2">  1       -1 0.38959454E-01 0.90557975E+02</pdfrwt>
<totfact> 0.65638298E+04</totfact>
</mgrwt>
</event>
<event>
 7    1  0.3607059E-009  0.8834998E+02  0.7818608E-02  0.1306897E+00
         -1   -1    0    0    0  501 -0.00000000000E+00  0.00000000000E+00  0.92588440287E+02  0.92588440425E+02  0.50400000000E-02 0.  1.
          1   -1    0    0  501    0  0.00000000000E+00 -0.00000000000E+00 -0.21076387260E+02  0.21076387862E+02  0.50400000000E-02 0. -1.
         23    2    1    2    0    0  0.35527136788E-14  0.00000000000E+00  0.71512053028E+02  0.11366482829E+03  0.88349982803E+02 0.  0.
    9000005    2    3    3    0    0  0.27289580568E+02  0.22606472877E+02  0.69607082391E+02  0.78176763580E+02  0.32690397980E+01 0.  0.
         22    1    3    3    0    0 -0.27289580568E+02 -0.22606472877E+02  0.19049706363E+01  0.35488064707E+02  0.00000000000E+00 0. -1.
         22    1    4    4    0    0  0.70938076757E+01  0.44741019086E+01  0.14578089781E+02  0.16818454058E+02  0.00000000000E+00 0.  1.
         22    1    4    4    0    0  0.20195772893E+02  0.18132370969E+02  0.55028992610E+02  0.61358309522E+02  0.00000000000E+00 0.  1.
<mgrwt>
<rscale>  0 0.88349983E+02</rscale>
<asrwt>0</asrwt>
<pdfrwt beam="2">  1        1 0.32425211E-02 0.88349983E+02</pdfrwt>
<pdfrwt beam="1">  1       -1 0.14244376E-01 0.88349983E+02</pdfrwt>
<totfact> 0.89471694E+04</totfact>
</mgrwt>
</event>
<event>
 7    1  0.3607059E-009  0.1095826E+03  0.7818608E-02  0.1261345E+00
          1   -1    0    0  501    0  0.00000000000E+00  0.00000000000E+00  0.25034529942E+02  0.25034530450E+02  0.50400000000E-02 0. -1.
         -1   -1    0    0    0  501 -0.00000000000E+00 -0.00000000000E+00 -0.11991773925E+03  0.11991773936E+03  0.50400000000E-02 0.  1.
         23    2    1    2    0    0  0.00000000000E+00 -0.35527136788E-14 -0.94883209311E+02  0.14495226981E+03  0.10958255844E+03 0.  0.
    9000005    2    3    3    0    0  0.28915969300E+02 -0.18984207812E+02 -0.10281906152E+03  0.10946267729E+03  0.14621384394E+02 0.  0.
         22    1    3    3    0    0 -0.28915969300E+02  0.18984207812E+02  0.79358522060E+01  0.35489592518E+02  0.00000000000E+00 0. -1.
         22    1    4    4    0    0  0.28761066827E+02 -0.13689453221E+02 -0.81707373897E+02  0.87696607937E+02  0.00000000000E+00 0. -1.
         22    1    4    4    0    0  0.15490247375E+00 -0.52947545910E+01 -0.21111687620E+02  0.21766069354E+02  0.00000000000E+00 0. -1.
<mgrwt>
<rscale>  0 0.10958256E+03</rscale>
<asrwt>0</asrwt>
<pdfrwt beam="1">  1        1 0.38514663E-02 0.10958256E+03</pdfrwt>
<pdfrwt beam="2">  1       -1 0.18448883E-01 0.10958256E+03</pdfrwt>
<totfact> 0.48746406E+04</totfact>
</mgrwt>
</event>
<event>
 7    1  0.3607059E-009  0.9024503E+02  0.7818608E-02  0.1302259E+00
          1   -1    0    0  501    0  0.00000000000E+00  0.00000000000E+00  0.57247082921E+03  0.57247082923E+03  0.50400000000E-02 0. -1.
         -1   -1    0    0    0  501 -0.00000000000E+00 -0.00000000000E+00 -0.35565833906E+01  0.35565869617E+01  0.50400000000E-02 0.  1.
         23    2    1    2    0    0 -0.71054273576E-14 -0.17763568394E-14  0.56891424582E+03  0.57602741619E+03  0.90245028178E+02 0.  0.
    9000005    2    3    3    0    0 -0.37116821412E+02 -0.99388799870E+01  0.42695523446E+03  0.42896008239E+03  0.15477088905E+02 0.  0.
         22    1    3    3    0    0  0.37116821412E+02  0.99388799870E+01  0.14195901136E+03  0.14706733381E+03  0.00000000000E+00 0.  1.
         22    1    4    4    0    0 -0.14827899727E+02  0.72171745274E+00  0.10304134011E+03  0.10410526047E+03  0.00000000000E+00 0. -1.
         22    1    4    4    0    0 -0.22288921686E+02 -0.10660597440E+02  0.32391389435E+03  0.32485482192E+03  0.00000000000E+00 0. -1.
<mgrwt>
<rscale>  0 0.90245028E+02</rscale>
<asrwt>0</asrwt>
<pdfrwt beam="1">  1        1 0.88072463E-01 0.90245028E+02</pdfrwt>
<pdfrwt beam="2">  1       -1 0.54716678E-03 0.90245028E+02</pdfrwt>
<totfact> 0.14502084E+05</totfact>
</mgrwt>
</event>
<event>
 7    1  0.3607059E-009  0.9030685E+02  0.7818608E-02  0.1302110E+00
         -1   -1    0    0    0  501 -0.00000000000E+00  0.00000000000E+00  0.10224440589E+03  0.10224440602E+03  0.50400000000E-02 0.  1.
          1   -1    0    0  501    0  0.00000000000E+00 -0.00000000000E+00 -0.19940764738E+02  0.19940765374E+02  0.50400000000E-02 0. -1.
         23    2    1    2    0    0  0.00000000000E+00  0.00000000000E+00  0.82303641154E+02  0.12218517139E+03  0.90306847805E+02 0.  0.
    9000005    2    3    3    0    0  0.72632474422E+01  0.29409400730E+02  0.86159868170E+02  0.91647684567E+02  0.76228333794E+01 0.  0.
         22    1    3    3    0    0 -0.72632474422E+01 -0.29409400730E+02 -0.38562270157E+01  0.30537486823E+02  0.00000000000E+00 0. -1.
         22    1    4    4    0    0  0.14671835597E+01  0.91802023263E+00  0.22198189517E+01  0.28147797292E+01  0.00000000000E+00 0. -1.
         22    1    4    4    0    0  0.57960638825E+01  0.28491380497E+02  0.83940049218E+02  0.88832904838E+02  0.00000000000E+00 0. -1.
<mgrwt>
<rscale>  0 0.90306848E+02</rscale>
<asrwt>0</asrwt>
<pdfrwt beam="2">  1        1 0.30678101E-02 0.90306848E+02</pdfrwt>
<pdfrwt beam="1">  1       -1 0.15729908E-01 0.90306848E+02</pdfrwt>
<totfact> 0.83058518E+04</totfact>
</mgrwt>
</event>
<event>
 7    1  0.3607059E-009  0.9249968E+02  0.7818608E-02  0.1296909E+00
         -1   -1    0    0    0  501 -0.00000000000E+00  0.00000000000E+00  0.21652982841E+02  0.21652983427E+02  0.50400000000E-02 0.  1.
          1   -1    0    0  501    0  0.00000000000E+00 -0.00000000000E+00 -0.98787664364E+02  0.98787664493E+02  0.50400000000E-02 0. -1.
         23    2    1    2    0    0  0.00000000000E+00  0.00000000000E+00 -0.77134681524E+02  0.12044064792E+03  0.92499678798E+02 0.  0.
    9000005    2    3    3    0    0 -0.15643754857E+02  0.42381736218E+02 -0.46985172540E+02  0.66127375851E+02  0.11148307826E+02 0.  0.
         22    1    3    3    0    0  0.15643754857E+02 -0.42381736218E+02 -0.30149508983E+02  0.54313272069E+02  0.00000000000E+00 0. -1.
         22    1    4    4    0    0 -0.92687530846E+01  0.10459391653E+02 -0.13716882526E+02  0.19582173621E+02  0.00000000000E+00 0. -1.
         22    1    4    4    0    0 -0.63750017725E+01  0.31922344565E+02 -0.33268290015E+02  0.46545202230E+02  0.00000000000E+00 0. -1.
<mgrwt>
<rscale>  0 0.92499679E+02</rscale>
<asrwt>0</asrwt>
<pdfrwt beam="2">  1        1 0.15198102E-01 0.92499679E+02</pdfrwt>
<pdfrwt beam="1">  1       -1 0.33312282E-02 0.92499679E+02</pdfrwt>
<totfact> 0.10021785E+05</totfact>
</mgrwt>
</event>
<event>
 7    1  0.3607059E-009  0.8923039E+02  0.7818608E-02  0.1304726E+00
         -1   -1    0    0    0  501 -0.00000000000E+00  0.00000000000E+00  0.23122747086E+03  0.23122747092E+03  0.50400000000E-02 0.  1.
          1   -1    0    0  501    0  0.00000000000E+00 -0.00000000000E+00 -0.86084735095E+01  0.86084749849E+01  0.50400000000E-02 0. -1.
         23    2    1    2    0    0  0.00000000000E+00  0.35527136788E-14  0.22261899735E+03  0.23983594590E+03  0.89230392604E+02 0.  0.
    9000005    2    3    3    0    0  0.25475145300E+02  0.30996119337E+02  0.60384293408E+02  0.72713710380E+02  0.55927046013E+01 0.  0.
         22    1    3    3    0    0 -0.25475145300E+02 -0.30996119337E+02  0.16223470394E+03  0.16712223552E+03  0.00000000000E+00 0.  1.
         22    1    4    4    0    0  0.96151687622E+01  0.92735067691E+01  0.24002430150E+02  0.27469365687E+02  0.00000000000E+00 0. -1.
         22    1    4    4    0    0  0.15859976538E+02  0.21722612568E+02  0.36381863258E+02  0.45244344693E+02  0.00000000000E+00 0. -1.
<mgrwt>
<rscale>  0 0.89230393E+02</rscale>
<asrwt>0</asrwt>
<pdfrwt beam="2">  1        1 0.13243804E-02 0.89230393E+02</pdfrwt>
<pdfrwt beam="1">  1       -1 0.35573464E-01 0.89230393E+02</pdfrwt>
<totfact> 0.70291911E+04</totfact>
</mgrwt>
</event>
<event>
 7    1  0.3607059E-009  0.9051114E+02  0.7818608E-02  0.1301619E+00
         -1   -1    0    0    0  501 -0.00000000000E+00  0.00000000000E+00  0.64153543110E+02  0.64153543308E+02  0.50400000000E-02 0.  1.
          1   -1    0    0  501    0  0.00000000000E+00 -0.00000000000E+00 -0.31924451567E+02  0.31924451965E+02  0.50400000000E-02 0. -1.
         23    2    1    2    0    0  0.00000000000E+00  0.71054273576E-14  0.32229091543E+02  0.96077995273E+02  0.90511142043E+02 0.  0.
    9000005    2    3    3    0    0  0.11713498137E+02 -0.40705469073E+02 -0.12825137505E+00  0.42775660504E+02  0.59665259612E+01 0.  0.
         22    1    3    3    0    0 -0.11713498137E+02  0.40705469073E+02  0.32357342918E+02  0.53302334769E+02  0.00000000000E+00 0.  1.
         22    1    4    4    0    0  0.11763573794E+02 -0.39681196974E+02  0.79501054760E+00  0.41395786059E+02  0.00000000000E+00 0.  1.
         22    1    4    4    0    0 -0.50075657197E-01 -0.10242720993E+01 -0.92326192264E+00  0.13798744445E+01  0.00000000000E+00 0.  1.
<mgrwt>
<rscale>  0 0.90511142E+02</rscale>
<asrwt>0</asrwt>
<pdfrwt beam="2">  1        1 0.49114542E-02 0.90511142E+02</pdfrwt>
<pdfrwt beam="1">  1       -1 0.98697758E-02 0.90511142E+02</pdfrwt>
<totfact> 0.89402857E+04</totfact>
</mgrwt>
</event>
<event>
 7    1  0.3607059E-009  0.1083594E+03  0.7818608E-02  0.1263639E+00
          1   -1    0    0  501    0  0.00000000000E+00  0.00000000000E+00  0.92287236488E+03  0.92287236489E+03  0.50400000000E-02 0. -1.
         -1   -1    0    0    0  501 -0.00000000000E+00 -0.00000000000E+00 -0.31807623384E+01  0.31807663314E+01  0.50400000000E-02 0.  1.
         23    2    1    2    0    0 -0.35527136788E-14 -0.35527136788E-14  0.91969160254E+03  0.92605313122E+03  0.10835939307E+03 0.  0.
    9000005    2    3    3    0    0  0.23823317265E+02  0.24053510773E+02  0.82082291539E+03  0.82154887713E+03  0.67953843849E+01 0.  0.
         22    1    3    3    0    0 -0.23823317265E+02 -0.24053510773E+02  0.98868687144E+02  0.10450425409E+03  0.00000000000E+00 0.  1.
         22    1    4    4    0    0  0.20900412724E+02  0.18455452239E+02  0.70867027821E+03  0.70921857997E+03  0.00000000000E+00 0.  1.
         22    1    4    4    0    0  0.29229045412E+01  0.55980585343E+01  0.11215263719E+03  0.11233029715E+03  0.00000000000E+00 0.  1.
<mgrwt>
<rscale>  0 0.10835939E+03</rscale>
<asrwt>0</asrwt>
<pdfrwt beam="1">  1        1 0.14198042E+00 0.10835939E+03</pdfrwt>
<pdfrwt beam="2">  1       -1 0.48934815E-03 0.10835939E+03</pdfrwt>
<totfact> 0.87444519E+04</totfact>
</mgrwt>
</event>
<event>
 7    1  0.3607059E-009  0.9093416E+02  0.7818608E-02  0.1300605E+00
          1   -1    0    0  501    0  0.00000000000E+00  0.00000000000E+00  0.26371464719E+03  0.26371464724E+03  0.50400000000E-02 0. -1.
         -1   -1    0    0    0  501 -0.00000000000E+00 -0.00000000000E+00 -0.78389847805E+01  0.78389864007E+01  0.50400000000E-02 0.  1.
         23    2    1    2    0    0  0.00000000000E+00  0.17763568394E-14  0.25587566241E+03  0.27155363364E+03  0.90934159307E+02 0.  0.
    9000005    2    3    3    0    0  0.31627648730E+02 -0.13206390063E+02  0.21685064743E+03  0.21961454723E+03  0.56239809687E+01 0.  0.
         22    1    3    3    0    0 -0.31627648730E+02  0.13206390063E+02  0.39025014975E+02  0.51939086404E+02  0.00000000000E+00 0.  1.
         22    1    4    4    0    0  0.12551520795E+02 -0.67491570725E+01  0.75073523689E+02  0.76414172471E+02  0.00000000000E+00 0. -1.
         22    1    4    4    0    0  0.19076127934E+02 -0.64572329901E+01  0.14177712374E+03  0.14320037476E+03  0.00000000000E+00 0. -1.
<mgrwt>
<rscale>  0 0.90934159E+02</rscale>
<asrwt>0</asrwt>
<pdfrwt beam="1">  1        1 0.40571476E-01 0.90934159E+02</pdfrwt>
<pdfrwt beam="2">  1       -1 0.12059980E-02 0.90934159E+02</pdfrwt>
<totfact> 0.12585842E+05</totfact>
</mgrwt>
</event>
<event>
 7    1  0.3607059E-009  0.9103498E+02  0.7818608E-02  0.1300365E+00
         -1   -1    0    0    0  501 -0.00000000000E+00  0.00000000000E+00  0.34053382973E+01  0.34053420270E+01  0.50400000000E-02 0.  1.
          1   -1    0    0  501    0  0.00000000000E+00 -0.00000000000E+00 -0.60840972360E+03  0.60840972362E+03  0.50400000000E-02 0. -1.
         23    2    1    2    0    0 -0.35527136788E-14  0.00000000000E+00 -0.60500438530E+03  0.61181506565E+03  0.91034984035E+02 0.  0.
    9000005    2    3    3    0    0 -0.26255769367E+02 -0.97641886149E+01 -0.54158254150E+03  0.54248228065E+03  0.13808358188E+02 0.  0.
         22    1    3    3    0    0  0.26255769367E+02  0.97641886149E+01 -0.63421843798E+02  0.69332784995E+02  0.00000000000E+00 0.  1.
         22    1    4    4    0    0 -0.20811902293E+02 -0.90383561060E+00 -0.35999877031E+03  0.36060098006E+03  0.00000000000E+00 0.  1.
         22    1    4    4    0    0 -0.54438670740E+01 -0.88603530043E+01 -0.18158377119E+03  0.18188130059E+03  0.00000000000E+00 0.  1.
<mgrwt>
<rscale>  0 0.91034984E+02</rscale>
<asrwt>0</asrwt>
<pdfrwt beam="2">  1        1 0.93601410E-01 0.91034984E+02</pdfrwt>
<pdfrwt beam="1">  1       -1 0.52389897E-03 0.91034984E+02</pdfrwt>
<totfact> 0.14228500E+05</totfact>
</mgrwt>
</event>
<event>
 7    1  0.3607059E-009  0.8600625E+02  0.7818608E-02  0.1312822E+00
         -1   -1    0    0    0  501 -0.00000000000E+00  0.00000000000E+00  0.15898976500E+02  0.15898977299E+02  0.50400000000E-02 0.  1.
          1   -1    0    0  501    0  0.00000000000E+00 -0.00000000000E+00 -0.11631368336E+03  0.11631368347E+03  0.50400000000E-02 0. -1.
         23    2    1    2    0    0  0.00000000000E+00  0.35527136788E-14 -0.10041470686E+03  0.13221266077E+03  0.86006245784E+02 0.  0.
    9000005    2    3    3    0    0  0.12047179589E+02 -0.28485327565E+02 -0.95226207623E+02  0.10085235231E+03  0.12108588900E+02 0.  0.
         22    1    3    3    0    0 -0.12047179589E+02  0.28485327565E+02 -0.51884992384E+01  0.31360308463E+02  0.00000000000E+00 0.  1.
         22    1    4    4    0    0 -0.11977267208E+01 -0.12033274917E+02 -0.34506626835E+02  0.36564211328E+02  0.00000000000E+00 0. -1.
         22    1    4    4    0    0  0.13244906310E+02 -0.16452052648E+02 -0.60719580788E+02  0.64288140979E+02  0.00000000000E+00 0. -1.
<mgrwt>
<rscale>  0 0.86006246E+02</rscale>
<asrwt>0</asrwt>
<pdfrwt beam="2">  1        1 0.17894412E-01 0.86006246E+02</pdfrwt>
<pdfrwt beam="1">  1       -1 0.24459965E-02 0.86006246E+02</pdfrwt>
<totfact> 0.12547237E+05</totfact>
</mgrwt>
</event>
<event>
 7    1  0.3607059E-009  0.9091126E+02  0.7818608E-02  0.1300660E+00
         -1   -1    0    0    0  501 -0.00000000000E+00  0.00000000000E+00  0.73216892516E+01  0.73216909863E+01  0.50400000000E-02 0.  1.
          1   -1    0    0  501    0  0.00000000000E+00 -0.00000000000E+00 -0.28220456631E+03  0.28220456635E+03  0.50400000000E-02 0. -1.
         23    2    1    2    0    0  0.17763568394E-14  0.00000000000E+00 -0.27488287705E+03  0.28952625734E+03  0.90911262174E+02 0.  0.
    9000005    2    3    3    0    0 -0.85143213936E+01 -0.40028627940E+02 -0.77366457497E+02  0.87814778442E+02  0.71471563247E+01 0.  0.
         22    1    3    3    0    0  0.85143213936E+01  0.40028627940E+02 -0.19751641956E+03  0.20171147889E+03  0.00000000000E+00 0. -1.
         22    1    4    4    0    0 -0.41579646661E+00 -0.19069040661E+02 -0.35381582775E+02  0.40195243476E+02  0.00000000000E+00 0. -1.
         22    1    4    4    0    0 -0.80985249270E+01 -0.20959587279E+02 -0.41984874722E+02  0.47619534966E+02  0.00000000000E+00 0. -1.
<mgrwt>
<rscale>  0 0.90911262E+02</rscale>
<asrwt>0</asrwt>
<pdfrwt beam="2">  1        1 0.43416079E-01 0.90911262E+02</pdfrwt>
<pdfrwt beam="1">  1       -1 0.11264141E-02 0.90911262E+02</pdfrwt>
<totfact> 0.12761403E+05</totfact>
</mgrwt>
</event>
<event>
 7    1  0.3607059E-009  0.9087609E+02  0.7818608E-02  0.1300744E+00
         -1   -1    0    0    0  501 -0.00000000000E+00  0.00000000000E+00  0.50823470450E+01  0.50823495440E+01  0.50400000000E-02 0.  1.
          1   -1    0    0  501    0  0.00000000000E+00 -0.00000000000E+00 -0.40623269438E+03  0.40623269441E+03  0.50400000000E-02 0. -1.
         23    2    1    2    0    0  0.00000000000E+00  0.71054273576E-14 -0.40115034733E+03  0.41131504395E+03  0.90876092658E+02 0.  0.
    9000005    2    3    3    0    0  0.43461422576E+01 -0.36514710874E+02 -0.32004031468E+03  0.32225859859E+03  0.85198759175E+01 0.  0.
         22    1    3    3    0    0 -0.43461422576E+01  0.36514710874E+02 -0.81110032653E+02  0.89056445357E+02  0.00000000000E+00 0.  1.
         22    1    4    4    0    0  0.41684896054E+01 -0.22564066729E+02 -0.23029270434E+03  0.23143302073E+03  0.00000000000E+00 0. -1.
         22    1    4    4    0    0  0.17765265220E+00 -0.13950644145E+02 -0.89747610342E+02  0.90825577865E+02  0.00000000000E+00 0. -1.
<mgrwt>
<rscale>  0 0.90876093E+02</rscale>
<asrwt>0</asrwt>
<pdfrwt beam="2">  1        1 0.62497312E-01 0.90876093E+02</pdfrwt>
<pdfrwt beam="1">  1       -1 0.78190006E-03 0.90876093E+02</pdfrwt>
<totfact> 0.13642220E+05</totfact>
</mgrwt>
</event>
<event>
 7    1  0.3607059E-009  0.9042250E+02  0.7818608E-02  0.1301832E+00
          1   -1    0    0  501    0  0.00000000000E+00  0.00000000000E+00  0.33204175667E+02  0.33204176050E+02  0.50400000000E-02 0. -1.
         -1   -1    0    0    0  501 -0.00000000000E+00 -0.00000000000E+00 -0.61560240725E+02  0.61560240931E+02  0.50400000000E-02 0.  1.
         23    2    1    2    0    0 -0.17763568394E-14  0.00000000000E+00 -0.28356065057E+02  0.94764416981E+02  0.90422498860E+02 0.  0.
    9000005    2    3    3    0    0 -0.12838374370E+02  0.18510234428E+02 -0.55243541790E+02  0.59687515178E+02  0.18160186050E+01 0.  0.
         22    1    3    3    0    0  0.12838374370E+02 -0.18510234428E+02  0.26887476733E+02  0.35076901803E+02  0.00000000000E+00 0. -1.
         22    1    4    4    0    0 -0.93226670598E+01  0.13561265964E+02 -0.42397106287E+02  0.45478947626E+02  0.00000000000E+00 0.  1.
         22    1    4    4    0    0 -0.35157073098E+01  0.49489684635E+01 -0.12846435503E+02  0.14208567552E+02  0.00000000000E+00 0.  1.
<mgrwt>
<rscale>  0 0.90422499E+02</rscale>
<asrwt>0</asrwt>
<pdfrwt beam="1">  1        1 0.51083348E-02 0.90422499E+02</pdfrwt>
<pdfrwt beam="2">  1       -1 0.94708063E-02 0.90422499E+02</pdfrwt>
<totfact> 0.90206356E+04</totfact>
</mgrwt>
</event>
<event>
 7    1  0.3607059E-009  0.9071996E+02  0.7818608E-02  0.1301118E+00
          1   -1    0    0  501    0  0.00000000000E+00  0.00000000000E+00  0.74711138903E+02  0.74711139073E+02  0.50400000000E-02 0. -1.
         -1   -1    0    0    0  501 -0.00000000000E+00 -0.00000000000E+00 -0.27539772611E+02  0.27539773072E+02  0.50400000000E-02 0.  1.
         23    2    1    2    0    0  0.00000000000E+00 -0.35527136788E-14  0.47171366292E+02  0.10225091215E+03  0.90719960519E+02 0.  0.
    9000005    2    3    3    0    0  0.21443205860E+02  0.16568026712E+02 -0.16025318330E+02  0.33489501937E+02  0.11420390787E+02 0.  0.
         22    1    3    3    0    0 -0.21443205860E+02 -0.16568026712E+02  0.63196684622E+02  0.68761410209E+02  0.00000000000E+00 0. -1.
         22    1    4    4    0    0  0.22705020708E+02  0.14431338516E+02 -0.15020860508E+02  0.30812460907E+02  0.00000000000E+00 0. -1.
         22    1    4    4    0    0 -0.12618148487E+01  0.21366881962E+01 -0.10044578212E+01  0.26770410297E+01  0.00000000000E+00 0. -1.
<mgrwt>
<rscale>  0 0.90719961E+02</rscale>
<asrwt>0</asrwt>
<pdfrwt beam="1">  1        1 0.11494021E-01 0.90719961E+02</pdfrwt>
<pdfrwt beam="2">  1       -1 0.42368882E-02 0.90719961E+02</pdfrwt>
<totfact> 0.10105547E+05</totfact>
</mgrwt>
</event>
<event>
 7    1  0.3607059E-009  0.9153197E+02  0.7818608E-02  0.1299184E+00
         -1   -1    0    0    0  501 -0.00000000000E+00  0.00000000000E+00  0.60234968045E+02  0.60234968255E+02  0.50400000000E-02 0.  1.
          1   -1    0    0  501    0  0.00000000000E+00 -0.00000000000E+00 -0.34772579351E+02  0.34772579716E+02  0.50400000000E-02 0. -1.
         23    2    1    2    0    0  0.00000000000E+00 -0.35527136788E-14  0.25462388694E+02  0.95007547971E+02  0.91531966730E+02 0.  0.
    9000005    2    3    3    0    0 -0.30321212752E+02 -0.22866518268E+02  0.37474289217E+02  0.55176161420E+02  0.14065306120E+02 0.  0.
         22    1    3    3    0    0  0.30321212752E+02  0.22866518268E+02 -0.12011900523E+02  0.39831386552E+02  0.00000000000E+00 0. -1.
         22    1    4    4    0    0 -0.26328898310E+02 -0.13009158900E+02  0.23484069951E+02  0.37602535060E+02  0.00000000000E+00 0. -1.
         22    1    4    4    0    0 -0.39923144424E+01 -0.98573593682E+01  0.13990219266E+02  0.17573626359E+02  0.00000000000E+00 0. -1.
<mgrwt>
<rscale>  0 0.91531967E+02</rscale>
<asrwt>0</asrwt>
<pdfrwt beam="2">  1        1 0.53496277E-02 0.91531967E+02</pdfrwt>
<pdfrwt beam="1">  1       -1 0.92669180E-02 0.91531967E+02</pdfrwt>
<totfact> 0.87756267E+04</totfact>
</mgrwt>
</event>
<event>
 7    1  0.3607059E-009  0.8313689E+02  0.7818608E-02  0.1320378E+00
          1   -1    0    0  501    0  0.00000000000E+00  0.00000000000E+00  0.50885399899E+02  0.50885400149E+02  0.50400000000E-02 0. -1.
         -1   -1    0    0    0  501 -0.00000000000E+00 -0.00000000000E+00 -0.33957394843E+02  0.33957395217E+02  0.50400000000E-02 0.  1.
         23    2    1    2    0    0  0.00000000000E+00  0.00000000000E+00  0.16928005056E+02  0.84842795365E+02  0.83136890549E+02 0.  0.
    9000005    2    3    3    0    0  0.26154856414E+02 -0.20001740649E+02  0.34255908247E+02  0.47635237369E+02  0.33915256714E+01 0.  0.
         22    1    3    3    0    0 -0.26154856414E+02  0.20001740649E+02 -0.17327903190E+02  0.37207557996E+02  0.00000000000E+00 0.  1.
         22    1    4    4    0    0  0.16233722187E+02 -0.12684646863E+02  0.19044679379E+02  0.28055905167E+02  0.00000000000E+00 0. -1.
         22    1    4    4    0    0  0.99211342275E+01 -0.73170937863E+01  0.15211228868E+02  0.19579332203E+02  0.00000000000E+00 0. -1.
<mgrwt>
<rscale>  0 0.83136891E+02</rscale>
<asrwt>0</asrwt>
<pdfrwt beam="1">  1        1 0.78285231E-02 0.83136891E+02</pdfrwt>
<pdfrwt beam="2">  1       -1 0.52242146E-02 0.83136891E+02</pdfrwt>
<totfact> 0.12141170E+05</totfact>
</mgrwt>
</event>
<event>
 7    1  0.3607059E-009  0.9023262E+02  0.7818608E-02  0.1302289E+00
          1   -1    0    0  501    0  0.00000000000E+00  0.00000000000E+00  0.12348335104E+03  0.12348335114E+03  0.50400000000E-02 0. -1.
         -1   -1    0    0    0  501 -0.00000000000E+00 -0.00000000000E+00 -0.16483851208E+02  0.16483851979E+02  0.50400000000E-02 0.  1.
         23    2    1    2    0    0  0.00000000000E+00  0.00000000000E+00  0.10699949983E+03  0.13996720312E+03  0.90232615973E+02 0.  0.
    9000005    2    3    3    0    0 -0.21306225171E+02  0.20214211887E+02  0.10581695017E+03  0.11057387026E+03  0.12914497566E+02 0.  0.
         22    1    3    3    0    0  0.21306225171E+02 -0.20214211887E+02  0.11825496647E+01  0.29393332866E+02  0.00000000000E+00 0.  1.
         22    1    4    4    0    0 -0.69154681586E+01 -0.40615975969E+00  0.24051189391E+02  0.25028950771E+02  0.00000000000E+00 0. -1.
         22    1    4    4    0    0 -0.14390757012E+02  0.20620371647E+02  0.81765760776E+02  0.85544919484E+02  0.00000000000E+00 0. -1.
<mgrwt>
<rscale>  0 0.90232616E+02</rscale>
<asrwt>0</asrwt>
<pdfrwt beam="1">  1        1 0.18997438E-01 0.90232616E+02</pdfrwt>
<pdfrwt beam="2">  1       -1 0.25359772E-02 0.90232616E+02</pdfrwt>
<totfact> 0.11137286E+05</totfact>
</mgrwt>
</event>
<event>
 7    1  0.3607059E-009  0.9128555E+02  0.7818608E-02  0.1299768E+00
         -1   -1    0    0    0  501 -0.00000000000E+00  0.00000000000E+00  0.30743910762E+02  0.30743911175E+02  0.50400000000E-02 0. -1.
          1   -1    0    0  501    0  0.00000000000E+00 -0.00000000000E+00 -0.67761804608E+02  0.67761804795E+02  0.50400000000E-02 0.  1.
         23    2    1    2    0    0 -0.44408920985E-15 -0.71054273576E-14 -0.37017893846E+02  0.98505715970E+02  0.91285549864E+02 0.  0.
    9000005    2    3    3    0    0 -0.35133953073E+01 -0.34778306384E+02 -0.49902366077E+02  0.61251398554E+02  0.62938972976E+01 0.  0.
         22    1    3    3    0    0  0.35133953073E+01  0.34778306384E+02  0.12884472231E+02  0.37254317417E+02  0.00000000000E+00 0.  1.
         22    1    4    4    0    0 -0.36498730137E+01 -0.25053823155E+02 -0.31280088429E+02  0.40242509363E+02  0.00000000000E+00 0. -1.
         22    1    4    4    0    0  0.13647770632E+00 -0.97244832287E+01 -0.18622277648E+02  0.21008889191E+02  0.00000000000E+00 0. -1.
<mgrwt>
<rscale>  0 0.91285550E+02</rscale>
<asrwt>0</asrwt>
<pdfrwt beam="2">  1        1 0.10424893E-01 0.91285550E+02</pdfrwt>
<pdfrwt beam="1">  1       -1 0.47298325E-02 0.91285550E+02</pdfrwt>
<totfact> 0.97851713E+04</totfact>
</mgrwt>
</event>
<event>
 7    1  0.3607059E-009  0.9117562E+02  0.7818608E-02  0.1300029E+00
         -1   -1    0    0    0  501 -0.00000000000E+00  0.00000000000E+00  0.11966175505E+01  0.11966281644E+01  0.50400000000E-02 0.  1.
          1   -1    0    0  501    0  0.00000000000E+00 -0.00000000000E+00 -0.17367612441E+04  0.17367612441E+04  0.50400000000E-02 0. -1.
         23    2    1    2    0    0  0.00000000000E+00  0.00000000000E+00 -0.17355646266E+04  0.17379578723E+04  0.91175615499E+02 0.  0.
    9000005    2    3    3    0    0 -0.41180788863E+01 -0.19091194602E+02 -0.16518132062E+04  0.16519594264E+04  0.10081961567E+02 0.  0.
         22    1    3    3    0    0  0.41180788863E+01  0.19091194602E+02 -0.83751420367E+02  0.85998445907E+02  0.00000000000E+00 0.  1.
         22    1    4    4    0    0  0.18344083903E+01 -0.37575439953E+01 -0.15681854599E+03  0.15687428265E+03  0.00000000000E+00 0.  1.
         22    1    4    4    0    0 -0.59524872766E+01 -0.15333650607E+02 -0.14949946602E+04  0.14950851437E+04  0.00000000000E+00 0.  1.
<mgrwt>
<rscale>  0 0.91175615E+02</rscale>
<asrwt>0</asrwt>
<pdfrwt beam="2">  1        1 0.26719202E+00 0.91175615E+02</pdfrwt>
<pdfrwt beam="1">  1       -1 0.18409722E-03 0.91175615E+02</pdfrwt>
<totfact> 0.95914200E+04</totfact>
</mgrwt>
</event>
<event>
 7    1  0.3607059E-009  0.9041793E+02  0.7818608E-02  0.1301843E+00
         -1   -1    0    0    0  501 -0.00000000000E+00  0.00000000000E+00  0.19989298316E+04  0.19989298316E+04  0.50400000000E-02 0.  1.
          1   -1    0    0  501    0  0.00000000000E+00 -0.00000000000E+00 -0.10224660709E+01  0.10224784926E+01  0.50400000000E-02 0. -1.
         23    2    1    2    0    0  0.35527136788E-14  0.00000000000E+00  0.19979073655E+04  0.19999523101E+04  0.90417926511E+02 0.  0.
    9000005    2    3    3    0    0  0.16221042470E+02 -0.90774915468E+01  0.19085640370E+04  0.19086957847E+04  0.12545605127E+02 0.  0.
         22    1    3    3    0    0 -0.16221042470E+02  0.90774915468E+01  0.89343328551E+02  0.91256525400E+02  0.00000000000E+00 0. -1.
         22    1    4    4    0    0  0.10137031856E+02 -0.38265238798E+01  0.15660213289E+04  0.15660588125E+04  0.00000000000E+00 0.  1.
         22    1    4    4    0    0  0.60840106140E+01 -0.52509676671E+01  0.34254270810E+03  0.34263697220E+03  0.00000000000E+00 0.  1.
<mgrwt>
<rscale>  0 0.90417927E+02</rscale>
<asrwt>0</asrwt>
<pdfrwt beam="2">  1        1 0.15730480E-03 0.90417927E+02</pdfrwt>
<pdfrwt beam="1">  1       -1 0.30752498E+00 0.90417927E+02</pdfrwt>
<totfact> 0.71272874E+03</totfact>
</mgrwt>
</event>
<event>
 6    1  0.5614050E-009  0.5335920E+03  0.7818608E-02  0.1005365E+00
          1   -1    0    0  501    0  0.00000000000E+00  0.00000000000E+00  0.12088269079E+03  0.12088269089E+03  0.50400000000E-02 0. -1.
         -1   -1    0    0    0  501 -0.00000000000E+00 -0.00000000000E+00 -0.58883624918E+03  0.58883624920E+03  0.50400000000E-02 0.  1.
    9000005    2    1    2    0    0 -0.87737704730E+01  0.23092482271E+03 -0.41092661486E+03  0.47169514909E+03  0.15243952386E+02 0.  0.
         22    1    1    2    0    0  0.87737704730E+01 -0.23092482271E+03 -0.57026943536E+02  0.23802379100E+03  0.00000000000E+00 0. -1.
         22    1    3    3    0    0 -0.59610121395E+01  0.32404263654E+02 -0.53651815791E+02  0.62960998296E+02  0.00000000000E+00 0.  1.
         22    1    3    3    0    0 -0.28127583336E+01  0.19852055906E+03 -0.35727479907E+03  0.40873415080E+03  0.00000000000E+00 0.  1.
<mgrwt>
<rscale>  0 0.53359202E+03</rscale>
<asrwt>0</asrwt>
<pdfrwt beam="1">  1        1 0.18597337E-01 0.53359202E+03</pdfrwt>
<pdfrwt beam="2">  1       -1 0.90590191E-01 0.53359202E+03</pdfrwt>
<totfact> 0.34963796E+02</totfact>
</mgrwt>
</event>
<event>
 7    1  0.3607059E-009  0.9221927E+02  0.7818608E-02  0.1297565E+00
          1   -1    0    0  501    0  0.00000000000E+00  0.00000000000E+00  0.34289549807E+02  0.34289550178E+02  0.50400000000E-02 0. -1.
         -1   -1    0    0    0  501 -0.00000000000E+00 -0.00000000000E+00 -0.62004265292E+02  0.62004265497E+02  0.50400000000E-02 0.  1.
         23    2    1    2    0    0  0.00000000000E+00  0.00000000000E+00 -0.27714715485E+02  0.96293815675E+02  0.92219268501E+02 0.  0.
    9000005    2    3    3    0    0 -0.26159243832E+02  0.32881705012E+02  0.45600875874E+01  0.43311030964E+02  0.94624754687E+01 0.  0.
         22    1    3    3    0    0  0.26159243832E+02 -0.32881705012E+02 -0.32274803073E+02  0.52982784711E+02  0.00000000000E+00 0.  1.
         22    1    4    4    0    0 -0.15528809749E+02  0.13948651226E+02  0.54708006590E+01  0.21578657584E+02  0.00000000000E+00 0. -1.
         22    1    4    4    0    0 -0.10630434083E+02  0.18933053786E+02 -0.91071307163E+00  0.21732373380E+02  0.00000000000E+00 0. -1.
<mgrwt>
<rscale>  0 0.92219269E+02</rscale>
<asrwt>0</asrwt>
<pdfrwt beam="1">  1        1 0.52753154E-02 0.92219269E+02</pdfrwt>
<pdfrwt beam="2">  1       -1 0.95391178E-02 0.92219269E+02</pdfrwt>
<totfact> 0.85713923E+04</totfact>
</mgrwt>
</event>
<event>
 7    1  0.6728829E-009  0.9241799E+02  0.7818608E-02  0.1297100E+00
         -1   -1    0    0    0  501 -0.00000000000E+00  0.00000000000E+00  0.11322413909E+02  0.11322415030E+02  0.50400000000E-02 0. -1.
          1   -1    0    0  501    0  0.00000000000E+00 -0.00000000000E+00 -0.18858797175E+03  0.18858797182E+03  0.50400000000E-02 0.  1.
         23    2    1    2    0    0  0.00000000000E+00  0.00000000000E+00 -0.17726555785E+03  0.19991038685E+03  0.92417989444E+02 0.  0.
    9000005    2    3    3    0    0  0.90948841918E+01  0.18519489231E+02 -0.17738610068E+03  0.17927781720E+03  0.15780323966E+02 0.  0.
         22    1    3    3    0    0 -0.90948841918E+01 -0.18519489231E+02  0.12054283834E+00  0.20632569651E+02  0.00000000000E+00 0. -1.
         22    1    4    4    0    0  0.77119588077E+00  0.15817461923E+02 -0.83782813480E+02  0.85266327934E+02  0.00000000000E+00 0. -1.
         22    1    4    4    0    0  0.83236883110E+01  0.27020273086E+01 -0.93603287204E+02  0.94011489266E+02  0.00000000000E+00 0. -1.
<mgrwt>
<rscale>  0 0.92417989E+02</rscale>
<asrwt>0</asrwt>
<pdfrwt beam="2">  1        1 0.29013532E-01 0.92417989E+02</pdfrwt>
<pdfrwt beam="1">  1       -1 0.17419101E-02 0.92417989E+02</pdfrwt>
<totfact> 0.11288917E+05</totfact>
</mgrwt>
</event>
<event>
 7    1  0.3607059E-009  0.9091468E+02  0.7818608E-02  0.1300652E+00
          1   -1    0    0  501    0  0.00000000000E+00  0.00000000000E+00  0.18307698478E+02  0.18307699172E+02  0.50400000000E-02 0. -1.
         -1   -1    0    0    0  501 -0.00000000000E+00 -0.00000000000E+00 -0.11286889130E+03  0.11286889141E+03  0.50400000000E-02 0.  1.
         23    2    1    2    0    0  0.00000000000E+00  0.00000000000E+00 -0.94561192822E+02  0.13117659058E+03  0.90914678295E+02 0.  0.
    9000005    2    3    3    0    0 -0.39386480967E+02 -0.21135032085E+02 -0.43304698830E+02  0.63167674695E+02  0.10810815020E+02 0.  0.
         22    1    3    3    0    0  0.39386480967E+02  0.21135032085E+02 -0.51256493992E+02  0.68008915890E+02  0.00000000000E+00 0.  1.
         22    1    4    4    0    0 -0.20934817619E+02 -0.14589820147E+02 -0.30533766207E+02  0.39792465611E+02  0.00000000000E+00 0. -1.
         22    1    4    4    0    0 -0.18451663348E+02 -0.65452119375E+01 -0.12770932623E+02  0.23375209083E+02  0.00000000000E+00 0. -1.
<mgrwt>
<rscale>  0 0.90914678E+02</rscale>
<asrwt>0</asrwt>
<pdfrwt beam="1">  1        1 0.28165691E-02 0.90914678E+02</pdfrwt>
<pdfrwt beam="2">  1       -1 0.17364444E-01 0.90914678E+02</pdfrwt>
<totfact> 0.80097514E+04</totfact>
</mgrwt>
</event>
<event>
 7    1  0.3607059E-009  0.9015272E+02  0.7818608E-02  0.1302482E+00
          1   -1    0    0  501    0  0.00000000000E+00  0.00000000000E+00  0.16345023468E+03  0.16345023476E+03  0.50400000000E-02 0. -1.
         -1   -1    0    0    0  501 -0.00000000000E+00 -0.00000000000E+00 -0.12431174048E+02  0.12431175070E+02  0.50400000000E-02 0.  1.
         23    2    1    2    0    0  0.00000000000E+00  0.00000000000E+00  0.15101906063E+03  0.17588140983E+03  0.90152724024E+02 0.  0.
    9000005    2    3    3    0    0  0.39062128858E+01 -0.17389194578E+02  0.15566986648E+03  0.15746205636E+03  0.15606065340E+02 0.  0.
         22    1    3    3    0    0 -0.39062128858E+01  0.17389194578E+02 -0.46508058485E+01  0.18419353469E+02  0.00000000000E+00 0.  1.
         22    1    4    4    0    0 -0.14938166951E+01 -0.16966863339E+02  0.92089458880E+02  0.93651344767E+02  0.00000000000E+00 0.  1.
         22    1    4    4    0    0  0.54000295809E+01 -0.42233123962E+00  0.63580407601E+02  0.63810711592E+02  0.00000000000E+00 0.  1.
<mgrwt>
<rscale>  0 0.90152724E+02</rscale>
<asrwt>0</asrwt>
<pdfrwt beam="1">  1        1 0.25146187E-01 0.90152724E+02</pdfrwt>
<pdfrwt beam="2">  1       -1 0.19124886E-02 0.90152724E+02</pdfrwt>
<totfact> 0.11744633E+05</totfact>
</mgrwt>
</event>
<event>
 7    1  0.3607059E-009  0.9134956E+02  0.7818608E-02  0.1299616E+00
          1   -1    0    0  501    0  0.00000000000E+00  0.00000000000E+00  0.74411858535E+02  0.74411858705E+02  0.50400000000E-02 0. -1.
         -1   -1    0    0    0  501 -0.00000000000E+00 -0.00000000000E+00 -0.28035658999E+02  0.28035659452E+02  0.50400000000E-02 0.  1.
         23    2    1    2    0    0  0.00000000000E+00  0.00000000000E+00  0.46376199536E+02  0.10244751816E+03  0.91349559896E+02 0.  0.
    9000005    2    3    3    0    0  0.16298752272E+02  0.86628780629E+01  0.69054447440E+02  0.73207174282E+02  0.15813882295E+02 0.  0.
         22    1    3    3    0    0 -0.16298752272E+02 -0.86628780629E+01 -0.22678247904E+02  0.29240343875E+02  0.00000000000E+00 0.  1.
         22    1    4    4    0    0  0.87989035513E+01  0.36487603458E+01  0.58725808241E+02  0.59493316509E+02  0.00000000000E+00 0. -1.
         22    1    4    4    0    0  0.74998487205E+01  0.50141177171E+01  0.10328639199E+02  0.13713857773E+02  0.00000000000E+00 0. -1.
<mgrwt>
<rscale>  0 0.91349560E+02</rscale>
<asrwt>0</asrwt>
<pdfrwt beam="1">  1        1 0.11447978E-01 0.91349560E+02</pdfrwt>
<pdfrwt beam="2">  1       -1 0.43131784E-02 0.91349560E+02</pdfrwt>
<totfact> 0.99088843E+04</totfact>
</mgrwt>
</event>
<event>
 7    1  0.3607059E-009  0.1040709E+03  0.7818608E-02  0.1271961E+00
          1   -1    0    0  501    0  0.00000000000E+00  0.00000000000E+00  0.15338139296E+03  0.15338139305E+03  0.50400000000E-02 0. -1.
         -1   -1    0    0    0  501 -0.00000000000E+00 -0.00000000000E+00 -0.17653285068E+02  0.17653285787E+02  0.50400000000E-02 0.  1.
         23    2    1    2    0    0  0.71054273576E-14  0.00000000000E+00  0.13572810790E+03  0.17103467883E+03  0.10407085130E+03 0.  0.
    9000005    2    3    3    0    0  0.48451319939E+02  0.11336049742E+02  0.91391829952E+02  0.10438828381E+03  0.82710814036E+01 0.  0.
         22    1    3    3    0    0 -0.48451319939E+02 -0.11336049742E+02  0.44336277944E+02  0.66646395022E+02  0.00000000000E+00 0.  1.
         22    1    4    4    0    0  0.94444447407E+01  0.40069318311E+01  0.13379417604E+02  0.16860066862E+02  0.00000000000E+00 0. -1.
         22    1    4    4    0    0  0.39006875198E+02  0.73291179110E+01  0.78012412348E+02  0.87528216950E+02  0.00000000000E+00 0. -1.
<mgrwt>
<rscale>  0 0.10407085E+03</rscale>
<asrwt>0</asrwt>
<pdfrwt beam="1">  1        1 0.23597139E-01 0.10407085E+03</pdfrwt>
<pdfrwt beam="2">  1       -1 0.27158899E-02 0.10407085E+03</pdfrwt>
<totfact> 0.78583758E+04</totfact>
</mgrwt>
</event>
<event>
 7    1  0.3607059E-009  0.8948689E+02  0.7818608E-02  0.1304099E+00
          1   -1    0    0  501    0  0.00000000000E+00  0.00000000000E+00  0.38208286288E+02  0.38208286620E+02  0.50400000000E-02 0. -1.
         -1   -1    0    0    0  501 -0.00000000000E+00 -0.00000000000E+00 -0.52396376668E+02  0.52396376910E+02  0.50400000000E-02 0.  1.
         23    2    1    2    0    0 -0.17763568394E-14  0.17763568394E-14 -0.14188090380E+02  0.90604663530E+02  0.89486888117E+02 0.  0.
    9000005    2    3    3    0    0 -0.14938017487E+02 -0.13545371685E+02 -0.47338626200E+02  0.51802866076E+02  0.59974947004E+01 0.  0.
         22    1    3    3    0    0  0.14938017487E+02  0.13545371685E+02  0.33150535820E+02  0.38801797454E+02  0.00000000000E+00 0. -1.
         22    1    4    4    0    0 -0.91273396967E+01 -0.47807265280E+01 -0.27155587720E+02  0.29044614311E+02  0.00000000000E+00 0. -1.
         22    1    4    4    0    0 -0.58106777903E+01 -0.87646451569E+01 -0.20183038480E+02  0.22758251765E+02  0.00000000000E+00 0. -1.
<mgrwt>
<rscale>  0 0.89486888E+02</rscale>
<asrwt>0</asrwt>
<pdfrwt beam="1">  1        1 0.58781979E-02 0.89486888E+02</pdfrwt>
<pdfrwt beam="2">  1       -1 0.80609811E-02 0.89486888E+02</pdfrwt>
<totfact> 0.94917990E+04</totfact>
</mgrwt>
</event>
<event>
 7    1  0.3607059E-009  0.9154136E+02  0.7818608E-02  0.1299161E+00
          1   -1    0    0  501    0  0.00000000000E+00  0.00000000000E+00  0.60298343996E+02  0.60298344207E+02  0.50400000000E-02 0. -1.
         -1   -1    0    0    0  501 -0.00000000000E+00 -0.00000000000E+00 -0.34743158598E+02  0.34743158963E+02  0.50400000000E-02 0.  1.
         23    2    1    2    0    0  0.00000000000E+00  0.00000000000E+00  0.25555185398E+02  0.95041503170E+02  0.91541355813E+02 0.  0.
    9000005    2    3    3    0    0  0.23993267372E+01 -0.14684121985E+02 -0.31346582894E+02  0.36226611841E+02  0.10410520597E+02 0.  0.
         22    1    3    3    0    0 -0.23993267372E+01  0.14684121985E+02  0.56901768292E+02  0.58814891329E+02  0.00000000000E+00 0. -1.
         22    1    4    4    0    0  0.97355160266E-01  0.13092623050E+01 -0.61904946761E+01  0.63281806347E+01  0.00000000000E+00 0.  1.
         22    1    4    4    0    0  0.23019715770E+01 -0.15993384290E+02 -0.25156088218E+02  0.29898431207E+02  0.00000000000E+00 0.  1.
<mgrwt>
<rscale>  0 0.91541356E+02</rscale>
<asrwt>0</asrwt>
<pdfrwt beam="1">  1        1 0.92766683E-02 0.91541356E+02</pdfrwt>
<pdfrwt beam="2">  1       -1 0.53451014E-02 0.91541356E+02</pdfrwt>
<totfact> 0.95380999E+04</totfact>
</mgrwt>
</event>
<event>
 7    1  0.3607059E-009  0.9638531E+02  0.7818608E-02  0.1288086E+00
          1   -1    0    0  501    0  0.00000000000E+00  0.00000000000E+00  0.55432504712E+01  0.55432527624E+01  0.50400000000E-02 0. -1.
         -1   -1    0    0    0  501 -0.00000000000E+00 -0.00000000000E+00 -0.41898366142E+03  0.41898366145E+03  0.50400000000E-02 0.  1.
         23    2    1    2    0    0  0.00000000000E+00  0.00000000000E+00 -0.41344041095E+03  0.42452691422E+03  0.96385307415E+02 0.  0.
    9000005    2    3    3    0    0  0.41021103272E+02  0.20779177383E+02 -0.25568897468E+03  0.26021008376E+03  0.14762479105E+02 0.  0.
         22    1    3    3    0    0 -0.41021103272E+02 -0.20779177383E+02 -0.15775143627E+03  0.16431683046E+03  0.00000000000E+00 0. -1.
         22    1    4    4    0    0  0.27567236332E+02  0.21285708119E+02 -0.18304089306E+03  0.18632499140E+03  0.00000000000E+00 0.  1.
         22    1    4    4    0    0  0.13453866940E+02 -0.50653073634E+00 -0.72648081627E+02  0.73885092360E+02  0.00000000000E+00 0.  1.
<mgrwt>
<rscale>  0 0.96385307E+02</rscale>
<asrwt>0</asrwt>
<pdfrwt beam="1">  1        1 0.85280827E-03 0.96385307E+02</pdfrwt>
<pdfrwt beam="2">  1       -1 0.64459000E-01 0.96385307E+02</pdfrwt>
<totfact> 0.44965367E+04</totfact>
</mgrwt>
</event>
<event>
 7    1  0.3607059E-009  0.9405403E+02  0.7818608E-02  0.1293321E+00
          1   -1    0    0  501    0  0.00000000000E+00  0.00000000000E+00  0.14420951451E+03  0.14420951460E+03  0.50400000000E-02 0. -1.
         -1   -1    0    0    0  501 -0.00000000000E+00 -0.00000000000E+00 -0.15335605788E+02  0.15335606616E+02  0.50400000000E-02 0.  1.
         23    2    1    2    0    0  0.71054273576E-14  0.44408920985E-15  0.12887390872E+03  0.15954512122E+03  0.94054034226E+02 0.  0.
    9000005    2    3    3    0    0 -0.36580454857E+02 -0.31448896407E+01  0.11273851958E+03  0.11944062282E+03  0.14424582345E+02 0.  0.
         22    1    3    3    0    0  0.36580454857E+02  0.31448896407E+01  0.16135389147E+02  0.40104498393E+02  0.00000000000E+00 0.  1.
         22    1    4    4    0    0 -0.46483586074E+01  0.15746999976E+01  0.33846388052E+02  0.34200364062E+02  0.00000000000E+00 0. -1.
         22    1    4    4    0    0 -0.31932096249E+02 -0.47195896383E+01  0.78892131526E+02  0.85240258762E+02  0.00000000000E+00 0. -1.
<mgrwt>
<rscale>  0 0.94054034E+02</rscale>
<asrwt>0</asrwt>
<pdfrwt beam="1">  1        1 0.22186078E-01 0.94054034E+02</pdfrwt>
<pdfrwt beam="2">  1       -1 0.23593242E-02 0.94054034E+02</pdfrwt>
<totfact> 0.10234653E+05</totfact>
</mgrwt>
</event>
<event>
 7    1  0.3607059E-009  0.9691311E+02  0.7818608E-02  0.1286924E+00
          1   -1    0    0  501    0  0.00000000000E+00  0.00000000000E+00  0.89390261636E+02  0.89390261778E+02  0.50400000000E-02 0. -1.
         -1   -1    0    0    0  501 -0.00000000000E+00 -0.00000000000E+00 -0.26267264623E+02  0.26267265106E+02  0.50400000000E-02 0.  1.
         23    2    1    2    0    0  0.00000000000E+00  0.00000000000E+00  0.63122997013E+02  0.11565752688E+03  0.96913109397E+02 0.  0.
    9000005    2    3    3    0    0  0.78775923502E+01  0.42521241114E+02  0.70530584168E+01  0.44848273101E+02  0.95660629302E+01 0.  0.
         22    1    3    3    0    0 -0.78775923502E+01 -0.42521241114E+02  0.56069938597E+02  0.70809253783E+02  0.00000000000E+00 0. -1.
         22    1    4    4    0    0  0.19525106139E+01  0.18784500030E+01  0.22000557387E+01  0.34901457512E+01  0.00000000000E+00 0.  1.
         22    1    4    4    0    0  0.59250817363E+01  0.40642791111E+02  0.48530026782E+01  0.41358127350E+02  0.00000000000E+00 0.  1.
<mgrwt>
<rscale>  0 0.96913109E+02</rscale>
<asrwt>0</asrwt>
<pdfrwt beam="1">  1        1 0.13752348E-01 0.96913109E+02</pdfrwt>
<pdfrwt beam="2">  1       -1 0.40411177E-02 0.96913109E+02</pdfrwt>
<totfact> 0.86715122E+04</totfact>
</mgrwt>
</event>
<event>
 7    1  0.3607059E-009  0.8980030E+02  0.7818608E-02  0.1303336E+00
         -1   -1    0    0    0  501 -0.00000000000E+00  0.00000000000E+00  0.55982675715E+02  0.55982675942E+02  0.50400000000E-02 0.  1.
          1   -1    0    0  501    0  0.00000000000E+00 -0.00000000000E+00 -0.36011558778E+02  0.36011559131E+02  0.50400000000E-02 0. -1.
         23    2    1    2    0    0  0.00000000000E+00  0.00000000000E+00  0.19971116937E+02  0.91994235073E+02  0.89800299415E+02 0.  0.
    9000005    2    3    3    0    0 -0.34601737979E+02 -0.23727404082E+02 -0.48211861960E+01  0.43260999286E+02  0.93808446998E+01 0.  0.
         22    1    3    3    0    0  0.34601737979E+02  0.23727404082E+02  0.24792303133E+02  0.48733235787E+02  0.00000000000E+00 0.  1.
         22    1    4    4    0    0 -0.28591837092E+02 -0.22888309773E+02 -0.23217323396E+01  0.36698205863E+02  0.00000000000E+00 0.  1.
         22    1    4    4    0    0 -0.60099008870E+01 -0.83909430949E+00 -0.24994538564E+01  0.65627934229E+01  0.00000000000E+00 0.  1.
<mgrwt>
<rscale>  0 0.89800299E+02</rscale>
<asrwt>0</asrwt>
<pdfrwt beam="2">  1        1 0.55402399E-02 0.89800299E+02</pdfrwt>
<pdfrwt beam="1">  1       -1 0.86127194E-02 0.89800299E+02</pdfrwt>
<totfact> 0.93147969E+04</totfact>
</mgrwt>
</event>
<event>
 7    1  0.3607059E-009  0.9160036E+02  0.7818608E-02  0.1299022E+00
          1   -1    0    0  501    0  0.00000000000E+00  0.00000000000E+00  0.52094786987E+01  0.52094811367E+01  0.50400000000E-02 0. -1.
         -1   -1    0    0    0  501 -0.00000000000E+00 -0.00000000000E+00 -0.40266138004E+03  0.40266138007E+03  0.50400000000E-02 0.  1.
         23    2    1    2    0    0  0.00000000000E+00  0.00000000000E+00 -0.39745190134E+03  0.40787086121E+03  0.91600357767E+02 0.  0.
    9000005    2    3    3    0    0 -0.22092450584E+02  0.17536223114E+02 -0.35852273078E+03  0.35979721131E+03  0.10949396663E+02 0.  0.
         22    1    3    3    0    0  0.22092450584E+02 -0.17536223114E+02 -0.38929170566E+02  0.48073649902E+02  0.00000000000E+00 0. -1.
         22    1    4    4    0    0 -0.17689531589E+02  0.10771436560E+02 -0.30090046330E+03  0.30161238733E+03  0.00000000000E+00 0.  1.
         22    1    4    4    0    0 -0.44029189959E+01  0.67647865540E+01 -0.57622267474E+02  0.58184823981E+02  0.00000000000E+00 0.  1.
<mgrwt>
<rscale>  0 0.91600358E+02</rscale>
<asrwt>0</asrwt>
<pdfrwt beam="1">  1        1 0.80145877E-03 0.91600358E+02</pdfrwt>
<pdfrwt beam="2">  1       -1 0.61947880E-01 0.91600358E+02</pdfrwt>
<totfact> 0.52469638E+04</totfact>
</mgrwt>
</event>
<event>
 7    1  0.3607059E-009  0.9171649E+02  0.7818608E-02  0.1298747E+00
         -1   -1    0    0    0  501 -0.00000000000E+00  0.00000000000E+00  0.10075728387E+02  0.10075729648E+02  0.50400000000E-02 0. -1.
          1   -1    0    0  501    0  0.00000000000E+00 -0.00000000000E+00 -0.20871728937E+03  0.20871728943E+03  0.50400000000E-02 0.  1.
         23    2    1    2    0    0  0.00000000000E+00 -0.17763568394E-14 -0.19864156098E+03  0.21879301908E+03  0.91716494960E+02 0.  0.
    9000005    2    3    3    0    0 -0.31471548000E+02 -0.15187571249E+02 -0.16965881044E+03  0.17339345429E+03  0.77496694329E+01 0.  0.
         22    1    3    3    0    0  0.31471548000E+02  0.15187571249E+02 -0.28982750539E+02  0.45399564786E+02  0.00000000000E+00 0. -1.
         22    1    4    4    0    0 -0.38356239675E+01 -0.50728148768E+01 -0.31283372742E+02  0.31923265373E+02  0.00000000000E+00 0. -1.
         22    1    4    4    0    0 -0.27635924033E+02 -0.10114756372E+02 -0.13837543770E+03  0.14147018892E+03  0.00000000000E+00 0. -1.
<mgrwt>
<rscale>  0 0.91716495E+02</rscale>
<asrwt>0</asrwt>
<pdfrwt beam="2">  1        1 0.32110349E-01 0.91716495E+02</pdfrwt>
<pdfrwt beam="1">  1       -1 0.15501123E-02 0.91716495E+02</pdfrwt>
<totfact> 0.11751636E+05</totfact>
</mgrwt>
</event>
<event>
 7    1  0.3607059E-009  0.9062690E+02  0.7818608E-02  0.1301341E+00
          1   -1    0    0  501    0  0.00000000000E+00  0.00000000000E+00  0.20492962965E+03  0.20492962971E+03  0.50400000000E-02 0. -1.
         -1   -1    0    0    0  501 -0.00000000000E+00 -0.00000000000E+00 -0.10019578671E+02  0.10019579939E+02  0.50400000000E-02 0.  1.
         23    2    1    2    0    0  0.00000000000E+00  0.00000000000E+00  0.19491005098E+03  0.21494920965E+03  0.90626898639E+02 0.  0.
    9000005    2    3    3    0    0 -0.31627337303E+02 -0.57741699769E+01  0.22923962882E+02  0.39983944519E+02  0.62911240050E+01 0.  0.
         22    1    3    3    0    0  0.31627337303E+02  0.57741699769E+01  0.17198608810E+03  0.17496526513E+03  0.00000000000E+00 0. -1.
         22    1    4    4    0    0 -0.75058831238E+01 -0.14932930712E+01  0.89670083016E+01  0.11788784651E+02  0.00000000000E+00 0. -1.
         22    1    4    4    0    0 -0.24121454179E+02 -0.42808769058E+01  0.13956954580E+02  0.28195159868E+02  0.00000000000E+00 0. -1.
<mgrwt>
<rscale>  0 0.90626899E+02</rscale>
<asrwt>0</asrwt>
<pdfrwt beam="1">  1        1 0.31527636E-01 0.90626899E+02</pdfrwt>
<pdfrwt beam="2">  1       -1 0.15414737E-02 0.90626899E+02</pdfrwt>
<totfact> 0.12091084E+05</totfact>
</mgrwt>
</event>
<event>
 7    1  0.3607059E-009  0.9095688E+02  0.7818608E-02  0.1300551E+00
         -1   -1    0    0    0  501 -0.00000000000E+00  0.00000000000E+00  0.40005129518E+01  0.40005161266E+01  0.50400000000E-02 0.  1.
          1   -1    0    0  501    0  0.00000000000E+00 -0.00000000000E+00 -0.51700563713E+03  0.51700563715E+03  0.50400000000E-02 0. -1.
         23    2    1    2    0    0  0.00000000000E+00 -0.71054273576E-14 -0.51300512418E+03  0.52100615328E+03  0.90956881673E+02 0.  0.
    9000005    2    3    3    0    0  0.19296427755E+01  0.39512692653E+02 -0.38120586490E+03  0.38339793715E+03  0.10539941687E+02 0.  0.
         22    1    3    3    0    0 -0.19296427755E+01 -0.39512692653E+02 -0.13179925927E+03  0.13760821613E+03  0.00000000000E+00 0.  1.
         22    1    4    4    0    0  0.24816534243E+01  0.28452047873E+02 -0.22599464262E+03  0.22779213359E+03  0.00000000000E+00 0.  1.
         22    1    4    4    0    0 -0.55201064875E+00  0.11060644779E+02 -0.15521122228E+03  0.15560580356E+03  0.00000000000E+00 0.  1.
<mgrwt>
<rscale>  0 0.90956882E+02</rscale>
<asrwt>0</asrwt>
<pdfrwt beam="2">  1        1 0.79539276E-01 0.90956882E+02</pdfrwt>
<pdfrwt beam="1">  1       -1 0.61546419E-03 0.90956882E+02</pdfrwt>
<totfact> 0.14069222E+05</totfact>
</mgrwt>
</event>
<event>
 7    1  0.3607059E-009  0.9068596E+02  0.7818608E-02  0.1301199E+00
          1   -1    0    0  501    0  0.00000000000E+00  0.00000000000E+00  0.95992061815E+02  0.95992061947E+02  0.50400000000E-02 0. -1.
         -1   -1    0    0    0  501 -0.00000000000E+00 -0.00000000000E+00 -0.21418288926E+02  0.21418289519E+02  0.50400000000E-02 0.  1.
         23    2    1    2    0    0 -0.71054273576E-14 -0.17763568394E-14  0.74573772888E+02  0.11741035147E+03  0.90685958277E+02 0.  0.
    9000005    2    3    3    0    0  0.44095517435E+02  0.86940578406E+01  0.40292407366E+02  0.60884133464E+02  0.79623059944E+01 0.  0.
         22    1    3    3    0    0 -0.44095517435E+02 -0.86940578406E+01  0.34281365522E+02  0.56526218002E+02  0.00000000000E+00 0.  1.
         22    1    4    4    0    0  0.32307683384E+02  0.90748873357E+01  0.32714120113E+02  0.46865271156E+02  0.00000000000E+00 0.  1.
         22    1    4    4    0    0  0.11787834051E+02 -0.38082949515E+00  0.75782872535E+01  0.14018862308E+02  0.00000000000E+00 0.  1.
<mgrwt>
<rscale>  0 0.90685958E+02</rscale>
<asrwt>0</asrwt>
<pdfrwt beam="1">  1        1 0.14768010E-01 0.90685958E+02</pdfrwt>
<pdfrwt beam="2">  1       -1 0.32951214E-02 0.90685958E+02</pdfrwt>
<totfact> 0.10528599E+05</totfact>
</mgrwt>
</event>
<event>
 7    1  0.3607059E-009  0.6508074E+02  0.7818608E-02  0.1377668E+00
          1   -1    0    0  501    0  0.00000000000E+00  0.00000000000E+00  0.18871780434E+01  0.18871847734E+01  0.50400000000E-02 0. -1.
         -1   -1    0    0    0  501 -0.00000000000E+00 -0.00000000000E+00 -0.56108835570E+03  0.56108835573E+03  0.50400000000E-02 0.  1.
         23    2    1    2    0    0  0.00000000000E+00  0.00000000000E+00 -0.55920117766E+03  0.56297554050E+03  0.65080735278E+02 0.  0.
    9000005    2    3    3    0    0 -0.17273259773E+02 -0.12079848122E+02 -0.49101846281E+03  0.49160908592E+03  0.11665089479E+02 0.  0.
         22    1    3    3    0    0  0.17273259773E+02  0.12079848122E+02 -0.68182714854E+02  0.71366454575E+02  0.00000000000E+00 0. -1.
         22    1    4    4    0    0  0.99610195894E+00 -0.29412780054E+01 -0.36517848096E+02  0.36649646178E+02  0.00000000000E+00 0. -1.
         22    1    4    4    0    0 -0.18269361732E+02 -0.91385701170E+01 -0.45450061471E+03  0.45495943975E+03  0.00000000000E+00 0. -1.
<mgrwt>
<rscale>  0 0.65080735E+02</rscale>
<asrwt>0</asrwt>
<pdfrwt beam="1">  1        1 0.29033605E-03 0.65080735E+02</pdfrwt>
<pdfrwt beam="2">  1       -1 0.86321153E-01 0.65080735E+02</pdfrwt>
<totfact> 0.10439337E+05</totfact>
</mgrwt>
</event>
<event>
 7    1  0.3607059E-009  0.9151416E+02  0.7818608E-02  0.1299226E+00
         -1   -1    0    0    0  501 -0.00000000000E+00  0.00000000000E+00  0.36727258520E+02  0.36727258866E+02  0.50400000000E-02 0.  1.
          1   -1    0    0  501    0  0.00000000000E+00 -0.00000000000E+00 -0.57006988919E+02  0.57006989141E+02  0.50400000000E-02 0. -1.
         23    2    1    2    0    0  0.00000000000E+00  0.71054273576E-14 -0.20279730398E+02  0.93734248007E+02  0.91514161661E+02 0.  0.
    9000005    2    3    3    0    0  0.14941678061E+02 -0.38043641980E+02 -0.28733291452E+02  0.51996553619E+02  0.14403718692E+02 0.  0.
         22    1    3    3    0    0 -0.14941678061E+02  0.38043641980E+02  0.84535610538E+01  0.41737694389E+02  0.00000000000E+00 0.  1.
         22    1    4    4    0    0  0.17805120922E+02 -0.32242039733E+02 -0.23679363852E+02  0.43786798577E+02  0.00000000000E+00 0.  1.
         22    1    4    4    0    0 -0.28634428613E+01 -0.58016022475E+01 -0.50539276003E+01  0.82097550419E+01  0.00000000000E+00 0.  1.
<mgrwt>
<rscale>  0 0.91514162E+02</rscale>
<asrwt>0</asrwt>
<pdfrwt beam="2">  1        1 0.87703061E-02 0.91514162E+02</pdfrwt>
<pdfrwt beam="1">  1       -1 0.56503475E-02 0.91514162E+02</pdfrwt>
<totfact> 0.94651761E+04</totfact>
</mgrwt>
</event>
<event>
 7    1  0.3607059E-009  0.8760881E+02  0.7818608E-02  0.1308748E+00
         -1   -1    0    0    0  501 -0.00000000000E+00  0.00000000000E+00  0.45856965695E+02  0.45856965972E+02  0.50400000000E-02 0.  1.
          1   -1    0    0  501    0  0.00000000000E+00 -0.00000000000E+00 -0.41843712573E+02  0.41843712876E+02  0.50400000000E-02 0. -1.
         23    2    1    2    0    0  0.35527136788E-14  0.00000000000E+00  0.40132531228E+01  0.87700678849E+02  0.87608805892E+02 0.  0.
    9000005    2    3    3    0    0  0.24155295687E+02 -0.23849887945E+02 -0.23430276731E+02  0.44049300914E+02  0.15461810326E+02 0.  0.
         22    1    3    3    0    0 -0.24155295687E+02  0.23849887945E+02  0.27443529854E+02  0.43651377935E+02  0.00000000000E+00 0.  1.
         22    1    4    4    0    0  0.44239584800E+01 -0.58587215523E+00  0.14420241533E+01  0.46897855466E+01  0.00000000000E+00 0.  1.
         22    1    4    4    0    0  0.19731337207E+02 -0.23264015790E+02 -0.24872300884E+02  0.39359515367E+02  0.00000000000E+00 0.  1.
<mgrwt>
<rscale>  0 0.87608806E+02</rscale>
<asrwt>0</asrwt>
<pdfrwt beam="2">  1        1 0.64374943E-02 0.87608806E+02</pdfrwt>
<pdfrwt beam="1">  1       -1 0.70549178E-02 0.87608806E+02</pdfrwt>
<totfact> 0.10210751E+05</totfact>
</mgrwt>
</event>
<event>
 7    1  0.3607059E-009  0.9574282E+02  0.7818608E-02  0.1289512E+00
         -1   -1    0    0    0  501 -0.00000000000E+00  0.00000000000E+00  0.11512959046E+02  0.11512960149E+02  0.50400000000E-02 0.  1.
          1   -1    0    0  501    0  0.00000000000E+00 -0.00000000000E+00 -0.19905151512E+03  0.19905151519E+03  0.50400000000E-02 0. -1.
         23    2    1    2    0    0  0.71054273576E-14  0.00000000000E+00 -0.18753855608E+03  0.21056447534E+03  0.95742823534E+02 0.  0.
    9000005    2    3    3    0    0 -0.45719353990E+02 -0.13110620396E+02 -0.92285225472E+02  0.10409689958E+03  0.75798393762E+01 0.  0.
         22    1    3    3    0    0  0.45719353990E+02  0.13110620396E+02 -0.95253330605E+02  0.10646757576E+03  0.00000000000E+00 0. -1.
         22    1    4    4    0    0 -0.17026369428E+01 -0.10221765108E+01 -0.15229223820E+01  0.25026206184E+01  0.00000000000E+00 0. -1.
         22    1    4    4    0    0 -0.44016717048E+02 -0.12088443885E+02 -0.90762303090E+02  0.10159427896E+03  0.00000000000E+00 0. -1.
<mgrwt>
<rscale>  0 0.95742824E+02</rscale>
<asrwt>0</asrwt>
<pdfrwt beam="2">  1        1 0.30623308E-01 0.95742824E+02</pdfrwt>
<pdfrwt beam="1">  1       -1 0.17712247E-02 0.95742824E+02</pdfrwt>
<totfact> 0.10372014E+05</totfact>
</mgrwt>
</event>
<event>
 7    1  0.3607059E-009  0.9329268E+02  0.7818608E-02  0.1295068E+00
          1   -1    0    0  501    0  0.00000000000E+00  0.00000000000E+00  0.32966921892E+03  0.32966921895E+03  0.50400000000E-02 0. -1.
         -1   -1    0    0    0  501 -0.00000000000E+00 -0.00000000000E+00 -0.66001934183E+01  0.66001953426E+01  0.50400000000E-02 0.  1.
         23    2    1    2    0    0 -0.88817841970E-15  0.00000000000E+00  0.32306902550E+03  0.33626941430E+03  0.93292677932E+02 0.  0.
    9000005    2    3    3    0    0  0.68444529482E+01  0.10724881202E+02  0.32328621462E+03  0.32354476169E+03  0.23166006865E+01 0.  0.
         22    1    3    3    0    0 -0.68444529482E+01 -0.10724881202E+02 -0.21718912178E+00  0.12724652611E+02  0.00000000000E+00 0.  1.
         22    1    4    4    0    0  0.44600942184E+01  0.87590513944E+01  0.23972057160E+03  0.23992199956E+03  0.00000000000E+00 0.  1.
         22    1    4    4    0    0  0.23843587298E+01  0.19658298073E+01  0.83565643015E+02  0.83622762128E+02  0.00000000000E+00 0.  1.
<mgrwt>
<rscale>  0 0.93292678E+02</rscale>
<asrwt>0</asrwt>
<pdfrwt beam="1">  1        1 0.50718354E-01 0.93292678E+02</pdfrwt>
<pdfrwt beam="2">  1       -1 0.10154143E-02 0.93292678E+02</pdfrwt>
<totfact> 0.12267235E+05</totfact>
</mgrwt>
</event>
<event>
 7    1  0.3607059E-009  0.9081986E+02  0.7818608E-02  0.1300878E+00
          1   -1    0    0  501    0  0.00000000000E+00  0.00000000000E+00  0.47950444580E+02  0.47950444845E+02  0.50400000000E-02 0. -1.
         -1   -1    0    0    0  501 -0.00000000000E+00 -0.00000000000E+00 -0.43004017028E+02  0.43004017323E+02  0.50400000000E-02 0.  1.
         23    2    1    2    0    0  0.00000000000E+00  0.00000000000E+00  0.49464275526E+01  0.90954462169E+02  0.90819860399E+02 0.  0.
    9000005    2    3    3    0    0  0.86907588162E+01  0.20514320805E+02 -0.35744231886E+02  0.44563769003E+02  0.14557223214E+02 0.  0.
         22    1    3    3    0    0 -0.86907588162E+01 -0.20514320805E+02  0.40690659439E+02  0.46390693166E+02  0.00000000000E+00 0. -1.
         22    1    4    4    0    0  0.10567903049E+02  0.63807269672E+01 -0.15948919907E+02  0.20168348908E+02  0.00000000000E+00 0. -1.
         22    1    4    4    0    0 -0.18771442328E+01  0.14133593838E+02 -0.19795311979E+02  0.24395420094E+02  0.00000000000E+00 0. -1.
<mgrwt>
<rscale>  0 0.90819860E+02</rscale>
<asrwt>0</asrwt>
<pdfrwt beam="1">  1        1 0.73769915E-02 0.90819860E+02</pdfrwt>
<pdfrwt beam="2">  1       -1 0.66160026E-02 0.90819860E+02</pdfrwt>
<totfact> 0.94205439E+04</totfact>
</mgrwt>
</event>
<event>
 7    1  0.3607059E-009  0.7970282E+02  0.7818608E-02  0.1329897E+00
          1   -1    0    0  501    0  0.00000000000E+00  0.00000000000E+00  0.30957512781E+02  0.30957513191E+02  0.50400000000E-02 0. -1.
         -1   -1    0    0    0  501 -0.00000000000E+00 -0.00000000000E+00 -0.51300467761E+02  0.51300468008E+02  0.50400000000E-02 0.  1.
         23    2    1    2    0    0  0.00000000000E+00  0.00000000000E+00 -0.20342954980E+02  0.82257981199E+02  0.79702820864E+02 0.  0.
    9000005    2    3    3    0    0  0.42564215168E+01 -0.25600867854E+02  0.20739522000E+02  0.33664859527E+02  0.54473328533E+01 0.  0.
         22    1    3    3    0    0 -0.42564215168E+01  0.25600867854E+02 -0.41082476980E+02  0.48593121672E+02  0.00000000000E+00 0.  1.
         22    1    4    4    0    0  0.10710448091E+01 -0.19608984312E+02  0.14141583828E+02  0.24200078427E+02  0.00000000000E+00 0. -1.
         22    1    4    4    0    0  0.31853767077E+01 -0.59918835419E+01  0.65979381721E+01  0.94647811001E+01  0.00000000000E+00 0. -1.
<mgrwt>
<rscale>  0 0.79702821E+02</rscale>
<asrwt>0</asrwt>
<pdfrwt beam="1">  1        1 0.47626943E-02 0.79702821E+02</pdfrwt>
<pdfrwt beam="2">  1       -1 0.78923797E-02 0.79702821E+02</pdfrwt>
<totfact> 0.12744739E+05</totfact>
</mgrwt>
</event>
<event>
 6    1  0.3607059E-009  0.2079388E+03  0.7818608E-02  0.1143209E+00
          1   -1    0    0  501    0  0.00000000000E+00  0.00000000000E+00  0.85065596308E+03  0.85065596309E+03  0.50400000000E-02 0. -1.
         -1   -1    0    0    0  501 -0.00000000000E+00 -0.00000000000E+00 -0.12707407878E+02  0.12707408877E+02  0.50400000000E-02 0.  1.
    9000005    2    1    2    0    0 -0.14205131440E+02  0.28563889472E+02  0.82981256571E+03  0.83044110191E+03  0.50840910896E+01 0.  0.
         22    1    1    2    0    0  0.14205131440E+02 -0.28563889472E+02  0.81359894851E+01  0.32922270060E+02  0.00000000000E+00 0.  1.
         22    1    3    3    0    0 -0.51004715608E+01  0.69802912592E+01  0.27072301343E+03  0.27086101469E+03  0.00000000000E+00 0. -1.
         22    1    3    3    0    0 -0.91046598796E+01  0.21583598213E+02  0.55908955228E+03  0.55958008722E+03  0.00000000000E+00 0. -1.
<mgrwt>
<rscale>  0 0.20793877E+03</rscale>
<asrwt>0</asrwt>
<pdfrwt beam="1">  1        1 0.13087011E+00 0.20793877E+03</pdfrwt>
<pdfrwt beam="2">  1       -1 0.19549865E-02 0.20793877E+03</pdfrwt>
<totfact> 0.14574730E+04</totfact>
</mgrwt>
</event>
<event>
 7    1  0.3607059E-009  0.9143441E+02  0.7818608E-02  0.1299415E+00
          1   -1    0    0  501    0  0.00000000000E+00  0.00000000000E+00  0.39465350877E+02  0.39465351199E+02  0.50400000000E-02 0. -1.
         -1   -1    0    0    0  501 -0.00000000000E+00 -0.00000000000E+00 -0.52959433272E+02  0.52959433511E+02  0.50400000000E-02 0.  1.
         23    2    1    2    0    0  0.00000000000E+00  0.00000000000E+00 -0.13494082394E+02  0.92424784711E+02  0.91434405828E+02 0.  0.
    9000005    2    3    3    0    0  0.67800795504E+01 -0.30708564491E+02 -0.39682180987E+02  0.51500440859E+02  0.94145902175E+01 0.  0.
         22    1    3    3    0    0 -0.67800795504E+01  0.30708564491E+02  0.26188098593E+02  0.40924343852E+02  0.00000000000E+00 0. -1.
         22    1    4    4    0    0 -0.22139648194E+00 -0.19988266939E+02 -0.25314583594E+02  0.32255355744E+02  0.00000000000E+00 0. -1.
         22    1    4    4    0    0  0.70014760323E+01 -0.10720297552E+02 -0.14367597392E+02  0.19245085115E+02  0.00000000000E+00 0. -1.
<mgrwt>
<rscale>  0 0.91434406E+02</rscale>
<asrwt>0</asrwt>
<pdfrwt beam="1">  1        1 0.60715924E-02 0.91434406E+02</pdfrwt>
<pdfrwt beam="2">  1       -1 0.81476052E-02 0.91434406E+02</pdfrwt>
<totfact> 0.89758831E+04</totfact>
</mgrwt>
</event>
<event>
 7    1  0.3607059E-009  0.8824604E+02  0.7818608E-02  0.1307156E+00
         -1   -1    0    0    0  501 -0.00000000000E+00  0.00000000000E+00  0.58413722846E+02  0.58413723064E+02  0.50400000000E-02 0.  1.
          1   -1    0    0  501    0  0.00000000000E+00 -0.00000000000E+00 -0.33328488126E+02  0.33328488507E+02  0.50400000000E-02 0. -1.
         23    2    1    2    0    0  0.00000000000E+00  0.00000000000E+00  0.25085234721E+02  0.91742211571E+02  0.88246044574E+02 0.  0.
    9000005    2    3    3    0    0 -0.22030518437E+02  0.43394594961E+01  0.51166755936E+02  0.57326802227E+02  0.12812130550E+02 0.  0.
         22    1    3    3    0    0  0.22030518437E+02 -0.43394594961E+01 -0.26081521216E+02  0.34415409343E+02  0.00000000000E+00 0. -1.
         22    1    4    4    0    0 -0.21904310499E+02  0.70054520120E+01  0.43437105535E+02  0.49149336858E+02  0.00000000000E+00 0.  1.
         22    1    4    4    0    0 -0.12620793814E+00 -0.26659925159E+01  0.77296504014E+01  0.81774653693E+01  0.00000000000E+00 0.  1.
<mgrwt>
<rscale>  0 0.88246045E+02</rscale>
<asrwt>0</asrwt>
<pdfrwt beam="2">  1        1 0.51274598E-02 0.88246045E+02</pdfrwt>
<pdfrwt beam="1">  1       -1 0.89867266E-02 0.88246045E+02</pdfrwt>
<totfact> 0.96724809E+04</totfact>
</mgrwt>
</event>
<event>
 7    1  0.3607059E-009  0.9214803E+02  0.7818608E-02  0.1297732E+00
         -1   -1    0    0    0  501 -0.00000000000E+00  0.00000000000E+00  0.33089375919E+01  0.33089414303E+01  0.50400000000E-02 0. -1.
          1   -1    0    0  501    0  0.00000000000E+00 -0.00000000000E+00 -0.64153938857E+03  0.64153938859E+03  0.50400000000E-02 0.  1.
         23    2    1    2    0    0  0.00000000000E+00  0.35527136788E-14 -0.63823045098E+03  0.64484833002E+03  0.92148034021E+02 0.  0.
    9000005    2    3    3    0    0  0.34795349790E+02  0.26326732994E+02 -0.40763841275E+03  0.41016449732E+03  0.12728946321E+02 0.  0.
         22    1    3    3    0    0 -0.34795349790E+02 -0.26326732994E+02 -0.23059203822E+03  0.23468383270E+03  0.00000000000E+00 0. -1.
         22    1    4    4    0    0  0.13556926931E+02  0.57553841906E+01 -0.18240076016E+03  0.18299440434E+03  0.00000000000E+00 0.  1.
         22    1    4    4    0    0  0.21238422858E+02  0.20571348803E+02 -0.22523765260E+03  0.22717009298E+03  0.00000000000E+00 0.  1.
<mgrwt>
<rscale>  0 0.92148034E+02</rscale>
<asrwt>0</asrwt>
<pdfrwt beam="2">  1        1 0.98698269E-01 0.92148034E+02</pdfrwt>
<pdfrwt beam="1">  1       -1 0.50906813E-03 0.92148034E+02</pdfrwt>
<totfact> 0.13809820E+05</totfact>
</mgrwt>
</event>
<event>
 7    1  0.3607059E-009  0.9489181E+02  0.7818608E-02  0.1291420E+00
         -1   -1    0    0    0  501 -0.00000000000E+00  0.00000000000E+00  0.28829105659E+02  0.28829106100E+02  0.50400000000E-02 0.  1.
          1   -1    0    0  501    0  0.00000000000E+00 -0.00000000000E+00 -0.78084763651E+02  0.78084763813E+02  0.50400000000E-02 0. -1.
         23    2    1    2    0    0  0.00000000000E+00  0.00000000000E+00 -0.49255657992E+02  0.10691386991E+03  0.94891810688E+02 0.  0.
    9000005    2    3    3    0    0 -0.13540895841E+02 -0.28361514493E+02 -0.64597962727E+02  0.71940770549E+02  0.38530915197E+01 0.  0.
         22    1    3    3    0    0  0.13540895841E+02  0.28361514493E+02  0.15342304735E+02  0.34973099364E+02  0.00000000000E+00 0.  1.
         22    1    4    4    0    0 -0.38156692885E+01 -0.59041319177E+01 -0.11573095885E+02  0.13540851309E+02  0.00000000000E+00 0.  1.
         22    1    4    4    0    0 -0.97252265527E+01 -0.22457382576E+02 -0.53024866842E+02  0.58399919240E+02  0.00000000000E+00 0.  1.
<mgrwt>
<rscale>  0 0.94891811E+02</rscale>
<asrwt>0</asrwt>
<pdfrwt beam="2">  1        1 0.12013041E-01 0.94891811E+02</pdfrwt>
<pdfrwt beam="1">  1       -1 0.44352471E-02 0.94891811E+02</pdfrwt>
<totfact> 0.89895844E+04</totfact>
</mgrwt>
</event>
<event>
 6    1  0.3607059E-009  0.1306026E+03  0.7818608E-02  0.1226564E+00
          1   -1    0    0  501    0  0.00000000000E+00  0.00000000000E+00  0.56283591940E+02  0.56283592165E+02  0.50400000000E-02 0. -1.
         -1   -1    0    0    0  501 -0.00000000000E+00 -0.00000000000E+00 -0.75763863470E+02  0.75763863638E+02  0.50400000000E-02 0.  1.
    9000005    2    1    2    0    0 -0.33000725219E+02  0.18291466654E+02  0.43731961956E+02  0.58430799538E+02  0.88344904130E+01 0.  0.
         22    1    1    2    0    0  0.33000725219E+02 -0.18291466654E+02 -0.63212233486E+02  0.73616656265E+02  0.00000000000E+00 0.  1.
         22    1    3    3    0    0 -0.29356310417E+00  0.21080165044E+01  0.14315640716E+01  0.25650123918E+01  0.00000000000E+00 0.  1.
         22    1    3    3    0    0 -0.32707162114E+02  0.16183450150E+02  0.42300397884E+02  0.55865787147E+02  0.00000000000E+00 0.  1.
<mgrwt>
<rscale>  0 0.13060264E+03</rscale>
<asrwt>0</asrwt>
<pdfrwt beam="1">  1        1 0.86590141E-02 0.13060264E+03</pdfrwt>
<pdfrwt beam="2">  1       -1 0.11655979E-01 0.13060264E+03</pdfrwt>
<totfact> 0.34069838E+04</totfact>
</mgrwt>
</event>
<event>
 7    1  0.3607059E-009  0.9062036E+02  0.7818608E-02  0.1301356E+00
          1   -1    0    0  501    0  0.00000000000E+00  0.00000000000E+00  0.13801617751E+04  0.13801617751E+04  0.50400000000E-02 0. -1.
         -1   -1    0    0    0  501 -0.00000000000E+00 -0.00000000000E+00 -0.14875113373E+01  0.14875198756E+01  0.50400000000E-02 0.  1.
         23    2    1    2    0    0  0.00000000000E+00  0.00000000000E+00  0.13786742637E+04  0.13816492950E+04  0.90620355166E+02 0.  0.
    9000005    2    3    3    0    0  0.51878385924E+01  0.21748340631E+02  0.12894471045E+04  0.12896634812E+04  0.76259702450E+01 0.  0.
         22    1    3    3    0    0 -0.51878385924E+01 -0.21748340631E+02  0.89227159269E+02  0.91985813801E+02  0.00000000000E+00 0.  1.
         22    1    4    4    0    0 -0.18501801887E+00  0.11566133835E+02  0.78362734094E+03  0.78371271468E+03  0.00000000000E+00 0.  1.
         22    1    4    4    0    0  0.53728566113E+01  0.10182206795E+02  0.50581976354E+03  0.50595076648E+03  0.00000000000E+00 0.  1.
<mgrwt>
<rscale>  0 0.90620355E+02</rscale>
<asrwt>0</asrwt>
<pdfrwt beam="1">  1        1 0.21233221E+00 0.90620355E+02</pdfrwt>
<pdfrwt beam="2">  1       -1 0.22884896E-03 0.90620355E+02</pdfrwt>
<totfact> 0.11949705E+05</totfact>
</mgrwt>
</event>
<event>
 7    1  0.3607059E-009  0.9017930E+02  0.7818608E-02  0.1302418E+00
          1   -1    0    0  501    0  0.00000000000E+00  0.00000000000E+00  0.12652302954E+03  0.12652302964E+03  0.50400000000E-02 0. -1.
         -1   -1    0    0    0  501 -0.00000000000E+00 -0.00000000000E+00 -0.16068825553E+02  0.16068826343E+02  0.50400000000E-02 0.  1.
         23    2    1    2    0    0  0.00000000000E+00  0.00000000000E+00  0.11045420398E+03  0.14259185598E+03  0.90179300365E+02 0.  0.
    9000005    2    3    3    0    0  0.34646594578E+02  0.22033531668E+02  0.82391620329E+02  0.92858852502E+02  0.12187056823E+02 0.  0.
         22    1    3    3    0    0 -0.34646594578E+02 -0.22033531668E+02  0.28062583655E+02  0.49733003478E+02  0.00000000000E+00 0.  1.
         22    1    4    4    0    0  0.22058385896E+02  0.20206211139E+02  0.61715230321E+02  0.68583037337E+02  0.00000000000E+00 0. -1.
         22    1    4    4    0    0  0.12588208682E+02  0.18273205291E+01  0.20676390008E+02  0.24275815165E+02  0.00000000000E+00 0. -1.
<mgrwt>
<rscale>  0 0.90179300E+02</rscale>
<asrwt>0</asrwt>
<pdfrwt beam="1">  1        1 0.19465082E-01 0.90179300E+02</pdfrwt>
<pdfrwt beam="2">  1       -1 0.24721270E-02 0.90179300E+02</pdfrwt>
<totfact> 0.11202783E+05</totfact>
</mgrwt>
</event>
<event>
 7    1  0.3607059E-009  0.8901848E+02  0.7818608E-02  0.1305246E+00
          1   -1    0    0  501    0  0.00000000000E+00  0.00000000000E+00  0.72229055605E+02  0.72229055781E+02  0.50400000000E-02 0. -1.
         -1   -1    0    0    0  501 -0.00000000000E+00 -0.00000000000E+00 -0.27427635842E+02  0.27427636305E+02  0.50400000000E-02 0.  1.
         23    2    1    2    0    0  0.00000000000E+00  0.00000000000E+00  0.44801419763E+02  0.99656692086E+02  0.89018475975E+02 0.  0.
    9000005    2    3    3    0    0 -0.39397412876E+02 -0.10539728949E+02  0.69138467635E+01  0.43990632271E+02  0.14971052832E+02 0.  0.
         22    1    3    3    0    0  0.39397412876E+02  0.10539728949E+02  0.37887572999E+02  0.55666059816E+02  0.00000000000E+00 0. -1.
         22    1    4    4    0    0 -0.32104539684E+02 -0.62309871848E+01  0.11107923275E+02  0.34538567270E+02  0.00000000000E+00 0. -1.
         22    1    4    4    0    0 -0.72928731918E+01 -0.43087417645E+01 -0.41940765118E+01  0.94520650004E+01  0.00000000000E+00 0. -1.
<mgrwt>
<rscale>  0 0.89018476E+02</rscale>
<asrwt>0</asrwt>
<pdfrwt beam="1">  1        1 0.11112162E-01 0.89018476E+02</pdfrwt>
<pdfrwt beam="2">  1       -1 0.42196363E-02 0.89018476E+02</pdfrwt>
<totfact> 0.10589311E+05</totfact>
</mgrwt>
</event>
<event>
 7    1  0.3607059E-009  0.8941769E+02  0.7818608E-02  0.1304268E+00
         -1   -1    0    0    0  501 -0.00000000000E+00  0.00000000000E+00  0.17332305613E+03  0.17332305620E+03  0.50400000000E-02 0.  1.
          1   -1    0    0  501    0  0.00000000000E+00 -0.00000000000E+00 -0.11532687875E+02  0.11532688976E+02  0.50400000000E-02 0. -1.
         23    2    1    2    0    0 -0.35527136788E-14  0.00000000000E+00  0.16179036826E+03  0.18485574518E+03  0.89417689894E+02 0.  0.
    9000005    2    3    3    0    0  0.24151896622E+02  0.36013400079E+02  0.75024557204E+02  0.87857884054E+02  0.14492912445E+02 0.  0.
         22    1    3    3    0    0 -0.24151896622E+02 -0.36013400079E+02  0.86765811052E+02  0.96997861127E+02  0.00000000000E+00 0.  1.
         22    1    4    4    0    0  0.21009537513E+02  0.26831652590E+02  0.67366745297E+02  0.75495805308E+02  0.00000000000E+00 0. -1.
         22    1    4    4    0    0  0.31423591094E+01  0.91817474886E+01  0.76578119069E+01  0.12362078746E+02  0.00000000000E+00 0. -1.
<mgrwt>
<rscale>  0 0.89417690E+02</rscale>
<asrwt>0</asrwt>
<pdfrwt beam="2">  1        1 0.17742599E-02 0.89417690E+02</pdfrwt>
<pdfrwt beam="1">  1       -1 0.26665084E-01 0.89417690E+02</pdfrwt>
<totfact> 0.75926065E+04</totfact>
</mgrwt>
</event>
<event>
 7    1  0.3607059E-009  0.8969631E+02  0.7818608E-02  0.1303589E+00
         -1   -1    0    0    0  501 -0.00000000000E+00  0.00000000000E+00  0.11257404089E+01  0.11257516910E+01  0.50400000000E-02 0.  1.
          1   -1    0    0  501    0  0.00000000000E+00 -0.00000000000E+00 -0.17866879181E+04  0.17866879181E+04  0.50400000000E-02 0. -1.
         23    2    1    2    0    0  0.00000000000E+00  0.44408920985E-15 -0.17855621777E+04  0.17878136698E+04  0.89696307149E+02 0.  0.
    9000005    2    3    3    0    0  0.20215901524E+02  0.23091400992E+01 -0.16884356219E+04  0.16885786829E+04  0.83128780821E+01 0.  0.
         22    1    3    3    0    0 -0.20215901524E+02 -0.23091400992E+01 -0.97126555792E+02  0.99234986987E+02  0.00000000000E+00 0.  1.
         22    1    4    4    0    0  0.37380548258E+01  0.39112843853E+01 -0.39033641494E+03  0.39037390797E+03  0.00000000000E+00 0.  1.
         22    1    4    4    0    0  0.16477846698E+02 -0.16021442861E+01 -0.12980992070E+04  0.12982047749E+04  0.00000000000E+00 0.  1.
<mgrwt>
<rscale>  0 0.89696307E+02</rscale>
<asrwt>0</asrwt>
<pdfrwt beam="2">  1        1 0.27487280E+00 0.89696307E+02</pdfrwt>
<pdfrwt beam="1">  1       -1 0.17319313E-03 0.89696307E+02</pdfrwt>
<totfact> 0.96923964E+04</totfact>
</mgrwt>
</event>
<event>
 7    1  0.3998962E-009  0.8992426E+02  0.7818608E-02  0.1303035E+00
          1   -1    0    0  501    0  0.00000000000E+00  0.00000000000E+00  0.25498602758E+03  0.25498602763E+03  0.50400000000E-02 0. -1.
         -1   -1    0    0    0  501 -0.00000000000E+00 -0.00000000000E+00 -0.79282491771E+01  0.79282507790E+01  0.50400000000E-02 0.  1.
         23    2    1    2    0    0  0.00000000000E+00  0.00000000000E+00  0.24705777841E+03  0.26291427841E+03  0.89924256583E+02 0.  0.
    9000005    2    3    3    0    0 -0.20499733168E+02 -0.34634471445E+02  0.78572261647E+02  0.89688544094E+02  0.15831897211E+02 0.  0.
         22    1    3    3    0    0  0.20499733168E+02  0.34634471445E+02  0.16848551676E+03  0.17322573432E+03  0.00000000000E+00 0. -1.
         22    1    4    4    0    0 -0.14324476176E+02 -0.96276130037E+01  0.36148026899E+02  0.40056976903E+02  0.00000000000E+00 0. -1.
         22    1    4    4    0    0 -0.61752569915E+01 -0.25006858441E+02  0.42424234747E+02  0.49631567192E+02  0.00000000000E+00 0. -1.
<mgrwt>
<rscale>  0 0.89924257E+02</rscale>
<asrwt>0</asrwt>
<pdfrwt beam="1">  1        1 0.39228621E-01 0.89924257E+02</pdfrwt>
<pdfrwt beam="2">  1       -1 0.12197307E-02 0.89924257E+02</pdfrwt>
<totfact> 0.12881235E+05</totfact>
</mgrwt>
</event>
<event>
 7    1  0.3607059E-009  0.8995154E+02  0.7818608E-02  0.1302969E+00
         -1   -1    0    0    0  501 -0.00000000000E+00  0.00000000000E+00  0.45354682475E+02  0.45354682755E+02  0.50400000000E-02 0.  1.
          1   -1    0    0  501    0  0.00000000000E+00 -0.00000000000E+00 -0.44600024582E+02  0.44600024867E+02  0.50400000000E-02 0. -1.
         23    2    1    2    0    0  0.00000000000E+00  0.00000000000E+00  0.75465789317E+00  0.89954707622E+02  0.89951542037E+02 0.  0.
    9000005    2    3    3    0    0 -0.27089248012E+02  0.28464603204E+02 -0.19717468223E+02  0.45647045291E+02  0.12280602479E+02 0.  0.
         22    1    3    3    0    0  0.27089248012E+02 -0.28464603204E+02  0.20472126117E+02  0.44307662330E+02  0.00000000000E+00 0.  1.
         22    1    4    4    0    0 -0.26417704898E+02  0.28543288401E+02 -0.16311129531E+02  0.42174250335E+02  0.00000000000E+00 0. -1.
         22    1    4    4    0    0 -0.67154311481E+00 -0.78685196808E-01 -0.34063386928E+01  0.34727949558E+01  0.00000000000E+00 0. -1.
<mgrwt>
<rscale>  0 0.89951542E+02</rscale>
<asrwt>0</asrwt>
<pdfrwt beam="2">  1        1 0.68615423E-02 0.89951542E+02</pdfrwt>
<pdfrwt beam="1">  1       -1 0.69776435E-02 0.89951542E+02</pdfrwt>
<totfact> 0.95732297E+04</totfact>
</mgrwt>
</event>
<event>
 7    1  0.3607059E-009  0.9138812E+02  0.7818608E-02  0.1299525E+00
          1   -1    0    0  501    0  0.00000000000E+00  0.00000000000E+00  0.97941441063E+01  0.97941454031E+01  0.50400000000E-02 0. -1.
         -1   -1    0    0    0  501 -0.00000000000E+00 -0.00000000000E+00 -0.21318318709E+03  0.21318318715E+03  0.50400000000E-02 0.  1.
         23    2    1    2    0    0  0.00000000000E+00  0.00000000000E+00 -0.20338904299E+03  0.22297733255E+03  0.91388117535E+02 0.  0.
    9000005    2    3    3    0    0 -0.21296275258E+02  0.28474559736E+02 -0.17046381035E+03  0.17451701027E+03  0.11573432575E+02 0.  0.
         22    1    3    3    0    0  0.21296275258E+02 -0.28474559736E+02 -0.32925232631E+02  0.48460322283E+02  0.00000000000E+00 0.  1.
         22    1    4    4    0    0 -0.12908206078E+02  0.88949590938E+01 -0.59712670372E+02  0.61736092235E+02  0.00000000000E+00 0. -1.
         22    1    4    4    0    0 -0.83880691794E+01  0.19579600642E+02 -0.11075113998E+03  0.11278091804E+03  0.00000000000E+00 0. -1.
<mgrwt>
<rscale>  0 0.91388118E+02</rscale>
<asrwt>0</asrwt>
<pdfrwt beam="1">  1        1 0.15067917E-02 0.91388118E+02</pdfrwt>
<pdfrwt beam="2">  1       -1 0.32797410E-01 0.91388118E+02</pdfrwt>
<totfact> 0.67728426E+04</totfact>
</mgrwt>
</event>
<event>
 7    1  0.3607059E-009  0.9836089E+02  0.7818608E-02  0.1283781E+00
          1   -1    0    0  501    0  0.00000000000E+00  0.00000000000E+00  0.40713972244E+03  0.40713972247E+03  0.50400000000E-02 0. -1.
         -1   -1    0    0    0  501 -0.00000000000E+00 -0.00000000000E+00 -0.59407511340E+01  0.59407532720E+01  0.50400000000E-02 0.  1.
         23    2    1    2    0    0  0.00000000000E+00  0.17763568394E-14  0.40119897130E+03  0.41308047574E+03  0.98360890923E+02 0.  0.
    9000005    2    3    3    0    0  0.21110689305E+02 -0.15801503858E+02  0.37459029081E+03  0.37561888735E+03  0.87357792013E+01 0.  0.
         22    1    3    3    0    0 -0.21110689305E+02  0.15801503858E+02  0.26608680495E+02  0.37461588391E+02  0.00000000000E+00 0. -1.
         22    1    4    4    0    0  0.14617589380E+01  0.48326894727E+00  0.51226221311E+02  0.51249351585E+02  0.00000000000E+00 0. -1.
         22    1    4    4    0    0  0.19648930367E+02 -0.16284772806E+02  0.32336406950E+03  0.32436953576E+03  0.00000000000E+00 0. -1.
<mgrwt>
<rscale>  0 0.98360891E+02</rscale>
<asrwt>0</asrwt>
<pdfrwt beam="1">  1        1 0.62636905E-01 0.98360891E+02</pdfrwt>
<pdfrwt beam="2">  1       -1 0.91396152E-03 0.98360891E+02</pdfrwt>
<totfact> 0.11051584E+05</totfact>
</mgrwt>
</event>
<event>
 7    1  0.3607059E-009  0.9077019E+02  0.7818608E-02  0.1300997E+00
          1   -1    0    0  501    0  0.00000000000E+00  0.00000000000E+00  0.62082213727E+03  0.62082213729E+03  0.50400000000E-02 0. -1.
         -1   -1    0    0    0  501 -0.00000000000E+00 -0.00000000000E+00 -0.33178676089E+01  0.33178714369E+01  0.50400000000E-02 0.  1.
         23    2    1    2    0    0  0.00000000000E+00 -0.71054273576E-14  0.61750426966E+03  0.62414000873E+03  0.90770190285E+02 0.  0.
    9000005    2    3    3    0    0  0.22606763679E+02  0.38482646185E+02  0.35364586771E+03  0.35653351385E+03  0.76659589673E+01 0.  0.
         22    1    3    3    0    0 -0.22606763679E+02 -0.38482646185E+02  0.26385840195E+03  0.26760649488E+03  0.00000000000E+00 0.  1.
         22    1    4    4    0    0  0.21471228113E+02  0.38479049901E+02  0.34761333132E+03  0.35039503283E+03  0.00000000000E+00 0. -1.
         22    1    4    4    0    0  0.11355355662E+01  0.35962844542E-02  0.60325363870E+01  0.61384810186E+01  0.00000000000E+00 0. -1.
<mgrwt>
<rscale>  0 0.90770190E+02</rscale>
<asrwt>0</asrwt>
<pdfrwt beam="1">  1        1 0.95511036E-01 0.90770190E+02</pdfrwt>
<pdfrwt beam="2">  1       -1 0.51044180E-03 0.90770190E+02</pdfrwt>
<totfact> 0.14353115E+05</totfact>
</mgrwt>
</event>
<event>
 7    1  0.3607059E-009  0.1255580E+03  0.7818608E-02  0.1234200E+00
          1   -1    0    0  501    0  0.00000000000E+00  0.00000000000E+00  0.81572085268E+01  0.81572100839E+01  0.50400000000E-02 0. -1.
         -1   -1    0    0    0  501 -0.00000000000E+00 -0.00000000000E+00 -0.48315559959E+03  0.48315559961E+03  0.50400000000E-02 0.  1.
         23    2    1    2    0    0  0.00000000000E+00  0.00000000000E+00 -0.47499839106E+03  0.49131280970E+03  0.12555797650E+03 0.  0.
    9000005    2    3    3    0    0 -0.37521430081E+02 -0.49126181501E+02 -0.26282677811E+03  0.27031952300E+03  0.13171552603E+02 0.  0.
         22    1    3    3    0    0  0.37521430081E+02  0.49126181501E+02 -0.21217161295E+03  0.22099328669E+03  0.00000000000E+00 0.  1.
         22    1    4    4    0    0 -0.16687271649E+02 -0.25013983130E+02 -0.15468166005E+03  0.15757722025E+03  0.00000000000E+00 0.  1.
         22    1    4    4    0    0 -0.20834158433E+02 -0.24112198370E+02 -0.10814511807E+03  0.11274230275E+03  0.00000000000E+00 0.  1.
<mgrwt>
<rscale>  0 0.12555798E+03</rscale>
<asrwt>0</asrwt>
<pdfrwt beam="1">  1        1 0.12549557E-02 0.12555798E+03</pdfrwt>
<pdfrwt beam="2">  1       -1 0.74331608E-01 0.12555798E+03</pdfrwt>
<totfact> 0.20552259E+04</totfact>
</mgrwt>
</event>
<event>
 7    1  0.3607059E-009  0.1121123E+03  0.7818608E-02  0.1256708E+00
          1   -1    0    0  501    0  0.00000000000E+00  0.00000000000E+00  0.49122139725E+02  0.49122139984E+02  0.50400000000E-02 0. -1.
         -1   -1    0    0    0  501 -0.00000000000E+00 -0.00000000000E+00 -0.63968918224E+02  0.63968918423E+02  0.50400000000E-02 0.  1.
         23    2    1    2    0    0  0.00000000000E+00 -0.71054273576E-14 -0.14846778499E+02  0.11309105841E+03  0.11211226811E+03 0.  0.
    9000005    2    3    3    0    0  0.22691150298E+02  0.42710199616E+02  0.20668078092E+02  0.53088104381E+02  0.72199668773E+01 0.  0.
         22    1    3    3    0    0 -0.22691150298E+02 -0.42710199616E+02 -0.35514856590E+02  0.60002954025E+02  0.00000000000E+00 0.  1.
         22    1    4    4    0    0  0.14058290200E+02  0.31737791871E+02  0.12389351297E+02  0.36856735908E+02  0.00000000000E+00 0.  1.
         22    1    4    4    0    0  0.86328600979E+01  0.10972407745E+02  0.82787267944E+01  0.16231368474E+02  0.00000000000E+00 0.  1.
<mgrwt>
<rscale>  0 0.11211227E+03</rscale>
<asrwt>0</asrwt>
<pdfrwt beam="1">  1        1 0.75572523E-02 0.11211227E+03</pdfrwt>
<pdfrwt beam="2">  1       -1 0.98413720E-02 0.11211227E+03</pdfrwt>
<totfact> 0.51911590E+04</totfact>
</mgrwt>
</event>
<event>
 7    1  0.3607059E-009  0.9003028E+02  0.7818608E-02  0.1302778E+00
         -1   -1    0    0    0  501 -0.00000000000E+00  0.00000000000E+00  0.33375091207E+01  0.33375129261E+01  0.50400000000E-02 0.  1.
          1   -1    0    0  501    0  0.00000000000E+00 -0.00000000000E+00 -0.60714792952E+03  0.60714792954E+03  0.50400000000E-02 0. -1.
         23    2    1    2    0    0  0.35527136788E-14  0.35527136788E-14 -0.60381042040E+03  0.61048544247E+03  0.90030282024E+02 0.  0.
    9000005    2    3    3    0    0  0.23285420775E+02  0.17491595588E+02 -0.53270432052E+03  0.53364636271E+03  0.12505223040E+02 0.  0.
         22    1    3    3    0    0 -0.23285420775E+02 -0.17491595588E+02 -0.71106099885E+02  0.76839079756E+02  0.00000000000E+00 0.  1.
         22    1    4    4    0    0  0.81728785028E+01  0.12996214486E+02 -0.31352955872E+03  0.31390521137E+03  0.00000000000E+00 0.  1.
         22    1    4    4    0    0  0.15112542273E+02  0.44953811016E+01 -0.21917476180E+03  0.21974115134E+03  0.00000000000E+00 0.  1.
<mgrwt>
<rscale>  0 0.90030282E+02</rscale>
<asrwt>0</asrwt>
<pdfrwt beam="2">  1        1 0.93407286E-01 0.90030282E+02</pdfrwt>
<pdfrwt beam="1">  1       -1 0.51346372E-03 0.90030282E+02</pdfrwt>
<totfact> 0.14650528E+05</totfact>
</mgrwt>
</event>
<event>
 7    1  0.3607059E-009  0.9113605E+02  0.7818608E-02  0.1300124E+00
          1   -1    0    0  501    0  0.00000000000E+00  0.00000000000E+00  0.67734129323E+02  0.67734129511E+02  0.50400000000E-02 0. -1.
         -1   -1    0    0    0  501 -0.00000000000E+00 -0.00000000000E+00 -0.30655816810E+02  0.30655817225E+02  0.50400000000E-02 0.  1.
         23    2    1    2    0    0  0.00000000000E+00  0.00000000000E+00  0.37078312513E+02  0.98389946735E+02  0.91136054116E+02 0.  0.
    9000005    2    3    3    0    0 -0.16734810146E+02  0.30582882704E+02  0.49796334084E+02  0.61280451215E+02  0.77622308558E+01 0.  0.
         22    1    3    3    0    0  0.16734810146E+02 -0.30582882704E+02 -0.12718021571E+02  0.37109495520E+02  0.00000000000E+00 0.  1.
         22    1    4    4    0    0 -0.12767182491E+02  0.22083832546E+02  0.30030986686E+02  0.39402497002E+02  0.00000000000E+00 0.  1.
         22    1    4    4    0    0 -0.39676276553E+01  0.84990501578E+01  0.19765347398E+02  0.21877954213E+02  0.00000000000E+00 0.  1.
<mgrwt>
<rscale>  0 0.91136054E+02</rscale>
<asrwt>0</asrwt>
<pdfrwt beam="1">  1        1 0.10420635E-01 0.91136054E+02</pdfrwt>
<pdfrwt beam="2">  1       -1 0.47162795E-02 0.91136054E+02</pdfrwt>
<totfact> 0.98289852E+04</totfact>
</mgrwt>
</event>
<event>
 7    1  0.3607059E-009  0.1041263E+03  0.7818608E-02  0.1271851E+00
          1   -1    0    0  501    0  0.00000000000E+00  0.00000000000E+00  0.12553097055E+03  0.12553097065E+03  0.50400000000E-02 0. -1.
         -1   -1    0    0    0  501 -0.00000000000E+00 -0.00000000000E+00 -0.21592832788E+02  0.21592833376E+02  0.50400000000E-02 0.  1.
         23    2    1    2    0    0  0.00000000000E+00  0.00000000000E+00  0.10393813776E+03  0.14712380403E+03  0.10412625620E+03 0.  0.
    9000005    2    3    3    0    0 -0.85148659096E+00  0.51058574096E+02  0.65059007858E+02  0.82942110686E+02  0.62462951846E+01 0.  0.
         22    1    3    3    0    0  0.85148659096E+00 -0.51058574096E+02  0.38879129904E+02  0.64181693341E+02  0.00000000000E+00 0. -1.
         22    1    4    4    0    0 -0.12363910733E+00  0.24283218240E+02  0.35967995481E+02  0.43398003106E+02  0.00000000000E+00 0.  1.
         22    1    4    4    0    0 -0.72784748363E+00  0.26775355855E+02  0.29091012377E+02  0.39544107580E+02  0.00000000000E+00 0.  1.
<mgrwt>
<rscale>  0 0.10412626E+03</rscale>
<asrwt>0</asrwt>
<pdfrwt beam="1">  1        1 0.19312458E-01 0.10412626E+03</pdfrwt>
<pdfrwt beam="2">  1       -1 0.33219742E-02 0.10412626E+03</pdfrwt>
<totfact> 0.75538618E+04</totfact>
</mgrwt>
</event>
<event>
 7    1  0.3607059E-009  0.9047817E+02  0.7818608E-02  0.1301698E+00
         -1   -1    0    0    0  501 -0.00000000000E+00  0.00000000000E+00  0.54848043517E+01  0.54848066673E+01  0.50400000000E-02 0.  1.
          1   -1    0    0  501    0  0.00000000000E+00 -0.00000000000E+00 -0.37313535225E+03  0.37313535228E+03  0.50400000000E-02 0. -1.
         23    2    1    2    0    0 -0.71054273576E-14 -0.17763568394E-14 -0.36765054789E+03  0.37862015895E+03  0.90478170817E+02 0.  0.
    9000005    2    3    3    0    0 -0.28265645449E+02 -0.15094099597E+02 -0.31525406672E+03  0.31720216651E+03  0.14328618258E+02 0.  0.
         22    1    3    3    0    0  0.28265645449E+02  0.15094099597E+02 -0.52396481173E+02  0.61417992434E+02  0.00000000000E+00 0.  1.
         22    1    4    4    0    0 -0.29671634752E+02 -0.13731046307E+02 -0.28169250744E+03  0.28358352612E+03  0.00000000000E+00 0. -1.
         22    1    4    4    0    0  0.14059893024E+01 -0.13630532903E+01 -0.33561559285E+02  0.33618640392E+02  0.00000000000E+00 0. -1.
<mgrwt>
<rscale>  0 0.90478171E+02</rscale>
<asrwt>0</asrwt>
<pdfrwt beam="2">  1        1 0.57405419E-01 0.90478171E+02</pdfrwt>
<pdfrwt beam="1">  1       -1 0.84381652E-03 0.90478171E+02</pdfrwt>
<totfact> 0.13607042E+05</totfact>
</mgrwt>
</event>
<event>
 7    1  0.3607059E-009  0.9199130E+02  0.7818608E-02  0.1298100E+00
          1   -1    0    0  501    0  0.00000000000E+00  0.00000000000E+00  0.11451570429E+03  0.11451570440E+03  0.50400000000E-02 0. -1.
         -1   -1    0    0    0  501 -0.00000000000E+00 -0.00000000000E+00 -0.18474318809E+02  0.18474319497E+02  0.50400000000E-02 0.  1.
         23    2    1    2    0    0  0.00000000000E+00  0.00000000000E+00  0.96041385483E+02  0.13299002390E+03  0.91991297042E+02 0.  0.
    9000005    2    3    3    0    0  0.16287294798E+02 -0.25659213899E+02  0.97132850353E+02  0.10257847140E+03  0.12801599429E+02 0.  0.
         22    1    3    3    0    0 -0.16287294798E+02  0.25659213899E+02 -0.10914648696E+01  0.30411552497E+02  0.00000000000E+00 0.  1.
         22    1    4    4    0    0  0.37035824358E+01 -0.79454058142E+01  0.48868842563E+02  0.49648864739E+02  0.00000000000E+00 0.  1.
         22    1    4    4    0    0  0.12583712362E+02 -0.17713808085E+02  0.48264007790E+02  0.52929606664E+02  0.00000000000E+00 0.  1.
<mgrwt>
<rscale>  0 0.91991297E+02</rscale>
<asrwt>0</asrwt>
<pdfrwt beam="1">  1        1 0.17617801E-01 0.91991297E+02</pdfrwt>
<pdfrwt beam="2">  1       -1 0.28422030E-02 0.91991297E+02</pdfrwt>
<totfact> 0.10431820E+05</totfact>
</mgrwt>
</event>
<event>
 7    1  0.3607059E-009  0.1122934E+03  0.7818608E-02  0.1256381E+00
          1   -1    0    0  501    0  0.00000000000E+00  0.00000000000E+00  0.22228316610E+03  0.22228316615E+03  0.50400000000E-02 0. -1.
         -1   -1    0    0    0  501 -0.00000000000E+00 -0.00000000000E+00 -0.14182152864E+02  0.14182153760E+02  0.50400000000E-02 0.  1.
         23    2    1    2    0    0 -0.71054273576E-14  0.00000000000E+00  0.20810101323E+03  0.23646531991E+03  0.11229343620E+03 0.  0.
    9000005    2    3    3    0    0  0.49242299573E+02  0.10624045603E+01  0.47519881261E+02  0.68500345244E+02  0.28679980397E+01 0.  0.
         22    1    3    3    0    0 -0.49242299573E+02 -0.10624045603E+01  0.16058113197E+03  0.16796497467E+03  0.00000000000E+00 0.  1.
         22    1    4    4    0    0  0.41140645502E+02  0.17017827010E+01  0.38713546802E+02  0.56517143263E+02  0.00000000000E+00 0. -1.
         22    1    4    4    0    0  0.81016540714E+01 -0.63937814070E+00  0.88063344591E+01  0.11983201980E+02  0.00000000000E+00 0. -1.
<mgrwt>
<rscale>  0 0.11229344E+03</rscale>
<asrwt>0</asrwt>
<pdfrwt beam="1">  1        1 0.34197408E-01 0.11229344E+03</pdfrwt>
<pdfrwt beam="2">  1       -1 0.21818699E-02 0.11229344E+03</pdfrwt>
<totfact> 0.68747691E+04</totfact>
</mgrwt>
</event>
<event>
 7    1  0.3607059E-009  0.9218708E+02  0.7818608E-02  0.1297640E+00
         -1   -1    0    0    0  501 -0.00000000000E+00  0.00000000000E+00  0.61970664881E+02  0.61970665086E+02  0.50400000000E-02 0.  1.
          1   -1    0    0  501    0  0.00000000000E+00 -0.00000000000E+00 -0.34284197346E+02  0.34284197716E+02  0.50400000000E-02 0. -1.
         23    2    1    2    0    0 -0.35527136788E-14  0.00000000000E+00  0.27686467536E+02  0.96254862802E+02  0.92187082221E+02 0.  0.
    9000005    2    3    3    0    0 -0.29549309829E+02 -0.28818700258E+02  0.34235061441E+02  0.54462958346E+02  0.95128967230E+01 0.  0.
         22    1    3    3    0    0  0.29549309829E+02  0.28818700258E+02 -0.65485939051E+01  0.41791904456E+02  0.00000000000E+00 0. -1.
         22    1    4    4    0    0 -0.11254139386E+02 -0.16887209743E+02  0.13712609737E+02  0.24492226767E+02  0.00000000000E+00 0.  1.
         22    1    4    4    0    0 -0.18295170443E+02 -0.11931490515E+02  0.20522451704E+02  0.29970731579E+02  0.00000000000E+00 0.  1.
<mgrwt>
<rscale>  0 0.92187082E+02</rscale>
<asrwt>0</asrwt>
<pdfrwt beam="2">  1        1 0.52744920E-02 0.92187082E+02</pdfrwt>
<pdfrwt beam="1">  1       -1 0.95339485E-02 0.92187082E+02</pdfrwt>
<totfact> 0.85797335E+04</totfact>
</mgrwt>
</event>
<event>
 7    1  0.3607059E-009  0.9261668E+02  0.7818608E-02  0.1296636E+00
          1   -1    0    0  501    0  0.00000000000E+00  0.00000000000E+00  0.83269072745E+02  0.83269072897E+02  0.50400000000E-02 0. -1.
         -1   -1    0    0    0  501 -0.00000000000E+00 -0.00000000000E+00 -0.25753408615E+02  0.25753409109E+02  0.50400000000E-02 0.  1.
         23    2    1    2    0    0  0.17763568394E-14 -0.88817841970E-15  0.57515664129E+02  0.10902248201E+03  0.92616682960E+02 0.  0.
    9000005    2    3    3    0    0  0.11866120540E+02 -0.76230771418E+01 -0.21806593784E+02  0.28456132193E+02  0.11632188320E+02 0.  0.
         22    1    3    3    0    0 -0.11866120540E+02  0.76230771418E+01  0.79322257914E+02  0.80566349814E+02  0.00000000000E+00 0. -1.
         22    1    4    4    0    0  0.80384016228E+01 -0.59183419937E+01 -0.22106009949E+02  0.24255274653E+02  0.00000000000E+00 0.  1.
         22    1    4    4    0    0  0.38277189168E+01 -0.17047351481E+01  0.29941616494E+00  0.42008575400E+01  0.00000000000E+00 0.  1.
<mgrwt>
<rscale>  0 0.92616683E+02</rscale>
<asrwt>0</asrwt>
<pdfrwt beam="1">  1        1 0.12810627E-01 0.92616683E+02</pdfrwt>
<pdfrwt beam="2">  1       -1 0.39620629E-02 0.92616683E+02</pdfrwt>
<totfact> 0.97114953E+04</totfact>
</mgrwt>
</event>
<event>
 7    1  0.3607059E-009  0.8942205E+02  0.7818608E-02  0.1304257E+00
         -1   -1    0    0    0  501 -0.00000000000E+00  0.00000000000E+00  0.15016723432E+02  0.15016724278E+02  0.50400000000E-02 0.  1.
          1   -1    0    0  501    0  0.00000000000E+00 -0.00000000000E+00 -0.13312330107E+03  0.13312330116E+03  0.50400000000E-02 0. -1.
         23    2    1    2    0    0 -0.35527136788E-14  0.00000000000E+00 -0.11810657764E+03  0.14814002544E+03  0.89422052407E+02 0.  0.
    9000005    2    3    3    0    0 -0.18753437027E+02 -0.10833071124E+02  0.17812257918E+01  0.26311735454E+02  0.14835357326E+02 0.  0.
         22    1    3    3    0    0  0.18753437027E+02  0.10833071124E+02 -0.11988780343E+03  0.12182828999E+03  0.00000000000E+00 0. -1.
         22    1    4    4    0    0 -0.98972354267E+01 -0.13226526964E+02 -0.14554863920E+01  0.16583567929E+02  0.00000000000E+00 0. -1.
         22    1    4    4    0    0 -0.88562016000E+01  0.23934558397E+01  0.32367121837E+01  0.97281675251E+01  0.00000000000E+00 0. -1.
<mgrwt>
<rscale>  0 0.89422052E+02</rscale>
<asrwt>0</asrwt>
<pdfrwt beam="2">  1        1 0.20480507E-01 0.89422052E+02</pdfrwt>
<pdfrwt beam="1">  1       -1 0.23102653E-02 0.89422052E+02</pdfrwt>
<totfact> 0.11564237E+05</totfact>
</mgrwt>
</event>
<event>
 6    1  0.3607059E-009  0.2460414E+03  0.7818608E-02  0.1115832E+00
         -1   -1    0    0    0  501 -0.00000000000E+00  0.00000000000E+00  0.41020809256E+02  0.41020809566E+02  0.50400000000E-02 0.  1.
          1   -1    0    0  501    0  0.00000000000E+00 -0.00000000000E+00 -0.36893694329E+03  0.36893694333E+03  0.50400000000E-02 0. -1.
    9000005    2    1    2    0    0 -0.11718843840E+03 -0.37256777291E+02 -0.16632775235E+03  0.20690110404E+03  0.46848798835E+01 0.  0.
         22    1    1    2    0    0  0.11718843840E+03  0.37256777291E+02 -0.16158838168E+03  0.20305664886E+03  0.00000000000E+00 0. -1.
         22    1    3    3    0    0 -0.21413717260E+02 -0.59834991119E+01 -0.27402584972E+02  0.35288117145E+02  0.00000000000E+00 0. -1.
         22    1    3    3    0    0 -0.95774721143E+02 -0.31273278179E+02 -0.13892516738E+03  0.17161298689E+03  0.00000000000E+00 0. -1.
<mgrwt>
<rscale>  0 0.24604140E+03</rscale>
<asrwt>0</asrwt>
<pdfrwt beam="2">  1        1 0.56759527E-01 0.24604140E+03</pdfrwt>
<pdfrwt beam="1">  1       -1 0.63108940E-02 0.24604140E+03</pdfrwt>
<totfact> 0.82170913E+03</totfact>
</mgrwt>
</event>
<event>
 7    1  0.3607059E-009  0.9084857E+02  0.7818608E-02  0.1300810E+00
          1   -1    0    0  501    0  0.00000000000E+00  0.00000000000E+00  0.96830747127E+01  0.96830760243E+01  0.50400000000E-02 0. -1.
         -1   -1    0    0    0  501 -0.00000000000E+00 -0.00000000000E+00 -0.21308988657E+03  0.21308988663E+03  0.50400000000E-02 0.  1.
         23    2    1    2    0    0  0.00000000000E+00  0.00000000000E+00 -0.20340681186E+03  0.22277296266E+03  0.90848565094E+02 0.  0.
    9000005    2    3    3    0    0 -0.86839168735E+01  0.30900712638E+02 -0.30286938254E+02  0.46702649738E+02  0.15283141364E+02 0.  0.
         22    1    3    3    0    0  0.86839168735E+01 -0.30900712638E+02 -0.17311987361E+03  0.17607031292E+03  0.00000000000E+00 0.  1.
         22    1    4    4    0    0 -0.87064244487E+01  0.28825635064E+02 -0.19860206811E+02  0.36071413586E+02  0.00000000000E+00 0. -1.
         22    1    4    4    0    0  0.22507575212E-01  0.20750775737E+01 -0.10426731443E+02  0.10631236152E+02  0.00000000000E+00 0. -1.
<mgrwt>
<rscale>  0 0.90848565E+02</rscale>
<asrwt>0</asrwt>
<pdfrwt beam="1">  1        1 0.14897041E-02 0.90848565E+02</pdfrwt>
<pdfrwt beam="2">  1       -1 0.32783056E-01 0.90848565E+02</pdfrwt>
<totfact> 0.68791482E+04</totfact>
</mgrwt>
</event>
<event>
 7    1  0.3607059E-009  0.8992855E+02  0.7818608E-02  0.1303025E+00
         -1   -1    0    0    0  501 -0.00000000000E+00  0.00000000000E+00  0.20117913470E+02  0.20117914102E+02  0.50400000000E-02 0.  1.
          1   -1    0    0  501    0  0.00000000000E+00 -0.00000000000E+00 -0.10049680796E+03  0.10049680809E+03  0.50400000000E-02 0. -1.
         23    2    1    2    0    0  0.00000000000E+00  0.71054273576E-14 -0.80378894490E+02  0.12061472219E+03  0.89928552358E+02 0.  0.
    9000005    2    3    3    0    0  0.19706462572E+02 -0.38894015713E+02 -0.54497628400E+02  0.69910392395E+02  0.40475101185E+01 0.  0.
         22    1    3    3    0    0 -0.19706462572E+02  0.38894015713E+02 -0.25881266090E+02  0.50704329793E+02  0.00000000000E+00 0.  1.
         22    1    4    4    0    0  0.51982994105E+00 -0.34125055633E+01 -0.42416456373E+01  0.54687270090E+01  0.00000000000E+00 0.  1.
         22    1    4    4    0    0  0.19186632631E+02 -0.35481510150E+02 -0.50255982763E+02  0.64441665386E+02  0.00000000000E+00 0.  1.
<mgrwt>
<rscale>  0 0.89928552E+02</rscale>
<asrwt>0</asrwt>
<pdfrwt beam="2">  1        1 0.15461047E-01 0.89928552E+02</pdfrwt>
<pdfrwt beam="1">  1       -1 0.30950637E-02 0.89928552E+02</pdfrwt>
<totfact> 0.10853396E+05</totfact>
</mgrwt>
</event>
<event>
 7    1  0.3607059E-009  0.9191696E+02  0.7818608E-02  0.1298275E+00
         -1   -1    0    0    0  501 -0.00000000000E+00  0.00000000000E+00  0.38777835582E+01  0.38777868334E+01  0.50400000000E-02 0.  1.
          1   -1    0    0  501    0  0.00000000000E+00 -0.00000000000E+00 -0.54468774132E+03  0.54468774134E+03  0.50400000000E-02 0. -1.
         23    2    1    2    0    0  0.00000000000E+00  0.00000000000E+00 -0.54080995776E+03  0.54856552818E+03  0.91916964100E+02 0.  0.
    9000005    2    3    3    0    0  0.37413504515E+02 -0.24569726279E+02 -0.29664195919E+03  0.30032884012E+03  0.14054127071E+02 0.  0.
         22    1    3    3    0    0 -0.37413504515E+02  0.24569726279E+02 -0.24416799857E+03  0.24823668805E+03  0.00000000000E+00 0.  1.
         22    1    4    4    0    0  0.36680432835E+02 -0.19444214452E+02 -0.27187601797E+03  0.27502745459E+03  0.00000000000E+00 0. -1.
         22    1    4    4    0    0  0.73307168007E+00 -0.51255118264E+01 -0.24765941218E+02  0.25301385535E+02  0.00000000000E+00 0. -1.
<mgrwt>
<rscale>  0 0.91916964E+02</rscale>
<asrwt>0</asrwt>
<pdfrwt beam="2">  1        1 0.83798054E-01 0.91916964E+02</pdfrwt>
<pdfrwt beam="1">  1       -1 0.59658277E-03 0.91916964E+02</pdfrwt>
<totfact> 0.13755612E+05</totfact>
</mgrwt>
</event>
<event>
 7    1  0.3607059E-009  0.9111719E+02  0.7818608E-02  0.1300169E+00
          1   -1    0    0  501    0  0.00000000000E+00  0.00000000000E+00  0.13766974685E+03  0.13766974694E+03  0.50400000000E-02 0. -1.
         -1   -1    0    0    0  501 -0.00000000000E+00 -0.00000000000E+00 -0.15076555169E+02  0.15076556012E+02  0.50400000000E-02 0.  1.
         23    2    1    2    0    0  0.00000000000E+00  0.00000000000E+00  0.12259319168E+03  0.15274630296E+03  0.91117190583E+02 0.  0.
    9000005    2    3    3    0    0  0.82837172118E+00 -0.19339655606E+02  0.13004823077E+03  0.13200296459E+03  0.11727397606E+02 0.  0.
         22    1    3    3    0    0 -0.82837172118E+00  0.19339655606E+02 -0.74550390920E+01  0.20743338365E+02  0.00000000000E+00 0.  1.
         22    1    4    4    0    0 -0.24650297032E+01 -0.17979778383E+02  0.11947610570E+03  0.12084654995E+03  0.00000000000E+00 0. -1.
         22    1    4    4    0    0  0.32934014244E+01 -0.13598772221E+01  0.10572125077E+02  0.11156414641E+02  0.00000000000E+00 0. -1.
<mgrwt>
<rscale>  0 0.91117191E+02</rscale>
<asrwt>0</asrwt>
<pdfrwt beam="1">  1        1 0.21179960E-01 0.91117191E+02</pdfrwt>
<pdfrwt beam="2">  1       -1 0.23194702E-02 0.91117191E+02</pdfrwt>
<totfact> 0.11059035E+05</totfact>
</mgrwt>
</event>
<event>
 7    1  0.3607059E-009  0.9221970E+02  0.7818608E-02  0.1297564E+00
         -1   -1    0    0    0  501 -0.00000000000E+00  0.00000000000E+00  0.68377516265E+01  0.68377534840E+01  0.50400000000E-02 0.  1.
          1   -1    0    0  501    0  0.00000000000E+00 -0.00000000000E+00 -0.31093813944E+03  0.31093813948E+03  0.50400000000E-02 0. -1.
         23    2    1    2    0    0  0.00000000000E+00  0.35527136788E-14 -0.30410038781E+03  0.31777589296E+03  0.92219695734E+02 0.  0.
    9000005    2    3    3    0    0  0.32299096775E+02 -0.31904402623E+02 -0.16492961588E+03  0.17138727893E+03  0.10521341391E+02 0.  0.
         22    1    3    3    0    0 -0.32299096775E+02  0.31904402623E+02 -0.13917077193E+03  0.14638861403E+03  0.00000000000E+00 0. -1.
         22    1    4    4    0    0  0.16934452750E+02 -0.95822394207E+01 -0.72726624389E+02  0.75284506356E+02  0.00000000000E+00 0.  1.
         22    1    4    4    0    0  0.15364644025E+02 -0.22322163202E+02 -0.92202991491E+02  0.96102772572E+02  0.00000000000E+00 0.  1.
<mgrwt>
<rscale>  0 0.92219696E+02</rscale>
<asrwt>0</asrwt>
<pdfrwt beam="2">  1        1 0.47836626E-01 0.92219696E+02</pdfrwt>
<pdfrwt beam="1">  1       -1 0.10519622E-02 0.92219696E+02</pdfrwt>
<totfact> 0.12514163E+05</totfact>
</mgrwt>
</event>
<event>
 7    1  0.3607059E-009  0.8027101E+02  0.7818608E-02  0.1328284E+00
          1   -1    0    0  501    0  0.00000000000E+00  0.00000000000E+00  0.20686416978E+03  0.20686416984E+03  0.50400000000E-02 0. -1.
         -1   -1    0    0    0  501 -0.00000000000E+00 -0.00000000000E+00 -0.77870354623E+01  0.77870370933E+01  0.50400000000E-02 0.  1.
         23    2    1    2    0    0  0.00000000000E+00  0.71054273576E-14  0.19907713432E+03  0.21465120694E+03  0.80271011146E+02 0.  0.
    9000005    2    3    3    0    0  0.36736956383E+01  0.32440308738E+02  0.15996729508E+03  0.16370565565E+03  0.12005687219E+02 0.  0.
         22    1    3    3    0    0 -0.36736956383E+01 -0.32440308738E+02  0.39109839239E+02  0.50945551287E+02  0.00000000000E+00 0.  1.
         22    1    4    4    0    0 -0.35180983886E+01  0.12816625860E+02  0.48083751406E+02  0.49886772435E+02  0.00000000000E+00 0. -1.
         22    1    4    4    0    0  0.71917940270E+01  0.19623682878E+02  0.11188354367E+03  0.11381888321E+03  0.00000000000E+00 0. -1.
<mgrwt>
<rscale>  0 0.80271011E+02</rscale>
<asrwt>0</asrwt>
<pdfrwt beam="1">  1        1 0.31825254E-01 0.80271011E+02</pdfrwt>
<pdfrwt beam="2">  1       -1 0.11980057E-02 0.80271011E+02</pdfrwt>
<totfact> 0.16726564E+05</totfact>
</mgrwt>
</event>
<event>
 7    1  0.3607059E-009  0.9080926E+02  0.7818608E-02  0.1300904E+00
          1   -1    0    0  501    0  0.00000000000E+00  0.00000000000E+00  0.25345361265E+03  0.25345361270E+03  0.50400000000E-02 0. -1.
         -1   -1    0    0    0  501 -0.00000000000E+00 -0.00000000000E+00 -0.81339542973E+01  0.81339558587E+01  0.50400000000E-02 0.  1.
         23    2    1    2    0    0  0.00000000000E+00 -0.35527136788E-14  0.24531965836E+03  0.26158756856E+03  0.90809257514E+02 0.  0.
    9000005    2    3    3    0    0  0.29479698923E+02  0.29839188267E+02  0.16549084173E+03  0.17140957918E+03  0.15316505257E+02 0.  0.
         22    1    3    3    0    0 -0.29479698923E+02 -0.29839188267E+02  0.79828816626E+02  0.90177989382E+02  0.00000000000E+00 0.  1.
         22    1    4    4    0    0  0.14898883272E+00  0.48291869088E+01  0.35402618191E+02  0.35730779710E+02  0.00000000000E+00 0. -1.
         22    1    4    4    0    0  0.29330710091E+02  0.25010001358E+02  0.13008822354E+03  0.13567879947E+03  0.00000000000E+00 0. -1.
<mgrwt>
<rscale>  0 0.90809258E+02</rscale>
<asrwt>0</asrwt>
<pdfrwt beam="1">  1        1 0.38992857E-01 0.90809258E+02</pdfrwt>
<pdfrwt beam="2">  1       -1 0.12513779E-02 0.90809258E+02</pdfrwt>
<totfact> 0.12534535E+05</totfact>
</mgrwt>
</event>
<event>
 7    1  0.3607059E-009  0.9116732E+02  0.7818608E-02  0.1300049E+00
         -1   -1    0    0    0  501 -0.00000000000E+00  0.00000000000E+00  0.13500048770E+03  0.13500048780E+03  0.50400000000E-02 0.  1.
          1   -1    0    0  501    0  0.00000000000E+00 -0.00000000000E+00 -0.15391574321E+02  0.15391575146E+02  0.50400000000E-02 0. -1.
         23    2    1    2    0    0  0.00000000000E+00  0.00000000000E+00  0.11960891338E+03  0.15039206294E+03  0.91167321096E+02 0.  0.
    9000005    2    3    3    0    0  0.40790435291E+02 -0.17844481236E+02  0.51922286014E+02  0.69374999022E+02  0.11605239446E+02 0.  0.
         22    1    3    3    0    0 -0.40790435291E+02  0.17844481236E+02  0.67686627369E+02  0.81017063921E+02  0.00000000000E+00 0.  1.
         22    1    4    4    0    0  0.63205120665E+01 -0.30962274306E+01  0.15871648114E+02  0.17362163199E+02  0.00000000000E+00 0.  1.
         22    1    4    4    0    0  0.34469923225E+02 -0.14748253805E+02  0.36050637900E+02  0.52012835824E+02  0.00000000000E+00 0.  1.
<mgrwt>
<rscale>  0 0.91167321E+02</rscale>
<asrwt>0</asrwt>
<pdfrwt beam="2">  1        1 0.23679346E-02 0.91167321E+02</pdfrwt>
<pdfrwt beam="1">  1       -1 0.20769305E-01 0.91167321E+02</pdfrwt>
<totfact> 0.76616003E+04</totfact>
</mgrwt>
</event>
<event>
 7    1  0.3607059E-009  0.9075480E+02  0.7818608E-02  0.1301034E+00
          1   -1    0    0  501    0  0.00000000000E+00  0.00000000000E+00  0.23700407308E+04  0.23700407308E+04  0.50400000000E-02 0. -1.
         -1   -1    0    0    0  501 -0.00000000000E+00 -0.00000000000E+00 -0.86879982117E+00  0.86881443983E+00  0.50400000000E-02 0.  1.
         23    2    1    2    0    0  0.88817841970E-15 -0.17763568394E-14  0.23691719310E+04  0.23709095453E+04  0.90754797101E+02 0.  0.
    9000005    2    3    3    0    0  0.73394130984E+01 -0.95201066784E+01  0.23264204679E+04  0.23265002330E+04  0.15054614937E+02 0.  0.
         22    1    3    3    0    0 -0.73394130984E+01  0.95201066784E+01  0.42751463131E+02  0.44409312263E+02  0.00000000000E+00 0.  1.
         22    1    4    4    0    0 -0.29820522934E+01 -0.69771644388E+01  0.13630475536E+04  0.13630686728E+04  0.00000000000E+00 0. -1.
         22    1    4    4    0    0  0.10321465392E+02 -0.25429422396E+01  0.96337291425E+03  0.96343156016E+03  0.00000000000E+00 0. -1.
<mgrwt>
<rscale>  0 0.90754797E+02</rscale>
<asrwt>0</asrwt>
<pdfrwt beam="1">  1        1 0.36462138E+00 0.90754797E+02</pdfrwt>
<pdfrwt beam="2">  1       -1 0.13366273E-03 0.90754797E+02</pdfrwt>
<totfact> 0.59596267E+04</totfact>
</mgrwt>
</event>
<event>
 7    1  0.3607059E-009  0.9172621E+02  0.7818608E-02  0.1298724E+00
         -1   -1    0    0    0  501 -0.00000000000E+00  0.00000000000E+00  0.93662184901E+02  0.93662185037E+02  0.50400000000E-02 0.  1.
          1   -1    0    0  501    0  0.00000000000E+00 -0.00000000000E+00 -0.22457560110E+02  0.22457560676E+02  0.50400000000E-02 0. -1.
         23    2    1    2    0    0  0.00000000000E+00  0.00000000000E+00  0.71204624791E+02  0.11611974571E+03  0.91726205376E+02 0.  0.
    9000005    2    3    3    0    0 -0.20690820498E+02 -0.33528839693E+02  0.10099576660E+02  0.43414037194E+02  0.15181700587E+02 0.  0.
         22    1    3    3    0    0  0.20690820498E+02  0.33528839693E+02  0.61105048131E+02  0.72705708518E+02  0.00000000000E+00 0. -1.
         22    1    4    4    0    0 -0.10146364681E+02 -0.20429028989E+02  0.13141479467E+02  0.26324749272E+02  0.00000000000E+00 0.  1.
         22    1    4    4    0    0 -0.10544455818E+02 -0.13099810704E+02 -0.30419028074E+01  0.17089287922E+02  0.00000000000E+00 0.  1.
<mgrwt>
<rscale>  0 0.91726205E+02</rscale>
<asrwt>0</asrwt>
<pdfrwt beam="2">  1        1 0.34550093E-02 0.91726205E+02</pdfrwt>
<pdfrwt beam="1">  1       -1 0.14409567E-01 0.91726205E+02</pdfrwt>
<totfact> 0.81088838E+04</totfact>
</mgrwt>
</event>
<event>
 7    1  0.3607059E-009  0.9238238E+02  0.7818608E-02  0.1297183E+00
          1   -1    0    0  501    0  0.00000000000E+00  0.00000000000E+00  0.39286590413E+01  0.39286622742E+01  0.50400000000E-02 0. -1.
         -1   -1    0    0    0  501 -0.00000000000E+00 -0.00000000000E+00 -0.54309250330E+03  0.54309250332E+03  0.50400000000E-02 0.  1.
         23    2    1    2    0    0  0.00000000000E+00  0.00000000000E+00 -0.53916384426E+03  0.54702116560E+03  0.92382382822E+02 0.  0.
    9000005    2    3    3    0    0 -0.34735082708E+02  0.80603459461E+01 -0.44135438963E+03  0.44291456369E+03  0.10397996386E+02 0.  0.
         22    1    3    3    0    0  0.34735082708E+02 -0.80603459461E+01 -0.97809454623E+02  0.10410660191E+03  0.00000000000E+00 0. -1.
         22    1    4    4    0    0 -0.16731592319E+02  0.49690390934E+01 -0.27671370616E+03  0.27726361591E+03  0.00000000000E+00 0.  1.
         22    1    4    4    0    0 -0.18003490389E+02  0.30913068528E+01 -0.16464068348E+03  0.16565094778E+03  0.00000000000E+00 0.  1.
<mgrwt>
<rscale>  0 0.92382383E+02</rscale>
<asrwt>0</asrwt>
<pdfrwt beam="1">  1        1 0.60440976E-03 0.92382383E+02</pdfrwt>
<pdfrwt beam="2">  1       -1 0.83552634E-01 0.92382383E+02</pdfrwt>
<totfact> 0.43101733E+04</totfact>
</mgrwt>
</event>
<event>
 7    1  0.3607059E-009  0.9172552E+02  0.7818608E-02  0.1298726E+00
          1   -1    0    0  501    0  0.00000000000E+00  0.00000000000E+00  0.22210846022E+03  0.22210846028E+03  0.50400000000E-02 0. -1.
         -1   -1    0    0    0  501 -0.00000000000E+00 -0.00000000000E+00 -0.94701152581E+01  0.94701165993E+01  0.50400000000E-02 0.  1.
         23    2    1    2    0    0  0.00000000000E+00  0.00000000000E+00  0.21263834497E+03  0.23157857688E+03  0.91725522730E+02 0.  0.
    9000005    2    3    3    0    0  0.15967370330E+02 -0.37266039390E+02  0.15630789038E+03  0.16217515678E+03  0.14997008912E+02 0.  0.
         22    1    3    3    0    0 -0.15967370330E+02  0.37266039390E+02  0.56330454589E+02  0.69403420098E+02  0.00000000000E+00 0.  1.
         22    1    4    4    0    0  0.12485366422E+01 -0.19941128577E+01  0.32908297257E+02  0.32992292406E+02  0.00000000000E+00 0. -1.
         22    1    4    4    0    0  0.14718833687E+02 -0.35271926533E+02  0.12339959312E+03  0.12918286438E+03  0.00000000000E+00 0. -1.
<mgrwt>
<rscale>  0 0.91725523E+02</rscale>
<asrwt>0</asrwt>
<pdfrwt beam="1">  1        1 0.34170532E-01 0.91725523E+02</pdfrwt>
<pdfrwt beam="2">  1       -1 0.14569410E-02 0.91725523E+02</pdfrwt>
<totfact> 0.11892062E+05</totfact>
</mgrwt>
</event>
<event>
 7    1  0.3607059E-009  0.9302311E+02  0.7818608E-02  0.1295692E+00
          1   -1    0    0  501    0  0.00000000000E+00  0.00000000000E+00  0.11677204154E+02  0.11677205242E+02  0.50400000000E-02 0. -1.
         -1   -1    0    0    0  501 -0.00000000000E+00 -0.00000000000E+00 -0.18526050750E+03  0.18526050757E+03  0.50400000000E-02 0.  1.
         23    2    1    2    0    0  0.00000000000E+00  0.00000000000E+00 -0.17358330334E+03  0.19693771281E+03  0.93023112860E+02 0.  0.
    9000005    2    3    3    0    0  0.20274860985E+02 -0.23303944362E+02 -0.16039223057E+03  0.16334979516E+03  0.18286993677E+01 0.  0.
         22    1    3    3    0    0 -0.20274860985E+02  0.23303944362E+02 -0.13191072772E+02  0.33587917644E+02  0.00000000000E+00 0. -1.
         22    1    4    4    0    0  0.11077001159E+02 -0.11498314057E+02 -0.80550524702E+02  0.82117587706E+02  0.00000000000E+00 0.  1.
         22    1    4    4    0    0  0.91978598265E+01 -0.11805630305E+02 -0.79841705870E+02  0.81232207458E+02  0.00000000000E+00 0.  1.
<mgrwt>
<rscale>  0 0.93023113E+02</rscale>
<asrwt>0</asrwt>
<pdfrwt beam="1">  1        1 0.17964932E-02 0.93023113E+02</pdfrwt>
<pdfrwt beam="2">  1       -1 0.28501614E-01 0.93023113E+02</pdfrwt>
<totfact> 0.67308906E+04</totfact>
</mgrwt>
</event>
<event>
 7    1  0.3607059E-009  0.9094077E+02  0.7818608E-02  0.1300589E+00
          1   -1    0    0  501    0  0.00000000000E+00  0.00000000000E+00  0.26132434676E+01  0.26132483277E+01  0.50400000000E-02 0. -1.
         -1   -1    0    0    0  501 -0.00000000000E+00 -0.00000000000E+00 -0.79118313147E+03  0.79118313148E+03  0.50400000000E-02 0.  1.
         23    2    1    2    0    0 -0.35527136788E-14  0.00000000000E+00 -0.78856988800E+03  0.79379637981E+03  0.90940773811E+02 0.  0.
    9000005    2    3    3    0    0  0.24997607881E+02 -0.13503908884E+02 -0.70410174197E+03  0.70467789885E+03  0.21076359728E+01 0.  0.
         22    1    3    3    0    0 -0.24997607881E+02  0.13503908884E+02 -0.84468146032E+02  0.89118480962E+02  0.00000000000E+00 0. -1.
         22    1    4    4    0    0  0.19781055651E+02 -0.99507010492E+01 -0.53283841425E+03  0.53329830519E+03  0.00000000000E+00 0.  1.
         22    1    4    4    0    0  0.52165522301E+01 -0.35532078349E+01 -0.17126332771E+03  0.17137959366E+03  0.00000000000E+00 0.  1.
<mgrwt>
<rscale>  0 0.90940774E+02</rscale>
<asrwt>0</asrwt>
<pdfrwt beam="1">  1        1 0.40203846E-03 0.90940774E+02</pdfrwt>
<pdfrwt beam="2">  1       -1 0.12172029E+00 0.90940774E+02</pdfrwt>
<totfact> 0.33228292E+04</totfact>
</mgrwt>
</event>
<event>
 7    1  0.3607059E-009  0.1099697E+03  0.7818608E-02  0.1260626E+00
         -1   -1    0    0    0  501 -0.00000000000E+00  0.00000000000E+00  0.15280168399E+02  0.15280169230E+02  0.50400000000E-02 0.  1.
          1   -1    0    0  501    0  0.00000000000E+00 -0.00000000000E+00 -0.19786011146E+03  0.19786011152E+03  0.50400000000E-02 0. -1.
         23    2    1    2    0    0  0.00000000000E+00  0.00000000000E+00 -0.18257994306E+03  0.21314028075E+03  0.10996973980E+03 0.  0.
    9000005    2    3    3    0    0 -0.28314344489E+02  0.23205796872E+02 -0.17032128306E+03  0.17453346973E+03  0.10601013221E+02 0.  0.
         22    1    3    3    0    0  0.28314344489E+02 -0.23205796872E+02 -0.12258660004E+02  0.38606811024E+02  0.00000000000E+00 0.  1.
         22    1    4    4    0    0 -0.94106726447E+01  0.14503758481E+02 -0.79578837593E+02  0.81435318888E+02  0.00000000000E+00 0. -1.
         22    1    4    4    0    0 -0.18903671845E+02  0.87020383916E+01 -0.90742445463E+02  0.93098150840E+02  0.00000000000E+00 0. -1.
<mgrwt>
<rscale>  0 0.10996974E+03</rscale>
<asrwt>0</asrwt>
<pdfrwt beam="2">  1        1 0.30440015E-01 0.10996974E+03</pdfrwt>
<pdfrwt beam="1">  1       -1 0.23507954E-02 0.10996974E+03</pdfrwt>
<totfact> 0.71084891E+04</totfact>
</mgrwt>
</event>
<event>
 7    1  0.3607059E-009  0.8821753E+02  0.7818608E-02  0.1307227E+00
          1   -1    0    0  501    0  0.00000000000E+00  0.00000000000E+00  0.17253490281E+03  0.17253490289E+03  0.50400000000E-02 0. -1.
         -1   -1    0    0    0  501 -0.00000000000E+00 -0.00000000000E+00 -0.11276461173E+02  0.11276462299E+02  0.50400000000E-02 0.  1.
         23    2    1    2    0    0  0.00000000000E+00  0.00000000000E+00  0.16125844164E+03  0.18381136519E+03  0.88217532109E+02 0.  0.
    9000005    2    3    3    0    0 -0.10749429707E+02 -0.40831713867E+02  0.10129658392E+03  0.11047512941E+03  0.12687679387E+02 0.  0.
         22    1    3    3    0    0  0.10749429707E+02  0.40831713867E+02  0.59961857717E+02  0.73336235772E+02  0.00000000000E+00 0.  1.
         22    1    4    4    0    0 -0.10663764720E+02 -0.17423267556E+02  0.53125706806E+02  0.56917720035E+02  0.00000000000E+00 0.  1.
         22    1    4    4    0    0 -0.85664986653E-01 -0.23408446311E+02  0.48170877117E+02  0.53557409379E+02  0.00000000000E+00 0.  1.
<mgrwt>
<rscale>  0 0.88217532E+02</rscale>
<asrwt>0</asrwt>
<pdfrwt beam="1">  1        1 0.26543828E-01 0.88217532E+02</pdfrwt>
<pdfrwt beam="2">  1       -1 0.17348405E-02 0.88217532E+02</pdfrwt>
<totfact> 0.12574795E+05</totfact>
</mgrwt>
</event>
<event>
 7    1  0.3607059E-009  0.9328625E+02  0.7818608E-02  0.1295083E+00
          1   -1    0    0  501    0  0.00000000000E+00  0.00000000000E+00  0.63388704874E+02  0.63388705074E+02  0.50400000000E-02 0. -1.
         -1   -1    0    0    0  501 -0.00000000000E+00 -0.00000000000E+00 -0.34321272301E+02  0.34321272672E+02  0.50400000000E-02 0.  1.
         23    2    1    2    0    0  0.17763568394E-14  0.00000000000E+00  0.29067432572E+02  0.97709977746E+02  0.93286248262E+02 0.  0.
    9000005    2    3    3    0    0  0.14169452381E+02  0.16353669487E+02 -0.27732704820E+02  0.36927813468E+02  0.11240311582E+02 0.  0.
         22    1    3    3    0    0 -0.14169452381E+02 -0.16353669487E+02  0.56800137392E+02  0.60782164277E+02  0.00000000000E+00 0. -1.
         22    1    4    4    0    0  0.96239540762E+01  0.15569674541E+02 -0.15964300386E+02  0.24287736498E+02  0.00000000000E+00 0. -1.
         22    1    4    4    0    0  0.45454983043E+01  0.78399494674E+00 -0.11768404434E+02  0.12640076971E+02  0.00000000000E+00 0. -1.
<mgrwt>
<rscale>  0 0.93286248E+02</rscale>
<asrwt>0</asrwt>
<pdfrwt beam="1">  1        1 0.97521083E-02 0.93286248E+02</pdfrwt>
<pdfrwt beam="2">  1       -1 0.52801959E-02 0.93286248E+02</pdfrwt>
<totfact> 0.91201621E+04</totfact>
</mgrwt>
</event>
<event>
 7    1  0.3607059E-009  0.9079890E+02  0.7818608E-02  0.1300928E+00
          1   -1    0    0  501    0  0.00000000000E+00  0.00000000000E+00  0.97427250283E+01  0.97427263319E+01  0.50400000000E-02 0. -1.
         -1   -1    0    0    0  501 -0.00000000000E+00 -0.00000000000E+00 -0.21155375502E+03  0.21155375508E+03  0.50400000000E-02 0.  1.
         23    2    1    2    0    0  0.00000000000E+00  0.71054273576E-14 -0.20181102999E+03  0.22129648141E+03  0.90798903403E+02 0.  0.
    9000005    2    3    3    0    0  0.14892727450E+02  0.40647182992E+02 -0.78210071572E+02  0.90333953419E+02  0.13016183347E+02 0.  0.
         22    1    3    3    0    0 -0.14892727450E+02 -0.40647182992E+02 -0.12360095842E+03  0.13096252800E+03  0.00000000000E+00 0. -1.
         22    1    4    4    0    0  0.12070732614E+02  0.34731920304E+02 -0.54567984964E+02  0.65800257270E+02  0.00000000000E+00 0.  1.
         22    1    4    4    0    0  0.28219948358E+01  0.59152626882E+01 -0.23642086609E+02  0.24533696149E+02  0.00000000000E+00 0.  1.
<mgrwt>
<rscale>  0 0.90798903E+02</rscale>
<asrwt>0</asrwt>
<pdfrwt beam="1">  1        1 0.14988810E-02 0.90798903E+02</pdfrwt>
<pdfrwt beam="2">  1       -1 0.32546728E-01 0.90798903E+02</pdfrwt>
<totfact> 0.69038605E+04</totfact>
</mgrwt>
</event>
<event>
 7    1  0.3607059E-009  0.9050593E+02  0.7818608E-02  0.1301631E+00
         -1   -1    0    0    0  501 -0.00000000000E+00  0.00000000000E+00  0.90522811670E+02  0.90522811810E+02  0.50400000000E-02 0.  1.
          1   -1    0    0  501    0  0.00000000000E+00 -0.00000000000E+00 -0.22622260259E+02  0.22622260821E+02  0.50400000000E-02 0. -1.
         23    2    1    2    0    0  0.00000000000E+00  0.00000000000E+00  0.67900551411E+02  0.11314507263E+03  0.90505925655E+02 0.  0.
    9000005    2    3    3    0    0 -0.22331398831E+02 -0.25962184403E+02  0.69534894438E+02  0.78861002425E+02  0.14533745775E+02 0.  0.
         22    1    3    3    0    0  0.22331398831E+02  0.25962184403E+02 -0.16343430276E+01  0.34284070205E+02  0.00000000000E+00 0. -1.
         22    1    4    4    0    0 -0.65140264142E+01  0.12842853173E+00  0.15370786594E+02  0.16694613339E+02  0.00000000000E+00 0. -1.
         22    1    4    4    0    0 -0.15817372417E+02 -0.26090612935E+02  0.54164107844E+02  0.62166389086E+02  0.00000000000E+00 0. -1.
<mgrwt>
<rscale>  0 0.90505926E+02</rscale>
<asrwt>0</asrwt>
<pdfrwt beam="2">  1        1 0.34803479E-02 0.90505926E+02</pdfrwt>
<pdfrwt beam="1">  1       -1 0.13926586E-01 0.90505926E+02</pdfrwt>
<totfact> 0.84442586E+04</totfact>
</mgrwt>
</event>
<event>
 7    1  0.3607059E-009  0.9523750E+02  0.7818608E-02  0.1290642E+00
         -1   -1    0    0    0  501 -0.00000000000E+00  0.00000000000E+00  0.58567608483E+01  0.58567630168E+01  0.50400000000E-02 0.  1.
          1   -1    0    0  501    0  0.00000000000E+00 -0.00000000000E+00 -0.38716707434E+03  0.38716707437E+03  0.50400000000E-02 0. -1.
         23    2    1    2    0    0  0.00000000000E+00  0.00000000000E+00 -0.38131031349E+03  0.39302383739E+03  0.95237500919E+02 0.  0.
    9000005    2    3    3    0    0  0.11560317266E+02 -0.27398785337E+02 -0.34393901826E+03  0.34526456519E+03  0.54071550276E+01 0.  0.
         22    1    3    3    0    0 -0.11560317266E+02  0.27398785337E+02 -0.37371295237E+02  0.47759272198E+02  0.00000000000E+00 0.  1.
         22    1    4    4    0    0  0.30427837020E+01 -0.38207303308E+01 -0.40968059765E+02  0.41258192324E+02  0.00000000000E+00 0. -1.
         22    1    4    4    0    0  0.85175335639E+01 -0.23578055006E+02 -0.30297095849E+03  0.30400637287E+03  0.00000000000E+00 0. -1.
<mgrwt>
<rscale>  0 0.95237501E+02</rscale>
<asrwt>0</asrwt>
<pdfrwt beam="2">  1        1 0.59564145E-01 0.95237501E+02</pdfrwt>
<pdfrwt beam="1">  1       -1 0.90104061E-03 0.95237501E+02</pdfrwt>
<totfact> 0.11946352E+05</totfact>
</mgrwt>
</event>
<event>
 7    1  0.3607059E-009  0.9205378E+02  0.7818608E-02  0.1297953E+00
         -1   -1    0    0    0  501 -0.00000000000E+00  0.00000000000E+00  0.20647974165E+03  0.20647974171E+03  0.50400000000E-02 0.  1.
          1   -1    0    0  501    0  0.00000000000E+00 -0.00000000000E+00 -0.10259961781E+02  0.10259963019E+02  0.50400000000E-02 0. -1.
         23    2    1    2    0    0  0.22204460493E-15  0.71054273576E-14  0.19621977987E+03  0.21673970473E+03  0.92053775559E+02 0.  0.
    9000005    2    3    3    0    0 -0.87865871305E+00 -0.33604745871E+02  0.24519917471E+02  0.41780012990E+02  0.37804955323E+01 0.  0.
         22    1    3    3    0    0  0.87865871305E+00  0.33604745871E+02  0.17169986240E+03  0.17495969174E+03  0.00000000000E+00 0.  1.
         22    1    4    4    0    0  0.13578246382E+01 -0.13072172565E+02  0.86597042690E+01  0.15738991751E+02  0.00000000000E+00 0. -1.
         22    1    4    4    0    0 -0.22364833513E+01 -0.20532573306E+02  0.15860213202E+02  0.26041021239E+02  0.00000000000E+00 0. -1.
<mgrwt>
<rscale>  0 0.92053776E+02</rscale>
<asrwt>0</asrwt>
<pdfrwt beam="2">  1        1 0.15784558E-02 0.92053776E+02</pdfrwt>
<pdfrwt beam="1">  1       -1 0.31766113E-01 0.92053776E+02</pdfrwt>
<totfact> 0.67090107E+04</totfact>
</mgrwt>
</event>
<event>
 7    1  0.3736433E-009  0.9200724E+02  0.7818608E-02  0.1298062E+00
         -1   -1    0    0    0  501 -0.00000000000E+00  0.00000000000E+00  0.29765163838E+02  0.29765164265E+02  0.50400000000E-02 0.  1.
          1   -1    0    0  501    0  0.00000000000E+00 -0.00000000000E+00 -0.71100996383E+02  0.71100996562E+02  0.50400000000E-02 0. -1.
         23    2    1    2    0    0  0.00000000000E+00  0.17763568394E-14 -0.41335832545E+02  0.10086616083E+03  0.92007235300E+02 0.  0.
    9000005    2    3    3    0    0  0.33629377898E+01  0.12729772434E+02  0.25668737667E+02  0.32580226065E+02  0.15140362619E+02 0.  0.
         22    1    3    3    0    0 -0.33629377898E+01 -0.12729772434E+02 -0.67004570213E+02  0.68285934761E+02  0.00000000000E+00 0. -1.
         22    1    4    4    0    0  0.40480589437E+01  0.64015259805E+01  0.16756935269E+01  0.77572072865E+01  0.00000000000E+00 0. -1.
         22    1    4    4    0    0 -0.68512115388E+00  0.63282464535E+01  0.23993044140E+02  0.24823018779E+02  0.00000000000E+00 0. -1.
<mgrwt>
<rscale>  0 0.92007235E+02</rscale>
<asrwt>0</asrwt>
<pdfrwt beam="2">  1        1 0.10938615E-01 0.92007235E+02</pdfrwt>
<pdfrwt beam="1">  1       -1 0.45792560E-02 0.92007235E+02</pdfrwt>
<totfact> 0.96460288E+04</totfact>
</mgrwt>
</event>
<event>
 7    1  0.3607059E-009  0.8824701E+02  0.7818608E-02  0.1307153E+00
         -1   -1    0    0    0  501 -0.00000000000E+00  0.00000000000E+00  0.36989238674E+02  0.36989239017E+02  0.50400000000E-02 0.  1.
          1   -1    0    0  501    0  0.00000000000E+00 -0.00000000000E+00 -0.52633790593E+02  0.52633790834E+02  0.50400000000E-02 0. -1.
         23    2    1    2    0    0  0.00000000000E+00  0.00000000000E+00 -0.15644551919E+02  0.89623029851E+02  0.88247013972E+02 0.  0.
    9000005    2    3    3    0    0  0.44573132862E+01  0.30981136609E+02  0.23209375351E+02  0.39729882710E+02  0.77517745508E+01 0.  0.
         22    1    3    3    0    0 -0.44573132862E+01 -0.30981136609E+02 -0.38853927270E+02  0.49893147141E+02  0.00000000000E+00 0. -1.
         22    1    4    4    0    0  0.13652984801E+01  0.99554547947E+01  0.32138205677E+01  0.10550059846E+02  0.00000000000E+00 0.  1.
         22    1    4    4    0    0  0.30920148060E+01  0.21025681814E+02  0.19995554783E+02  0.29179822864E+02  0.00000000000E+00 0.  1.
<mgrwt>
<rscale>  0 0.88247014E+02</rscale>
<asrwt>0</asrwt>
<pdfrwt beam="2">  1        1 0.80975063E-02 0.88247014E+02</pdfrwt>
<pdfrwt beam="1">  1       -1 0.56906522E-02 0.88247014E+02</pdfrwt>
<totfact> 0.10346735E+05</totfact>
</mgrwt>
</event>
<event>
 7    1  0.3607059E-009  0.1181223E+03  0.7818608E-02  0.1246227E+00
          1   -1    0    0  501    0  0.00000000000E+00  0.00000000000E+00  0.11599133567E+04  0.11599133567E+04  0.50400000000E-02 0. -1.
         -1   -1    0    0    0  501 -0.00000000000E+00 -0.00000000000E+00 -0.30073089157E+01  0.30073131390E+01  0.50400000000E-02 0.  1.
         23    2    1    2    0    0 -0.71054273576E-14  0.00000000000E+00  0.11569060478E+04  0.11629206698E+04  0.11812231357E+03 0.  0.
    9000005    2    3    3    0    0  0.43404935462E+02  0.28393493906E+02  0.85003043072E+03  0.85169274169E+03  0.11773452223E+02 0.  0.
         22    1    3    3    0    0 -0.43404935462E+02 -0.28393493906E+02  0.30687561706E+03  0.31122792815E+03  0.00000000000E+00 0.  1.
         22    1    4    4    0    0  0.19610641458E+02  0.70586241290E+01  0.28677341547E+03  0.28752981281E+03  0.00000000000E+00 0.  1.
         22    1    4    4    0    0  0.23794294004E+02  0.21334869777E+02  0.56325701525E+03  0.56416292888E+03  0.00000000000E+00 0.  1.
<mgrwt>
<rscale>  0 0.11812231E+03</rscale>
<asrwt>0</asrwt>
<pdfrwt beam="1">  1        1 0.17844814E+00 0.11812231E+03</pdfrwt>
<pdfrwt beam="2">  1       -1 0.46266343E-03 0.11812231E+03</pdfrwt>
<totfact> 0.64640663E+04</totfact>
</mgrwt>
</event>
<event>
 7    1  0.3607059E-009  0.9386845E+02  0.7818608E-02  0.1293745E+00
          1   -1    0    0  501    0  0.00000000000E+00  0.00000000000E+00  0.71085922170E+03  0.71085922172E+03  0.50400000000E-02 0. -1.
         -1   -1    0    0    0  501 -0.00000000000E+00 -0.00000000000E+00 -0.30988130795E+01  0.30988171781E+01  0.50400000000E-02 0.  1.
         23    2    1    2    0    0  0.00000000000E+00  0.00000000000E+00  0.70776040863E+03  0.71395803890E+03  0.93868446741E+02 0.  0.
    9000005    2    3    3    0    0 -0.40259708302E+02  0.11333746534E+02  0.50938840833E+03  0.51122484373E+03  0.11179999214E+02 0.  0.
         22    1    3    3    0    0  0.40259708302E+02 -0.11333746534E+02  0.19837200029E+03  0.20273319517E+03  0.00000000000E+00 0.  1.
         22    1    4    4    0    0 -0.96624820966E+01  0.11471000983E+01  0.72856090822E+02  0.73502988843E+02  0.00000000000E+00 0.  1.
         22    1    4    4    0    0 -0.30597226206E+02  0.10186646436E+02  0.43653231751E+03  0.43772185489E+03  0.00000000000E+00 0.  1.
<mgrwt>
<rscale>  0 0.93868447E+02</rscale>
<asrwt>0</asrwt>
<pdfrwt beam="1">  1        1 0.10936299E+00 0.93868447E+02</pdfrwt>
<pdfrwt beam="2">  1       -1 0.47674063E-03 0.93868447E+02</pdfrwt>
<totfact> 0.13160368E+05</totfact>
</mgrwt>
</event>
<event>
 7    1  0.3607059E-009  0.9177037E+02  0.7818608E-02  0.1298620E+00
         -1   -1    0    0    0  501 -0.00000000000E+00  0.00000000000E+00  0.73394691852E+02  0.73394692025E+02  0.50400000000E-02 0.  1.
          1   -1    0    0  501    0  0.00000000000E+00 -0.00000000000E+00 -0.28686681836E+02  0.28686682279E+02  0.50400000000E-02 0. -1.
         23    2    1    2    0    0  0.00000000000E+00  0.00000000000E+00  0.44708010016E+02  0.10208137430E+03  0.91770370056E+02 0.  0.
    9000005    2    3    3    0    0 -0.87859065806E+01 -0.16969747010E+02  0.68315786387E+02  0.71708827930E+02  0.10485459711E+02 0.  0.
         22    1    3    3    0    0  0.87859065806E+01  0.16969747010E+02 -0.23607776371E+02  0.30372546374E+02  0.00000000000E+00 0. -1.
         22    1    4    4    0    0 -0.29678888324E+01 -0.12986816334E+00  0.40732519815E+01  0.50414890227E+01  0.00000000000E+00 0.  1.
         22    1    4    4    0    0 -0.58180177482E+01 -0.16839878847E+02  0.64242534406E+02  0.66667338907E+02  0.00000000000E+00 0.  1.
<mgrwt>
<rscale>  0 0.91770370E+02</rscale>
<asrwt>0</asrwt>
<pdfrwt beam="2">  1        1 0.44133357E-02 0.91770370E+02</pdfrwt>
<pdfrwt beam="1">  1       -1 0.11291491E-01 0.91770370E+02</pdfrwt>
<totfact> 0.84461692E+04</totfact>
</mgrwt>
</event>
<event>
 7    1  0.3607059E-009  0.8611911E+02  0.7818608E-02  0.1312532E+00
         -1   -1    0    0    0  501 -0.00000000000E+00  0.00000000000E+00  0.52057670770E+02  0.52057671014E+02  0.50400000000E-02 0.  1.
          1   -1    0    0  501    0  0.00000000000E+00 -0.00000000000E+00 -0.35616756015E+02  0.35616756372E+02  0.50400000000E-02 0. -1.
         23    2    1    2    0    0  0.00000000000E+00  0.17763568394E-14  0.16440914755E+02  0.87674427386E+02  0.86119112510E+02 0.  0.
    9000005    2    3    3    0    0  0.32368991343E+02  0.10826226365E+02  0.34686937310E+02  0.48972022850E+02  0.54878615329E+01 0.  0.
         22    1    3    3    0    0 -0.32368991343E+02 -0.10826226365E+02 -0.18246022555E+02  0.38702404537E+02  0.00000000000E+00 0. -1.
         22    1    4    4    0    0  0.56506750565E+01  0.20307534403E+01  0.93647046668E+01  0.11124377809E+02  0.00000000000E+00 0. -1.
         22    1    4    4    0    0  0.26718316286E+02  0.87954729243E+01  0.25322232643E+02  0.37847645041E+02  0.00000000000E+00 0. -1.
<mgrwt>
<rscale>  0 0.86119113E+02</rscale>
<asrwt>0</asrwt>
<pdfrwt beam="2">  1        1 0.54795010E-02 0.86119113E+02</pdfrwt>
<pdfrwt beam="1">  1       -1 0.80088724E-02 0.86119113E+02</pdfrwt>
<totfact> 0.10464902E+05</totfact>
</mgrwt>
</event>
<event>
 7    1  0.3607059E-009  0.1005725E+03  0.7818608E-02  0.1279097E+00
          1   -1    0    0  501    0  0.00000000000E+00  0.00000000000E+00  0.28161176096E+02  0.28161176547E+02  0.50400000000E-02 0. -1.
         -1   -1    0    0    0  501 -0.00000000000E+00 -0.00000000000E+00 -0.89794027402E+02  0.89794027544E+02  0.50400000000E-02 0.  1.
         23    2    1    2    0    0  0.00000000000E+00 -0.71054273576E-14 -0.61632851307E+02  0.11795520409E+03  0.10057247045E+03 0.  0.
    9000005    2    3    3    0    0 -0.24414408868E+02 -0.42904265794E+02 -0.28879598229E+02  0.58713200657E+02  0.13280412413E+02 0.  0.
         22    1    3    3    0    0  0.24414408868E+02  0.42904265794E+02 -0.32753253077E+02  0.59242003434E+02  0.00000000000E+00 0.  1.
         22    1    4    4    0    0 -0.22545456558E+02 -0.43069621867E+02 -0.29339870233E+02  0.56781316684E+02  0.00000000000E+00 0.  1.
         22    1    4    4    0    0 -0.18689523099E+01  0.16535607293E+00  0.46027200321E+00  0.19318839728E+01  0.00000000000E+00 0.  1.
<mgrwt>
<rscale>  0 0.10057247E+03</rscale>
<asrwt>0</asrwt>
<pdfrwt beam="1">  1        1 0.43324887E-02 0.10057247E+03</pdfrwt>
<pdfrwt beam="2">  1       -1 0.13814466E-01 0.10057247E+03</pdfrwt>
<totfact> 0.64471193E+04</totfact>
</mgrwt>
</event>
<event>
 7    1  0.3607059E-009  0.9026825E+02  0.7818608E-02  0.1302203E+00
         -1   -1    0    0    0  501 -0.00000000000E+00  0.00000000000E+00  0.69049383938E+02  0.69049384121E+02  0.50400000000E-02 0.  1.
          1   -1    0    0  501    0  0.00000000000E+00 -0.00000000000E+00 -0.29501916901E+02  0.29501917332E+02  0.50400000000E-02 0. -1.
         23    2    1    2    0    0  0.00000000000E+00 -0.44408920985E-15  0.39547467036E+02  0.98551301453E+02  0.90268249508E+02 0.  0.
    9000005    2    3    3    0    0 -0.21587276408E+02  0.33650948765E+01 -0.20970784423E+02  0.34210077297E+02  0.15912926291E+02 0.  0.
         22    1    3    3    0    0  0.21587276408E+02 -0.33650948765E+01  0.60518251459E+02  0.64341224156E+02  0.00000000000E+00 0.  1.
         22    1    4    4    0    0 -0.97940962325E+01  0.32363648387E+00 -0.19652104326E+02  0.21959833014E+02  0.00000000000E+00 0.  1.
         22    1    4    4    0    0 -0.11793180175E+02  0.30414583927E+01 -0.13186800973E+01  0.12250244283E+02  0.00000000000E+00 0.  1.
<mgrwt>
<rscale>  0 0.90268250E+02</rscale>
<asrwt>0</asrwt>
<pdfrwt beam="2">  1        1 0.45387565E-02 0.90268250E+02</pdfrwt>
<pdfrwt beam="1">  1       -1 0.10622982E-01 0.90268250E+02</pdfrwt>
<totfact> 0.88970528E+04</totfact>
</mgrwt>
</event>
<event>
 7    1  0.3607059E-009  0.1072823E+03  0.7818608E-02  0.1265687E+00
          1   -1    0    0  501    0  0.00000000000E+00  0.00000000000E+00  0.68237961443E+02  0.68237961629E+02  0.50400000000E-02 0. -1.
         -1   -1    0    0    0  501 -0.00000000000E+00 -0.00000000000E+00 -0.42166744874E+02  0.42166745175E+02  0.50400000000E-02 0.  1.
         23    2    1    2    0    0 -0.35527136788E-14  0.00000000000E+00  0.26071216569E+02  0.11040470680E+03  0.10728229561E+03 0.  0.
    9000005    2    3    3    0    0  0.30057269082E+02 -0.84566731862E+01 -0.30794086777E+02  0.45530848658E+02  0.12240410653E+02 0.  0.
         22    1    3    3    0    0 -0.30057269082E+02  0.84566731862E+01  0.56865303347E+02  0.64873858146E+02  0.00000000000E+00 0. -1.
         22    1    4    4    0    0  0.92479642810E+01 -0.82946786939E+01 -0.14547585559E+02  0.19130049231E+02  0.00000000000E+00 0. -1.
         22    1    4    4    0    0  0.20809304801E+02 -0.16199449240E+00 -0.16246501218E+02  0.26400799427E+02  0.00000000000E+00 0. -1.
<mgrwt>
<rscale>  0 0.10728230E+03</rscale>
<asrwt>0</asrwt>
<pdfrwt beam="1">  1        1 0.10498148E-01 0.10728230E+03</pdfrwt>
<pdfrwt beam="2">  1       -1 0.64871916E-02 0.10728230E+03</pdfrwt>
<totfact> 0.62375198E+04</totfact>
</mgrwt>
</event>
<event>
 7    1  0.3607059E-009  0.9278357E+02  0.7818608E-02  0.1296248E+00
         -1   -1    0    0    0  501 -0.00000000000E+00  0.00000000000E+00  0.93442938459E+01  0.93442952051E+01  0.50400000000E-02 0.  1.
          1   -1    0    0  501    0  0.00000000000E+00 -0.00000000000E+00 -0.23032211331E+03  0.23032211337E+03  0.50400000000E-02 0. -1.
         23    2    1    2    0    0  0.00000000000E+00 -0.71054273576E-14 -0.22097781947E+03  0.23966640857E+03  0.92783569138E+02 0.  0.
    9000005    2    3    3    0    0  0.95919562688E+01 -0.44843602586E+02 -0.12110873033E+03  0.12977196248E+03  0.83954371381E+01 0.  0.
         22    1    3    3    0    0 -0.95919562688E+01  0.44843602586E+02 -0.99869089134E+02  0.10989444609E+03  0.00000000000E+00 0.  1.
         22    1    4    4    0    0  0.84307001302E+01 -0.34606592056E+02 -0.10234237063E+03  0.10836352590E+03  0.00000000000E+00 0. -1.
         22    1    4    4    0    0  0.11612561386E+01 -0.10237010530E+02 -0.18766359700E+02  0.21408436580E+02  0.00000000000E+00 0. -1.
<mgrwt>
<rscale>  0 0.92783569E+02</rscale>
<asrwt>0</asrwt>
<pdfrwt beam="2">  1        1 0.35434167E-01 0.92783569E+02</pdfrwt>
<pdfrwt beam="1">  1       -1 0.14375839E-02 0.92783569E+02</pdfrwt>
<totfact> 0.11614223E+05</totfact>
</mgrwt>
</event>
<event>
 7    1  0.3607059E-009  0.8868373E+02  0.7818608E-02  0.1306071E+00
          1   -1    0    0  501    0  0.00000000000E+00  0.00000000000E+00  0.27576521068E+02  0.27576521529E+02  0.50400000000E-02 0. -1.
         -1   -1    0    0    0  501 -0.00000000000E+00 -0.00000000000E+00 -0.71299819313E+02  0.71299819491E+02  0.50400000000E-02 0.  1.
         23    2    1    2    0    0  0.00000000000E+00  0.00000000000E+00 -0.43723298245E+02  0.98876341020E+02  0.88683730211E+02 0.  0.
    9000005    2    3    3    0    0 -0.21384208989E+02  0.78711127485E+01  0.20218079720E+02  0.30996015255E+02  0.57221852613E+01 0.  0.
         22    1    3    3    0    0  0.21384208989E+02 -0.78711127485E+01 -0.63941377965E+02  0.67880325765E+02  0.00000000000E+00 0.  1.
         22    1    4    4    0    0 -0.15728261033E+02  0.29809842984E+01  0.14182575842E+02  0.21387143802E+02  0.00000000000E+00 0. -1.
         22    1    4    4    0    0 -0.56559479559E+01  0.48901284502E+01  0.60355038783E+01  0.96088714532E+01  0.00000000000E+00 0. -1.
<mgrwt>
<rscale>  0 0.88683730E+02</rscale>
<asrwt>0</asrwt>
<pdfrwt beam="1">  1        1 0.42425418E-02 0.88683730E+02</pdfrwt>
<pdfrwt beam="2">  1       -1 0.10969203E-01 0.88683730E+02</pdfrwt>
<totfact> 0.92596925E+04</totfact>
</mgrwt>
</event>
<event>
 7    1  0.3607059E-009  0.9151788E+02  0.7818608E-02  0.1299217E+00
         -1   -1    0    0    0  501 -0.00000000000E+00  0.00000000000E+00  0.17824453415E+01  0.17824524670E+01  0.50400000000E-02 0.  1.
          1   -1    0    0  501    0  0.00000000000E+00 -0.00000000000E+00 -0.11747212001E+04  0.11747212002E+04  0.50400000000E-02 0. -1.
         23    2    1    2    0    0 -0.35527136788E-14  0.00000000000E+00 -0.11729387548E+04  0.11765036526E+04  0.91517878662E+02 0.  0.
    9000005    2    3    3    0    0  0.18405973747E+02  0.19443080611E+02 -0.10596059133E+04  0.10600513181E+04  0.15076214527E+02 0.  0.
         22    1    3    3    0    0 -0.18405973747E+02 -0.19443080611E+02 -0.11333284147E+03  0.11645233450E+03  0.00000000000E+00 0.  1.
         22    1    4    4    0    0  0.57354705896E+01  0.12819421490E+02 -0.73050597399E+03  0.73064095918E+03  0.00000000000E+00 0. -1.
         22    1    4    4    0    0  0.12670503157E+02  0.66236591203E+01 -0.32909993934E+03  0.32941035895E+03  0.00000000000E+00 0. -1.
<mgrwt>
<rscale>  0 0.91517879E+02</rscale>
<asrwt>0</asrwt>
<pdfrwt beam="2">  1        1 0.18072572E+00 0.91517879E+02</pdfrwt>
<pdfrwt beam="1">  1       -1 0.27422385E-03 0.91517879E+02</pdfrwt>
<totfact> 0.12728322E+05</totfact>
</mgrwt>
</event>
<event>
 7    1  0.3607059E-009  0.9024723E+02  0.7818608E-02  0.1302254E+00
         -1   -1    0    0    0  501 -0.00000000000E+00  0.00000000000E+00  0.10276314674E+02  0.10276315910E+02  0.50400000000E-02 0. -1.
          1   -1    0    0  501    0  0.00000000000E+00 -0.00000000000E+00 -0.19813915160E+03  0.19813915167E+03  0.50400000000E-02 0.  1.
         23    2    1    2    0    0  0.00000000000E+00  0.00000000000E+00 -0.18786283693E+03  0.20841546758E+03  0.90247225033E+02 0.  0.
    9000005    2    3    3    0    0  0.23709348879E+02 -0.36284706987E+02 -0.71603168741E+02  0.84338783093E+02  0.10358734208E+02 0.  0.
         22    1    3    3    0    0 -0.23709348879E+02  0.36284706987E+02 -0.11625966819E+03  0.12407668448E+03  0.00000000000E+00 0.  1.
         22    1    4    4    0    0  0.15137125900E+02 -0.25101126162E+02 -0.38720580384E+02  0.48564209665E+02  0.00000000000E+00 0. -1.
         22    1    4    4    0    0  0.85722229795E+01 -0.11183580825E+02 -0.32882588357E+02  0.35774573428E+02  0.00000000000E+00 0. -1.
<mgrwt>
<rscale>  0 0.90247225E+02</rscale>
<asrwt>0</asrwt>
<pdfrwt beam="2">  1        1 0.30482944E-01 0.90247225E+02</pdfrwt>
<pdfrwt beam="1">  1       -1 0.15809717E-02 0.90247225E+02</pdfrwt>
<totfact> 0.12148192E+05</totfact>
</mgrwt>
</event>
<event>
 7    1  0.3607059E-009  0.9110704E+02  0.7818608E-02  0.1300193E+00
         -1   -1    0    0    0  501 -0.00000000000E+00  0.00000000000E+00  0.93504078321E+02  0.93504078457E+02  0.50400000000E-02 0.  1.
          1   -1    0    0  501    0  0.00000000000E+00 -0.00000000000E+00 -0.22192861897E+02  0.22192862470E+02  0.50400000000E-02 0. -1.
         23    2    1    2    0    0 -0.71054273576E-14 -0.88817841970E-15  0.71311216423E+02  0.11569694093E+03  0.91107038981E+02 0.  0.
    9000005    2    3    3    0    0 -0.43242090169E+02 -0.48795384999E+01  0.50026927916E+02  0.67254096300E+02  0.11257517232E+02 0.  0.
         22    1    3    3    0    0  0.43242090169E+02  0.48795384999E+01  0.21284288507E+02  0.48442844626E+02  0.00000000000E+00 0. -1.
         22    1    4    4    0    0 -0.18910471050E+01  0.84610227396E+00  0.70162222854E+01  0.73156902183E+01  0.00000000000E+00 0.  1.
         22    1    4    4    0    0 -0.41351043064E+02 -0.57256407738E+01  0.43010705631E+02  0.59938406082E+02  0.00000000000E+00 0.  1.
<mgrwt>
<rscale>  0 0.91107039E+02</rscale>
<asrwt>0</asrwt>
<pdfrwt beam="2">  1        1 0.34142866E-02 0.91107039E+02</pdfrwt>
<pdfrwt beam="1">  1       -1 0.14385243E-01 0.91107039E+02</pdfrwt>
<totfact> 0.82539998E+04</totfact>
</mgrwt>
</event>
<event>
 7    1  0.3607059E-009  0.9124170E+02  0.7818608E-02  0.1299872E+00
          1   -1    0    0  501    0  0.00000000000E+00  0.00000000000E+00  0.30382042439E+01  0.30382084242E+01  0.50400000000E-02 0. -1.
         -1   -1    0    0    0  501 -0.00000000000E+00 -0.00000000000E+00 -0.68502978765E+03  0.68502978767E+03  0.50400000000E-02 0.  1.
         23    2    1    2    0    0  0.00000000000E+00  0.44408920985E-15 -0.68199158341E+03  0.68806799609E+03  0.91241697761E+02 0.  0.
    9000005    2    3    3    0    0  0.39703111358E+02 -0.20499208743E+01 -0.50861819756E+03  0.51019481052E+03  0.50729244397E+01 0.  0.
         22    1    3    3    0    0 -0.39703111358E+02  0.20499208743E+01 -0.17337338584E+03  0.17787318557E+03  0.00000000000E+00 0. -1.
         22    1    4    4    0    0  0.28676722007E+02  0.80129542026E+00 -0.36597465670E+03  0.36709732471E+03  0.00000000000E+00 0. -1.
         22    1    4    4    0    0  0.11026389351E+02 -0.28512162946E+01 -0.14264354086E+03  0.14309748581E+03  0.00000000000E+00 0. -1.
<mgrwt>
<rscale>  0 0.91241698E+02</rscale>
<asrwt>0</asrwt>
<pdfrwt beam="1">  1        1 0.46741691E-03 0.91241698E+02</pdfrwt>
<pdfrwt beam="2">  1       -1 0.10538908E+00 0.91241698E+02</pdfrwt>
<totfact> 0.37452211E+04</totfact>
</mgrwt>
</event>
<event>
 7    1  0.3607059E-009  0.8653095E+02  0.7818608E-02  0.1311477E+00
         -1   -1    0    0    0  501 -0.00000000000E+00  0.00000000000E+00  0.92845320786E+01  0.92845334466E+01  0.50400000000E-02 0.  1.
          1   -1    0    0  501    0  0.00000000000E+00 -0.00000000000E+00 -0.20161502145E+03  0.20161502151E+03  0.50400000000E-02 0. -1.
         23    2    1    2    0    0 -0.35527136788E-14  0.00000000000E+00 -0.19233048937E+03  0.21089955496E+03  0.86530949031E+02 0.  0.
    9000005    2    3    3    0    0 -0.31306044170E+02  0.48645569783E+01 -0.30619722087E+02  0.46114529633E+02  0.13610662967E+02 0.  0.
         22    1    3    3    0    0  0.31306044170E+02 -0.48645569783E+01 -0.16171076728E+03  0.16478502532E+03  0.00000000000E+00 0. -1.
         22    1    4    4    0    0 -0.75753651576E+01  0.73162481022E+01 -0.10970840646E+02  0.15207662149E+02  0.00000000000E+00 0. -1.
         22    1    4    4    0    0 -0.23730679013E+02 -0.24516911239E+01 -0.19648881441E+02  0.30906867484E+02  0.00000000000E+00 0. -1.
<mgrwt>
<rscale>  0 0.86530949E+02</rscale>
<asrwt>0</asrwt>
<pdfrwt beam="2">  1        1 0.31017692E-01 0.86530949E+02</pdfrwt>
<pdfrwt beam="1">  1       -1 0.14283898E-02 0.86530949E+02</pdfrwt>
<totfact> 0.13637757E+05</totfact>
</mgrwt>
</event>
<event>
 7    1  0.3607059E-009  0.9147529E+02  0.7818608E-02  0.1299318E+00
         -1   -1    0    0    0  501 -0.00000000000E+00  0.00000000000E+00  0.13575589909E+02  0.13575590845E+02  0.50400000000E-02 0.  1.
          1   -1    0    0  501    0  0.00000000000E+00 -0.00000000000E+00 -0.15409510589E+03  0.15409510597E+03  0.50400000000E-02 0. -1.
         23    2    1    2    0    0 -0.44408920985E-15  0.00000000000E+00 -0.14051951598E+03  0.16767069681E+03  0.91475287371E+02 0.  0.
    9000005    2    3    3    0    0  0.13067680591E+01  0.27359143062E+02 -0.68226783545E+01  0.31196982340E+02  0.13284292052E+02 0.  0.
         22    1    3    3    0    0 -0.13067680591E+01 -0.27359143062E+02 -0.13369683762E+03  0.13647371447E+03  0.00000000000E+00 0. -1.
         22    1    4    4    0    0  0.65775696702E+01  0.21385993203E+02 -0.39024114550E+01  0.22712418260E+02  0.00000000000E+00 0.  1.
         22    1    4    4    0    0 -0.52708016111E+01  0.59731498591E+01 -0.29202668995E+01  0.84845640799E+01  0.00000000000E+00 0.  1.
<mgrwt>
<rscale>  0 0.91475287E+02</rscale>
<asrwt>0</asrwt>
<pdfrwt beam="2">  1        1 0.23706938E-01 0.91475287E+02</pdfrwt>
<pdfrwt beam="1">  1       -1 0.20885525E-02 0.91475287E+02</pdfrwt>
<totfact> 0.11170135E+05</totfact>
</mgrwt>
</event>
<event>
 7    1  0.3607059E-009  0.9122156E+02  0.7818608E-02  0.1299920E+00
          1   -1    0    0  501    0  0.00000000000E+00  0.00000000000E+00  0.90947632448E+02  0.90947632587E+02  0.50400000000E-02 0. -1.
         -1   -1    0    0    0  501 -0.00000000000E+00 -0.00000000000E+00 -0.22874079897E+02  0.22874080452E+02  0.50400000000E-02 0.  1.
         23    2    1    2    0    0  0.00000000000E+00  0.35527136788E-14  0.68073552551E+02  0.11382171304E+03  0.91221564349E+02 0.  0.
    9000005    2    3    3    0    0 -0.33422218367E+02  0.25338048958E+02  0.13941878918E+02  0.45343252952E+02  0.10127842557E+02 0.  0.
         22    1    3    3    0    0  0.33422218367E+02 -0.25338048958E+02  0.54131673633E+02  0.68478460088E+02  0.00000000000E+00 0. -1.
         22    1    4    4    0    0 -0.44175426250E+01 -0.27401387316E+00  0.19189894474E+01  0.48241358755E+01  0.00000000000E+00 0.  1.
         22    1    4    4    0    0 -0.29004675742E+02  0.25612062832E+02  0.12022889470E+02  0.40519117076E+02  0.00000000000E+00 0.  1.
<mgrwt>
<rscale>  0 0.91221564E+02</rscale>
<asrwt>0</asrwt>
<pdfrwt beam="1">  1        1 0.13991943E-01 0.91221564E+02</pdfrwt>
<pdfrwt beam="2">  1       -1 0.35190893E-02 0.91221564E+02</pdfrwt>
<totfact> 0.10269721E+05</totfact>
</mgrwt>
</event>
<event>
 7    1  0.3607059E-009  0.8834709E+02  0.7818608E-02  0.1306905E+00
          1   -1    0    0  501    0  0.00000000000E+00  0.00000000000E+00  0.35561596765E+02  0.35561597122E+02  0.50400000000E-02 0. -1.
         -1   -1    0    0    0  501 -0.00000000000E+00 -0.00000000000E+00 -0.54871042494E+02  0.54871042726E+02  0.50400000000E-02 0.  1.
         23    2    1    2    0    0  0.00000000000E+00  0.00000000000E+00 -0.19309445729E+02  0.90432639848E+02  0.88347086288E+02 0.  0.
    9000005    2    3    3    0    0 -0.42290921281E+02 -0.84109787165E+01 -0.63682577804E+01  0.45413300322E+02  0.12749374622E+02 0.  0.
         22    1    3    3    0    0  0.42290921281E+02  0.84109787165E+01 -0.12941187949E+02  0.45019339525E+02  0.00000000000E+00 0.  1.
         22    1    4    4    0    0 -0.93180687207E+01 -0.71419844114E+01  0.32171082362E+00  0.11744694286E+02  0.00000000000E+00 0.  1.
         22    1    4    4    0    0 -0.32972852560E+02 -0.12689943051E+01 -0.66899686040E+01  0.33668606037E+02  0.00000000000E+00 0.  1.
<mgrwt>
<rscale>  0 0.88347086E+02</rscale>
<asrwt>0</asrwt>
<pdfrwt beam="1">  1        1 0.54710149E-02 0.88347086E+02</pdfrwt>
<pdfrwt beam="2">  1       -1 0.84416989E-02 0.88347086E+02</pdfrwt>
<totfact> 0.97359690E+04</totfact>
</mgrwt>
</event>
<event>
 7    1  0.3607059E-009  0.8891559E+02  0.7818608E-02  0.1305499E+00
         -1   -1    0    0    0  501 -0.00000000000E+00  0.00000000000E+00  0.32295862119E+01  0.32295901445E+01  0.50400000000E-02 0.  1.
          1   -1    0    0  501    0  0.00000000000E+00 -0.00000000000E+00 -0.61199617377E+03  0.61199617380E+03  0.50400000000E-02 0. -1.
         23    2    1    2    0    0  0.35527136788E-14  0.00000000000E+00 -0.60876658756E+03  0.61522576394E+03  0.88915591899E+02 0.  0.
    9000005    2    3    3    0    0  0.21015990736E+02 -0.12281948755E+02 -0.56164109616E+03  0.56218492994E+03  0.43193077966E+01 0.  0.
         22    1    3    3    0    0 -0.21015990736E+02  0.12281948755E+02 -0.47125491400E+02  0.53040834001E+02  0.00000000000E+00 0.  1.
         22    1    4    4    0    0  0.89095676045E+01 -0.76719922371E+01 -0.27520452379E+03  0.27545556770E+03  0.00000000000E+00 0.  1.
         22    1    4    4    0    0  0.12106423131E+02 -0.46099565180E+01 -0.28643657237E+03  0.28672936224E+03  0.00000000000E+00 0.  1.
<mgrwt>
<rscale>  0 0.88915592E+02</rscale>
<asrwt>0</asrwt>
<pdfrwt beam="2">  1        1 0.94153165E-01 0.88915592E+02</pdfrwt>
<pdfrwt beam="1">  1       -1 0.49686021E-03 0.88915592E+02</pdfrwt>
<totfact> 0.15147029E+05</totfact>
</mgrwt>
</event>
<event>
 7    1  0.3607059E-009  0.9039292E+02  0.7818608E-02  0.1301903E+00
          1   -1    0    0  501    0  0.00000000000E+00  0.00000000000E+00  0.12281106061E+03  0.12281106071E+03  0.50400000000E-02 0. -1.
         -1   -1    0    0    0  501 -0.00000000000E+00 -0.00000000000E+00 -0.16633029190E+02  0.16633029954E+02  0.50400000000E-02 0.  1.
         23    2    1    2    0    0  0.17763568394E-14 -0.71054273576E-14  0.10617803141E+03  0.13944409066E+03  0.90392920439E+02 0.  0.
    9000005    2    3    3    0    0  0.13827941633E+02 -0.41828912644E+02  0.58564446633E+02  0.74575582444E+02  0.13814962347E+02 0.  0.
         22    1    3    3    0    0 -0.13827941633E+02  0.41828912644E+02  0.47613584782E+02  0.64868508218E+02  0.00000000000E+00 0.  1.
         22    1    4    4    0    0 -0.93429810945E+00 -0.14625249149E+02  0.13634326536E+02  0.20016635225E+02  0.00000000000E+00 0. -1.
         22    1    4    4    0    0  0.14762239742E+02 -0.27203663495E+02  0.44930120097E+02  0.54558947219E+02  0.00000000000E+00 0. -1.
<mgrwt>
<rscale>  0 0.90392920E+02</rscale>
<asrwt>0</asrwt>
<pdfrwt beam="1">  1        1 0.18894009E-01 0.90392920E+02</pdfrwt>
<pdfrwt beam="2">  1       -1 0.25589277E-02 0.90392920E+02</pdfrwt>
<totfact> 0.11073372E+05</totfact>
</mgrwt>
</event>
<event>
 7    1  0.3607059E-009  0.1026366E+03  0.7818608E-02  0.1274847E+00
          1   -1    0    0  501    0  0.00000000000E+00  0.00000000000E+00  0.75916671286E+02  0.75916671454E+02  0.50400000000E-02 0. -1.
         -1   -1    0    0    0  501 -0.00000000000E+00 -0.00000000000E+00 -0.34690255864E+02  0.34690256230E+02  0.50400000000E-02 0.  1.
         23    2    1    2    0    0 -0.35527136788E-14 -0.35527136788E-14  0.41226415422E+02  0.11060692768E+03  0.10263661687E+03 0.  0.
    9000005    2    3    3    0    0  0.22535938381E+02  0.22644917103E+02 -0.22524180967E+02  0.39299148800E+02  0.40526014894E+01 0.  0.
         22    1    3    3    0    0 -0.22535938381E+02 -0.22644917103E+02  0.63750596389E+02  0.71307778884E+02  0.00000000000E+00 0. -1.
         22    1    4    4    0    0  0.20186336327E+02  0.21135331508E+02 -0.19253694505E+02  0.34998502316E+02  0.00000000000E+00 0. -1.
         22    1    4    4    0    0  0.23496020539E+01  0.15095855950E+01 -0.32704864620E+01  0.43006464838E+01  0.00000000000E+00 0. -1.
<mgrwt>
<rscale>  0 0.10263662E+03</rscale>
<asrwt>0</asrwt>
<pdfrwt beam="1">  1        1 0.11679488E-01 0.10263662E+03</pdfrwt>
<pdfrwt beam="2">  1       -1 0.53369625E-02 0.10263662E+03</pdfrwt>
<totfact> 0.71939062E+04</totfact>
</mgrwt>
</event>
<event>
 7    1  0.3607059E-009  0.9256132E+02  0.7818608E-02  0.1296765E+00
          1   -1    0    0  501    0  0.00000000000E+00  0.00000000000E+00  0.48188510823E+02  0.48188511087E+02  0.50400000000E-02 0. -1.
         -1   -1    0    0    0  501 -0.00000000000E+00 -0.00000000000E+00 -0.44448342025E+02  0.44448342310E+02  0.50400000000E-02 0.  1.
         23    2    1    2    0    0  0.00000000000E+00  0.35527136788E-14  0.37401687987E+01  0.92636853397E+02  0.92561318836E+02 0.  0.
    9000005    2    3    3    0    0 -0.27353542362E+02  0.17690734984E+02  0.34752511197E+02  0.47659706254E+02  0.15912830370E+01 0.  0.
         22    1    3    3    0    0  0.27353542362E+02 -0.17690734984E+02 -0.31012342398E+02  0.44977147143E+02  0.00000000000E+00 0.  1.
         22    1    4    4    0    0 -0.16743543620E+01  0.77921019950E+00  0.23756775983E+01  0.30090654887E+01  0.00000000000E+00 0. -1.
         22    1    4    4    0    0 -0.25679188000E+02  0.16911524785E+02  0.32376833599E+02  0.44650640766E+02  0.00000000000E+00 0. -1.
<mgrwt>
<rscale>  0 0.92561319E+02</rscale>
<asrwt>0</asrwt>
<pdfrwt beam="1">  1        1 0.74136171E-02 0.92561319E+02</pdfrwt>
<pdfrwt beam="2">  1       -1 0.68382065E-02 0.92561319E+02</pdfrwt>
<totfact> 0.89385143E+04</totfact>
</mgrwt>
</event>
<event>
 7    1  0.3607059E-009  0.8953272E+02  0.7818608E-02  0.1303987E+00
         -1   -1    0    0    0  501 -0.00000000000E+00  0.00000000000E+00  0.12160212332E+02  0.12160213376E+02  0.50400000000E-02 0.  1.
          1   -1    0    0  501    0  0.00000000000E+00 -0.00000000000E+00 -0.16480194847E+03  0.16480194854E+03  0.50400000000E-02 0. -1.
         23    2    1    2    0    0  0.00000000000E+00  0.00000000000E+00 -0.15264173613E+03  0.17696216192E+03  0.89532715479E+02 0.  0.
    9000005    2    3    3    0    0  0.19971891275E+02  0.11601979512E+02 -0.15177343003E+03  0.15384860907E+03  0.10036836164E+02 0.  0.
         22    1    3    3    0    0 -0.19971891275E+02 -0.11601979512E+02 -0.86830610220E+00  0.23113552847E+02  0.00000000000E+00 0.  1.
         22    1    4    4    0    0  0.12677474839E+02  0.12455686996E+02 -0.10212252182E+03  0.10365747426E+03  0.00000000000E+00 0. -1.
         22    1    4    4    0    0  0.72944164363E+01 -0.85370748467E+00 -0.49650908207E+02  0.50191134809E+02  0.00000000000E+00 0. -1.
<mgrwt>
<rscale>  0 0.89532715E+02</rscale>
<asrwt>0</asrwt>
<pdfrwt beam="2">  1        1 0.25354144E-01 0.89532715E+02</pdfrwt>
<pdfrwt beam="1">  1       -1 0.18708021E-02 0.89532715E+02</pdfrwt>
<totfact> 0.11982688E+05</totfact>
</mgrwt>
</event>
<event>
 7    1  0.3607059E-009  0.9221387E+02  0.7818608E-02  0.1297577E+00
          1   -1    0    0  501    0  0.00000000000E+00  0.00000000000E+00  0.86278540252E+03  0.86278540253E+03  0.50400000000E-02 0. -1.
         -1   -1    0    0    0  501 -0.00000000000E+00 -0.00000000000E+00 -0.24639352404E+01  0.24639403951E+01  0.50400000000E-02 0.  1.
         23    2    1    2    0    0  0.00000000000E+00  0.00000000000E+00  0.86032146728E+03  0.86524934293E+03  0.92213873025E+02 0.  0.
    9000005    2    3    3    0    0  0.83069633132E+01  0.39116025543E+02  0.64317716671E+03  0.64445369903E+03  0.66808178362E+01 0.  0.
         22    1    3    3    0    0 -0.83069633132E+01 -0.39116025543E+02  0.21714430057E+03  0.22079564390E+03  0.00000000000E+00 0.  1.
         22    1    4    4    0    0  0.39861161329E+00  0.15721439654E+01  0.56500701646E+02  0.56523975571E+02  0.00000000000E+00 0. -1.
         22    1    4    4    0    0  0.79083516999E+01  0.37543881578E+02  0.58667646506E+03  0.58792972346E+03  0.00000000000E+00 0. -1.
<mgrwt>
<rscale>  0 0.92213873E+02</rscale>
<asrwt>0</asrwt>
<pdfrwt beam="1">  1        1 0.13273618E+00 0.92213873E+02</pdfrwt>
<pdfrwt beam="2">  1       -1 0.37906747E-03 0.92213873E+02</pdfrwt>
<totfact> 0.13596846E+05</totfact>
</mgrwt>
</event>
<event>
 7    1  0.3607059E-009  0.1022999E+03  0.7818608E-02  0.1275533E+00
          1   -1    0    0  501    0  0.00000000000E+00  0.00000000000E+00  0.18731274141E+02  0.18731274819E+02  0.50400000000E-02 0. -1.
         -1   -1    0    0    0  501 -0.00000000000E+00 -0.00000000000E+00 -0.13967636831E+03  0.13967636840E+03  0.50400000000E-02 0.  1.
         23    2    1    2    0    0  0.00000000000E+00  0.00000000000E+00 -0.12094509417E+03  0.15840764322E+03  0.10229988088E+03 0.  0.
    9000005    2    3    3    0    0 -0.28909880498E+02 -0.16567084444E+02 -0.38326083804E+01  0.36647289225E+02  0.14767716247E+02 0.  0.
         22    1    3    3    0    0  0.28909880498E+02  0.16567084444E+02 -0.11711248579E+03  0.12176035400E+03  0.00000000000E+00 0.  1.
         22    1    4    4    0    0 -0.29504555490E+02 -0.12765176393E+02 -0.15758092344E+01  0.32186203532E+02  0.00000000000E+00 0. -1.
         22    1    4    4    0    0  0.59467499299E+00 -0.38019080508E+01 -0.22567991460E+01  0.44610856929E+01  0.00000000000E+00 0. -1.
<mgrwt>
<rscale>  0 0.10229988E+03</rscale>
<asrwt>0</asrwt>
<pdfrwt beam="1">  1        1 0.28817346E-02 0.10229988E+03</pdfrwt>
<pdfrwt beam="2">  1       -1 0.21488671E-01 0.10229988E+03</pdfrwt>
<totfact> 0.56355704E+04</totfact>
</mgrwt>
</event>
<event>
 7    1  0.3607059E-009  0.8915177E+02  0.7818608E-02  0.1304919E+00
         -1   -1    0    0    0  501 -0.00000000000E+00  0.00000000000E+00  0.30948524163E+01  0.30948565202E+01  0.50400000000E-02 0.  1.
          1   -1    0    0  501    0  0.00000000000E+00 -0.00000000000E+00 -0.64203654762E+03  0.64203654764E+03  0.50400000000E-02 0. -1.
         23    2    1    2    0    0  0.00000000000E+00 -0.35527136788E-14 -0.63894169521E+03  0.64513140416E+03  0.89151773755E+02 0.  0.
    9000005    2    3    3    0    0  0.11648296990E+02 -0.23639937089E+02 -0.57817918096E+03  0.57889989666E+03  0.11806591836E+02 0.  0.
         22    1    3    3    0    0 -0.11648296990E+02  0.23639937089E+02 -0.60762514246E+02  0.66231507501E+02  0.00000000000E+00 0.  1.
         22    1    4    4    0    0  0.63047159160E+01 -0.17154976559E+02 -0.48450007963E+03  0.48484468629E+03  0.00000000000E+00 0.  1.
         22    1    4    4    0    0  0.53435810737E+01 -0.64849605296E+01 -0.93679101327E+02  0.94055210367E+02  0.00000000000E+00 0.  1.
<mgrwt>
<rscale>  0 0.89151774E+02</rscale>
<asrwt>0</asrwt>
<pdfrwt beam="2">  1        1 0.98774748E-01 0.89151774E+02</pdfrwt>
<pdfrwt beam="1">  1       -1 0.47613197E-03 0.89151774E+02</pdfrwt>
<totfact> 0.15071586E+05</totfact>
</mgrwt>
</event>
<event>
 7    1  0.3607059E-009  0.8770344E+02  0.7818608E-02  0.1308510E+00
          1   -1    0    0  501    0  0.00000000000E+00  0.00000000000E+00  0.57176068859E+01  0.57176091072E+01  0.50400000000E-02 0. -1.
         -1   -1    0    0    0  501 -0.00000000000E+00 -0.00000000000E+00 -0.33632483210E+03  0.33632483214E+03  0.50400000000E-02 0.  1.
         23    2    1    2    0    0 -0.35527136788E-14 -0.88817841970E-15 -0.33060722522E+03  0.34204244125E+03  0.87703444910E+02 0.  0.
    9000005    2    3    3    0    0  0.20424668966E+02  0.50190606677E+01 -0.31502841595E+03  0.31586884061E+03  0.93735552787E+01 0.  0.
         22    1    3    3    0    0 -0.20424668966E+02 -0.50190606677E+01 -0.15578809271E+02  0.26173600644E+02  0.00000000000E+00 0. -1.
         22    1    4    4    0    0  0.10292771219E+02  0.39866087115E+00 -0.20983364458E+03  0.21008631194E+03  0.00000000000E+00 0.  1.
         22    1    4    4    0    0  0.10131897747E+02  0.46203997965E+01 -0.10519477137E+03  0.10578252866E+03  0.00000000000E+00 0.  1.
<mgrwt>
<rscale>  0 0.87703445E+02</rscale>
<asrwt>0</asrwt>
<pdfrwt beam="1">  1        1 0.87963227E-03 0.87703445E+02</pdfrwt>
<pdfrwt beam="2">  1       -1 0.51742266E-01 0.87703445E+02</pdfrwt>
<totfact> 0.63964252E+04</totfact>
</mgrwt>
</event>
<event>
 7    1  0.3607059E-009  0.9598987E+02  0.7818608E-02  0.1288962E+00
         -1   -1    0    0    0  501 -0.00000000000E+00  0.00000000000E+00  0.29453164021E+02  0.29453164452E+02  0.50400000000E-02 0.  1.
          1   -1    0    0  501    0  0.00000000000E+00 -0.00000000000E+00 -0.78209379408E+02  0.78209379571E+02  0.50400000000E-02 0. -1.
         23    2    1    2    0    0  0.00000000000E+00  0.00000000000E+00 -0.48756215387E+02  0.10766254402E+03  0.95989868458E+02 0.  0.
    9000005    2    3    3    0    0 -0.37538744261E+02 -0.15520691141E+02  0.35664150266E+01  0.41422776303E+02  0.72854585517E+01 0.  0.
         22    1    3    3    0    0  0.37538744261E+02  0.15520691141E+02 -0.52322630414E+02  0.66239767720E+02  0.00000000000E+00 0.  1.
         22    1    4    4    0    0 -0.34425869780E+02 -0.16236576372E+02  0.35583052284E+01  0.38228634013E+02  0.00000000000E+00 0.  1.
         22    1    4    4    0    0 -0.31128744815E+01  0.71588523131E+00  0.81097982018E-02  0.31941422903E+01  0.00000000000E+00 0.  1.
<mgrwt>
<rscale>  0 0.95989868E+02</rscale>
<asrwt>0</asrwt>
<pdfrwt beam="2">  1        1 0.12032212E-01 0.95989868E+02</pdfrwt>
<pdfrwt beam="1">  1       -1 0.45312561E-02 0.95989868E+02</pdfrwt>
<totfact> 0.87101632E+04</totfact>
</mgrwt>
</event>
<event>
 7    1  0.3607059E-009  0.8387530E+02  0.7818608E-02  0.1318400E+00
          1   -1    0    0  501    0  0.00000000000E+00  0.00000000000E+00  0.19303585430E+03  0.19303585436E+03  0.50400000000E-02 0. -1.
         -1   -1    0    0    0  501 -0.00000000000E+00 -0.00000000000E+00 -0.91110868980E+01  0.91110882920E+01  0.50400000000E-02 0.  1.
         23    2    1    2    0    0  0.00000000000E+00  0.00000000000E+00  0.18392476740E+03  0.20214694265E+03  0.83875302455E+02 0.  0.
    9000005    2    3    3    0    0  0.23650815619E+02 -0.91864418294E+01  0.17142411463E+03  0.17386235122E+03  0.14076160808E+02 0.  0.
         22    1    3    3    0    0 -0.23650815619E+02  0.91864418294E+01  0.12500652772E+02  0.28284591435E+02  0.00000000000E+00 0.  1.
         22    1    4    4    0    0  0.31206641054E+01  0.31469032262E+01  0.15945935887E+02  0.16550359986E+02  0.00000000000E+00 0.  1.
         22    1    4    4    0    0  0.20530151514E+02 -0.12333345056E+02  0.15547817874E+03  0.15731199123E+03  0.00000000000E+00 0.  1.
<mgrwt>
<rscale>  0 0.83875302E+02</rscale>
<asrwt>0</asrwt>
<pdfrwt beam="1">  1        1 0.29697825E-01 0.83875302E+02</pdfrwt>
<pdfrwt beam="2">  1       -1 0.14017057E-02 0.83875302E+02</pdfrwt>
<totfact> 0.14695130E+05</totfact>
</mgrwt>
</event>
<event>
 7    1  0.3607059E-009  0.9250568E+02  0.7818608E-02  0.1296895E+00
         -1   -1    0    0    0  501 -0.00000000000E+00  0.00000000000E+00  0.12670359881E+03  0.12670359891E+03  0.50400000000E-02 0.  1.
          1   -1    0    0  501    0  0.00000000000E+00 -0.00000000000E+00 -0.16884486357E+02  0.16884487110E+02  0.50400000000E-02 0. -1.
         23    2    1    2    0    0  0.00000000000E+00 -0.71054273576E-14  0.10981911245E+03  0.14358808602E+03  0.92505680837E+02 0.  0.
    9000005    2    3    3    0    0 -0.12318955056E+02 -0.40758821942E+02  0.81694653039E+02  0.92558453090E+02  0.89449809066E+01 0.  0.
         22    1    3    3    0    0  0.12318955056E+02  0.40758821942E+02  0.28124459415E+02  0.51029632932E+02  0.00000000000E+00 0. -1.
         22    1    4    4    0    0 -0.12962831860E+02 -0.33432136521E+02  0.63344440788E+02  0.72789154006E+02  0.00000000000E+00 0.  1.
         22    1    4    4    0    0  0.64387680376E+00 -0.73266854208E+01  0.18350212251E+02  0.19769299084E+02  0.00000000000E+00 0.  1.
<mgrwt>
<rscale>  0 0.92505681E+02</rscale>
<asrwt>0</asrwt>
<pdfrwt beam="2">  1        1 0.25976133E-02 0.92505681E+02</pdfrwt>
<pdfrwt beam="1">  1       -1 0.19492862E-01 0.92505681E+02</pdfrwt>
<totfact> 0.74790856E+04</totfact>
</mgrwt>
</event>
<event>
 7    1  0.3607059E-009  0.1052017E+03  0.7818608E-02  0.1269723E+00
          1   -1    0    0  501    0  0.00000000000E+00  0.00000000000E+00  0.19379978041E+02  0.19379978697E+02  0.50400000000E-02 0. -1.
         -1   -1    0    0    0  501 -0.00000000000E+00 -0.00000000000E+00 -0.14276841584E+03  0.14276841593E+03  0.50400000000E-02 0.  1.
         23    2    1    2    0    0 -0.71054273576E-14  0.00000000000E+00 -0.12338843780E+03  0.16214839463E+03  0.10520168866E+03 0.  0.
    9000005    2    3    3    0    0  0.50791198513E+02 -0.41647043343E+01 -0.51033395773E+02  0.73647870813E+02  0.14916795320E+02 0.  0.
         22    1    3    3    0    0 -0.50791198513E+02  0.41647043343E+01 -0.72355042029E+02  0.88500523815E+02  0.00000000000E+00 0.  1.
         22    1    4    4    0    0  0.19897937035E+02  0.31487375414E+01 -0.12449461049E+02  0.23681881824E+02  0.00000000000E+00 0.  1.
         22    1    4    4    0    0  0.30893261479E+02 -0.73134418758E+01 -0.38583934724E+02  0.49965988989E+02  0.00000000000E+00 0.  1.
<mgrwt>
<rscale>  0 0.10520169E+03</rscale>
<asrwt>0</asrwt>
<pdfrwt beam="1">  1        1 0.29815352E-02 0.10520169E+03</pdfrwt>
<pdfrwt beam="2">  1       -1 0.21964371E-01 0.10520169E+03</pdfrwt>
<totfact> 0.52127740E+04</totfact>
</mgrwt>
</event>
<event>
 7    1  0.3607059E-009  0.9109296E+02  0.7818608E-02  0.1300226E+00
         -1   -1    0    0    0  501 -0.00000000000E+00  0.00000000000E+00  0.91416954674E+02  0.91416954813E+02  0.50400000000E-02 0.  1.
          1   -1    0    0  501    0  0.00000000000E+00 -0.00000000000E+00 -0.22692528293E+02  0.22692528852E+02  0.50400000000E-02 0. -1.
         23    2    1    2    0    0 -0.88817841970E-15 -0.71054273576E-14  0.68724426381E+02  0.11410948366E+03  0.91092960655E+02 0.  0.
    9000005    2    3    3    0    0 -0.56284123317E+01 -0.43797966116E+02  0.35194530540E+02  0.58664062065E+02  0.15902085926E+02 0.  0.
         22    1    3    3    0    0  0.56284123317E+01  0.43797966116E+02  0.33529895841E+02  0.55445421600E+02  0.00000000000E+00 0. -1.
         22    1    4    4    0    0 -0.70674249228E+01 -0.42780936898E+02  0.36329162433E+02  0.56568234019E+02  0.00000000000E+00 0.  1.
         22    1    4    4    0    0  0.14390125911E+01 -0.10170292179E+01 -0.11346318932E+01  0.20958280465E+01  0.00000000000E+00 0.  1.
<mgrwt>
<rscale>  0 0.91092961E+02</rscale>
<asrwt>0</asrwt>
<pdfrwt beam="2">  1        1 0.34911582E-02 0.91092961E+02</pdfrwt>
<pdfrwt beam="1">  1       -1 0.14064147E-01 0.91092961E+02</pdfrwt>
<totfact> 0.82907872E+04</totfact>
</mgrwt>
</event>
<event>
 7    1  0.3607059E-009  0.9159276E+02  0.7818608E-02  0.1299040E+00
         -1   -1    0    0    0  501 -0.00000000000E+00  0.00000000000E+00  0.35358632132E+01  0.35358668052E+01  0.50400000000E-02 0.  1.
          1   -1    0    0  501    0  0.00000000000E+00 -0.00000000000E+00 -0.59315286330E+03  0.59315286332E+03  0.50400000000E-02 0. -1.
         23    2    1    2    0    0  0.00000000000E+00  0.00000000000E+00 -0.58961700009E+03  0.59668873013E+03  0.91592761006E+02 0.  0.
    9000005    2    3    3    0    0  0.38450417486E+02 -0.23061163690E+02 -0.32304627725E+03  0.32637372472E+03  0.12274325451E+02 0.  0.
         22    1    3    3    0    0 -0.38450417486E+02  0.23061163690E+02 -0.26657072284E+03  0.27031500541E+03  0.00000000000E+00 0.  1.
         22    1    4    4    0    0  0.28161394128E+02 -0.16259952218E+02 -0.26782001011E+03  0.26978696778E+03  0.00000000000E+00 0. -1.
         22    1    4    4    0    0  0.10289023358E+02 -0.68012114723E+01 -0.55226267134E+02  0.56586756937E+02  0.00000000000E+00 0. -1.
<mgrwt>
<rscale>  0 0.91592761E+02</rscale>
<asrwt>0</asrwt>
<pdfrwt beam="2">  1        1 0.91254208E-01 0.91592761E+02</pdfrwt>
<pdfrwt beam="1">  1       -1 0.54397971E-03 0.91592761E+02</pdfrwt>
<totfact> 0.13979157E+05</totfact>
</mgrwt>
</event>
<event>
 7    1  0.3607059E-009  0.9087408E+02  0.7818608E-02  0.1300749E+00
         -1   -1    0    0    0  501 -0.00000000000E+00  0.00000000000E+00  0.24180638476E+02  0.24180639001E+02  0.50400000000E-02 0.  1.
          1   -1    0    0  501    0  0.00000000000E+00 -0.00000000000E+00 -0.85379232333E+02  0.85379232482E+02  0.50400000000E-02 0. -1.
         23    2    1    2    0    0  0.44408920985E-15 -0.71054273576E-14 -0.61198593858E+02  0.10955987148E+03  0.90874075231E+02 0.  0.
    9000005    2    3    3    0    0 -0.37768043695E+01  0.44171315310E+02 -0.34714368216E+02  0.57918961776E+02  0.13570166730E+02 0.  0.
         22    1    3    3    0    0  0.37768043695E+01 -0.44171315310E+02 -0.26484225642E+02  0.51640909707E+02  0.00000000000E+00 0.  1.
         22    1    4    4    0    0 -0.86324005523E+00  0.39979241500E+02 -0.34492103673E+02  0.52808996867E+02  0.00000000000E+00 0.  1.
         22    1    4    4    0    0 -0.29135643143E+01  0.41920738102E+01 -0.22226454325E+00  0.51099649089E+01  0.00000000000E+00 0.  1.
<mgrwt>
<rscale>  0 0.90874075E+02</rscale>
<asrwt>0</asrwt>
<pdfrwt beam="2">  1        1 0.13135266E-01 0.90874075E+02</pdfrwt>
<pdfrwt beam="1">  1       -1 0.37200983E-02 0.90874075E+02</pdfrwt>
<totfact> 0.10272318E+05</totfact>
</mgrwt>
</event>
<event>
 7    1  0.3607059E-009  0.9188490E+02  0.7818608E-02  0.1298350E+00
         -1   -1    0    0    0  501 -0.00000000000E+00  0.00000000000E+00  0.21754841179E+02  0.21754841763E+02  0.50400000000E-02 0.  1.
          1   -1    0    0  501    0  0.00000000000E+00 -0.00000000000E+00 -0.97022472522E+02  0.97022472653E+02  0.50400000000E-02 0. -1.
         23    2    1    2    0    0  0.00000000000E+00  0.35527136788E-14 -0.75267631343E+02  0.11877731442E+03  0.91884895885E+02 0.  0.
    9000005    2    3    3    0    0  0.19657187382E+02 -0.21443460013E+02  0.63544276889E+01  0.32126362235E+02  0.12062230561E+02 0.  0.
         22    1    3    3    0    0 -0.19657187382E+02  0.21443460013E+02 -0.81622059032E+02  0.86650952180E+02  0.00000000000E+00 0. -1.
         22    1    4    4    0    0  0.17365913778E+02 -0.21742657348E+02  0.29095444769E+01  0.27978269406E+02  0.00000000000E+00 0. -1.
         22    1    4    4    0    0  0.22912736039E+01  0.29919733515E+00  0.34448832120E+01  0.41480928289E+01  0.00000000000E+00 0. -1.
<mgrwt>
<rscale>  0 0.91884896E+02</rscale>
<asrwt>0</asrwt>
<pdfrwt beam="2">  1        1 0.14926534E-01 0.91884896E+02</pdfrwt>
<pdfrwt beam="1">  1       -1 0.33468987E-02 0.91884896E+02</pdfrwt>
<totfact> 0.10175627E+05</totfact>
</mgrwt>
</event>
<event>
 7    1  0.3607059E-009  0.1031280E+03  0.7818608E-02  0.1273852E+00
         -1   -1    0    0    0  501 -0.00000000000E+00  0.00000000000E+00  0.33038471461E+03  0.33038471465E+03  0.50400000000E-02 0.  1.
          1   -1    0    0  501    0  0.00000000000E+00 -0.00000000000E+00 -0.80477260388E+01  0.80477276170E+01  0.50400000000E-02 0. -1.
         23    2    1    2    0    0  0.00000000000E+00  0.00000000000E+00  0.32233698857E+03  0.33843244226E+03  0.10312799706E+03 0.  0.
    9000005    2    3    3    0    0 -0.45503542669E+02  0.23580252861E+02  0.15998863663E+03  0.16818677243E+03  0.79891081232E+01 0.  0.
         22    1    3    3    0    0  0.45503542669E+02 -0.23580252861E+02  0.16234835194E+03  0.17024566983E+03  0.00000000000E+00 0.  1.
         22    1    4    4    0    0 -0.23793317375E+02  0.12369794054E+02  0.70687275906E+02  0.75603073560E+02  0.00000000000E+00 0. -1.
         22    1    4    4    0    0 -0.21710225293E+02  0.11210458807E+02  0.89301360729E+02  0.92583698873E+02  0.00000000000E+00 0. -1.
<mgrwt>
<rscale>  0 0.10312800E+03</rscale>
<asrwt>0</asrwt>
<pdfrwt beam="2">  1        1 0.12381121E-02 0.10312800E+03</pdfrwt>
<pdfrwt beam="1">  1       -1 0.50828407E-01 0.10312800E+03</pdfrwt>
<totfact> 0.42128907E+04</totfact>
</mgrwt>
</event>
<event>
 7    1  0.3607059E-009  0.9056845E+02  0.7818608E-02  0.1301481E+00
         -1   -1    0    0    0  501 -0.00000000000E+00  0.00000000000E+00  0.16541542642E+03  0.16541542650E+03  0.50400000000E-02 0. -1.
          1   -1    0    0  501    0  0.00000000000E+00 -0.00000000000E+00 -0.12397035025E+02  0.12397036050E+02  0.50400000000E-02 0.  1.
         23    2    1    2    0    0 -0.88817841970E-15  0.00000000000E+00  0.15301839140E+03  0.17781246255E+03  0.90568447773E+02 0.  0.
    9000005    2    3    3    0    0 -0.49903843294E+01  0.42636964169E+02  0.10462683416E+03  0.11312430705E+03  0.27422201545E+01 0.  0.
         22    1    3    3    0    0  0.49903843294E+01 -0.42636964169E+02  0.48391557242E+02  0.64688155497E+02  0.00000000000E+00 0.  1.
         22    1    4    4    0    0 -0.35455029868E+01  0.26054763530E+02  0.60762152138E+02  0.66207706700E+02  0.00000000000E+00 0. -1.
         22    1    4    4    0    0 -0.14448813426E+01  0.16582200639E+02  0.43864682019E+02  0.46916600353E+02  0.00000000000E+00 0. -1.
<mgrwt>
<rscale>  0 0.90568448E+02</rscale>
<asrwt>0</asrwt>
<pdfrwt beam="2">  1        1 0.19072363E-02 0.90568448E+02</pdfrwt>
<pdfrwt beam="1">  1       -1 0.25448527E-01 0.90568448E+02</pdfrwt>
<totfact> 0.74321293E+04</totfact>
</mgrwt>
</event>
<event>
 7    1  0.3607059E-009  0.9102691E+02  0.7818608E-02  0.1300384E+00
         -1   -1    0    0    0  501 -0.00000000000E+00  0.00000000000E+00  0.15644488901E+02  0.15644489713E+02  0.50400000000E-02 0.  1.
          1   -1    0    0  501    0  0.00000000000E+00 -0.00000000000E+00 -0.13240922128E+03  0.13240922137E+03  0.50400000000E-02 0. -1.
         23    2    1    2    0    0  0.00000000000E+00  0.00000000000E+00 -0.11676473237E+03  0.14805371109E+03  0.91026911623E+02 0.  0.
    9000005    2    3    3    0    0  0.19973728776E+02 -0.40412120525E+02 -0.68224892955E+02  0.81810180552E+02  0.24860202518E+01 0.  0.
         22    1    3    3    0    0 -0.19973728776E+02  0.40412120525E+02 -0.48539839420E+02  0.66243530533E+02  0.00000000000E+00 0. -1.
         22    1    4    4    0    0  0.15111345548E+01 -0.30957959634E+01 -0.65023214653E+01  0.73585096811E+01  0.00000000000E+00 0.  1.
         22    1    4    4    0    0  0.18462594221E+02 -0.37316324562E+02 -0.61722571489E+02  0.74451670871E+02  0.00000000000E+00 0.  1.
<mgrwt>
<rscale>  0 0.91026912E+02</rscale>
<asrwt>0</asrwt>
<pdfrwt beam="2">  1        1 0.20370649E-01 0.91026912E+02</pdfrwt>
<pdfrwt beam="1">  1       -1 0.24068446E-02 0.91026912E+02</pdfrwt>
<totfact> 0.11011499E+05</totfact>
</mgrwt>
</event>
<event>
 7    1  0.3607059E-009  0.9183591E+02  0.7818608E-02  0.1298466E+00
          1   -1    0    0  501    0  0.00000000000E+00  0.00000000000E+00  0.69952106070E+01  0.69952124226E+01  0.50400000000E-02 0. -1.
         -1   -1    0    0    0  501 -0.00000000000E+00 -0.00000000000E+00 -0.30141454520E+03  0.30141454525E+03  0.50400000000E-02 0.  1.
         23    2    1    2    0    0  0.00000000000E+00  0.00000000000E+00 -0.29441933460E+03  0.30840975767E+03  0.91835908232E+02 0.  0.
    9000005    2    3    3    0    0  0.42088803687E+02 -0.14011237230E+02 -0.17348168370E+03  0.17959323090E+03  0.13785929089E+02 0.  0.
         22    1    3    3    0    0 -0.42088803687E+02  0.14011237230E+02 -0.12093765090E+03  0.12881652677E+03  0.00000000000E+00 0.  1.
         22    1    4    4    0    0  0.23378364196E+02 -0.66259184077E+01 -0.68011301630E+02  0.72221796271E+02  0.00000000000E+00 0. -1.
         22    1    4    4    0    0  0.18710439491E+02 -0.73853188223E+01 -0.10547038207E+03  0.10737143463E+03  0.00000000000E+00 0. -1.
<mgrwt>
<rscale>  0 0.91835908E+02</rscale>
<asrwt>0</asrwt>
<pdfrwt beam="1">  1        1 0.10761866E-02 0.91835908E+02</pdfrwt>
<pdfrwt beam="2">  1       -1 0.46371458E-01 0.91835908E+02</pdfrwt>
<totfact> 0.59344533E+04</totfact>
</mgrwt>
</event>
<event>
 7    1  0.3607059E-009  0.8952330E+02  0.7818608E-02  0.1304010E+00
         -1   -1    0    0    0  501 -0.00000000000E+00  0.00000000000E+00  0.25227364503E+01  0.25227414848E+01  0.50400000000E-02 0.  1.
          1   -1    0    0  501    0  0.00000000000E+00 -0.00000000000E+00 -0.79421820269E+03  0.79421820270E+03  0.50400000000E-02 0. -1.
         23    2    1    2    0    0  0.00000000000E+00 -0.44408920985E-15 -0.79169546624E+03  0.79674094419E+03  0.89523298004E+02 0.  0.
    9000005    2    3    3    0    0 -0.40278714690E+02  0.28771635463E+01 -0.56661714488E+03  0.56806890026E+03  0.40784370718E+01 0.  0.
         22    1    3    3    0    0  0.40278714690E+02 -0.28771635463E+01 -0.22507832136E+03  0.22867204392E+03  0.00000000000E+00 0.  1.
         22    1    4    4    0    0 -0.10573575034E+02 -0.10371411922E+01 -0.14704918313E+03  0.14743248764E+03  0.00000000000E+00 0.  1.
         22    1    4    4    0    0 -0.29705139657E+02  0.39143047385E+01 -0.41956796175E+03  0.42063641263E+03  0.00000000000E+00 0.  1.
<mgrwt>
<rscale>  0 0.89523298E+02</rscale>
<asrwt>0</asrwt>
<pdfrwt beam="2">  1        1 0.12218722E+00 0.89523298E+02</pdfrwt>
<pdfrwt beam="1">  1       -1 0.38811432E-03 0.89523298E+02</pdfrwt>
<totfact> 0.14838853E+05</totfact>
</mgrwt>
</event>
<event>
 7    1  0.3607059E-009  0.9129263E+02  0.7818608E-02  0.1299751E+00
          1   -1    0    0  501    0  0.00000000000E+00  0.00000000000E+00  0.61559497156E+02  0.61559497363E+02  0.50400000000E-02 0. -1.
         -1   -1    0    0    0  501 -0.00000000000E+00 -0.00000000000E+00 -0.33846701999E+02  0.33846702374E+02  0.50400000000E-02 0.  1.
         23    2    1    2    0    0  0.00000000000E+00  0.88817841970E-15  0.27712795157E+02  0.95406199737E+02  0.91292628031E+02 0.  0.
    9000005    2    3    3    0    0  0.44805328260E+02 -0.53247198148E+01  0.15148728109E+02  0.48568972423E+02  0.96742460869E+01 0.  0.
         22    1    3    3    0    0 -0.44805328260E+02  0.53247198148E+01  0.12564067049E+02  0.46837227314E+02  0.00000000000E+00 0. -1.
         22    1    4    4    0    0  0.37453039862E+02 -0.63830323916E+01  0.93001915693E+01  0.39114790817E+02  0.00000000000E+00 0.  1.
         22    1    4    4    0    0  0.73522883984E+01  0.10583125768E+01  0.58485365393E+01  0.94541816068E+01  0.00000000000E+00 0.  1.
<mgrwt>
<rscale>  0 0.91292628E+02</rscale>
<asrwt>0</asrwt>
<pdfrwt beam="1">  1        1 0.94706918E-02 0.91292628E+02</pdfrwt>
<pdfrwt beam="2">  1       -1 0.52071850E-02 0.91292628E+02</pdfrwt>
<totfact> 0.96406708E+04</totfact>
</mgrwt>
</event>
<event>
 7    1  0.3607059E-009  0.8945391E+02  0.7818608E-02  0.1304180E+00
         -1   -1    0    0    0  501 -0.00000000000E+00  0.00000000000E+00  0.25285555737E+02  0.25285556239E+02  0.50400000000E-02 0.  1.
          1   -1    0    0  501    0  0.00000000000E+00 -0.00000000000E+00 -0.79116330604E+02  0.79116330765E+02  0.50400000000E-02 0. -1.
         23    2    1    2    0    0  0.00000000000E+00  0.00000000000E+00 -0.53830774868E+02  0.10440188700E+03  0.89453908172E+02 0.  0.
    9000005    2    3    3    0    0 -0.17443611121E+02 -0.56727173442E+01  0.19111704662E+02  0.29188426699E+02  0.12257557141E+02 0.  0.
         22    1    3    3    0    0  0.17443611121E+02  0.56727173442E+01 -0.72942479530E+02  0.75213460305E+02  0.00000000000E+00 0. -1.
         22    1    4    4    0    0 -0.79814050475E+01  0.24694170157E+01  0.12575081126E+02  0.15097467081E+02  0.00000000000E+00 0.  1.
         22    1    4    4    0    0 -0.94622060740E+01 -0.81421343599E+01  0.65366235366E+01  0.14090959619E+02  0.00000000000E+00 0.  1.
<mgrwt>
<rscale>  0 0.89453908E+02</rscale>
<asrwt>0</asrwt>
<pdfrwt beam="2">  1        1 0.12171743E-01 0.89453908E+02</pdfrwt>
<pdfrwt beam="1">  1       -1 0.38900856E-02 0.89453908E+02</pdfrwt>
<totfact> 0.10596454E+05</totfact>
</mgrwt>
</event>
<event>
 6    1  0.3607059E-009  0.1936803E+03  0.7818608E-02  0.1155183E+00
         -1   -1    0    0    0  501 -0.00000000000E+00  0.00000000000E+00  0.53805824005E+02  0.53805824241E+02  0.50400000000E-02 0.  1.
          1   -1    0    0  501    0  0.00000000000E+00 -0.00000000000E+00 -0.17429369837E+03  0.17429369844E+03  0.50400000000E-02 0. -1.
    9000005    2    1    2    0    0 -0.17192873708E+02 -0.94364344485E+02 -0.46528257563E+02  0.10697871797E+03  0.89074649065E+01 0.  0.
         22    1    1    2    0    0  0.17192873708E+02  0.94364344485E+02 -0.73959616804E+02  0.12112080471E+03  0.00000000000E+00 0. -1.
         22    1    3    3    0    0 -0.12013435663E+02 -0.71378342380E+02 -0.30883568391E+02  0.78695522070E+02  0.00000000000E+00 0. -1.
         22    1    3    3    0    0 -0.51794380450E+01 -0.22986002104E+02 -0.15644689172E+02  0.28283195903E+02  0.00000000000E+00 0. -1.
<mgrwt>
<rscale>  0 0.19368031E+03</rscale>
<asrwt>0</asrwt>
<pdfrwt beam="2">  1        1 0.26814415E-01 0.19368031E+03</pdfrwt>
<pdfrwt beam="1">  1       -1 0.82778192E-02 0.19368031E+03</pdfrwt>
<totfact> 0.13767873E+04</totfact>
</mgrwt>
</event>
<event>
 7    1  0.3607059E-009  0.9687345E+02  0.7818608E-02  0.1287011E+00
         -1   -1    0    0    0  501 -0.00000000000E+00  0.00000000000E+00  0.28569568970E+01  0.28569613425E+01  0.50400000000E-02 0.  1.
          1   -1    0    0  501    0  0.00000000000E+00 -0.00000000000E+00 -0.82119353938E+03  0.82119353940E+03  0.50400000000E-02 0. -1.
         23    2    1    2    0    0 -0.35527136788E-14  0.00000000000E+00 -0.81833658248E+03  0.82405050074E+03  0.96873451144E+02 0.  0.
    9000005    2    3    3    0    0  0.22268552239E+02  0.23890752311E+02 -0.71077773684E+03  0.71164248616E+03  0.12782036583E+02 0.  0.
         22    1    3    3    0    0 -0.22268552239E+02 -0.23890752311E+02 -0.10755884565E+03  0.11240801458E+03  0.00000000000E+00 0.  1.
         22    1    4    4    0    0  0.18992271821E+02  0.22067212001E+02 -0.51043537557E+03  0.51126503975E+03  0.00000000000E+00 0. -1.
         22    1    4    4    0    0  0.32762804184E+01  0.18235403099E+01 -0.20034236127E+03  0.20037744641E+03  0.00000000000E+00 0. -1.
<mgrwt>
<rscale>  0 0.96873451E+02</rscale>
<asrwt>0</asrwt>
<pdfrwt beam="2">  1        1 0.12633728E+00 0.96873451E+02</pdfrwt>
<pdfrwt beam="1">  1       -1 0.43953283E-03 0.96873451E+02</pdfrwt>
<totfact> 0.12002202E+05</totfact>
</mgrwt>
</event>
<event>
 7    1  0.3607059E-009  0.9091277E+02  0.7818608E-02  0.1300656E+00
         -1   -1    0    0    0  501 -0.00000000000E+00  0.00000000000E+00  0.87773551579E+02  0.87773551723E+02  0.50400000000E-02 0.  1.
          1   -1    0    0  501    0  0.00000000000E+00 -0.00000000000E+00 -0.23541064556E+02  0.23541065096E+02  0.50400000000E-02 0. -1.
         23    2    1    2    0    0  0.00000000000E+00  0.00000000000E+00  0.64232487023E+02  0.11131461682E+03  0.90912768786E+02 0.  0.
    9000005    2    3    3    0    0  0.34758214857E+02  0.25255194524E+02  0.46374890447E+02  0.64786645597E+02  0.14167590950E+02 0.  0.
         22    1    3    3    0    0 -0.34758214857E+02 -0.25255194524E+02  0.17857596576E+02  0.46527971221E+02  0.00000000000E+00 0. -1.
         22    1    4    4    0    0  0.76559930357E+01  0.65397138869E-01  0.43951242314E+01  0.88281154930E+01  0.00000000000E+00 0.  1.
         22    1    4    4    0    0  0.27102221821E+02  0.25189797385E+02  0.41979766215E+02  0.55958530104E+02  0.00000000000E+00 0.  1.
<mgrwt>
<rscale>  0 0.90912769E+02</rscale>
<asrwt>0</asrwt>
<pdfrwt beam="2">  1        1 0.36217023E-02 0.90912769E+02</pdfrwt>
<pdfrwt beam="1">  1       -1 0.13503623E-01 0.90912769E+02</pdfrwt>
<totfact> 0.83932022E+04</totfact>
</mgrwt>
</event>
<event>
 7    1  0.3607059E-009  0.9006291E+02  0.7818608E-02  0.1302699E+00
          1   -1    0    0  501    0  0.00000000000E+00  0.00000000000E+00  0.25512652880E+02  0.25512653378E+02  0.50400000000E-02 0. -1.
         -1   -1    0    0    0  501 -0.00000000000E+00 -0.00000000000E+00 -0.79483381639E+02  0.79483381798E+02  0.50400000000E-02 0.  1.
         23    2    1    2    0    0  0.00000000000E+00  0.00000000000E+00 -0.53970728758E+02  0.10499603518E+03  0.90062910457E+02 0.  0.
    9000005    2    3    3    0    0 -0.18708839227E+02 -0.26735551803E+02  0.60690295961E+01  0.36661688185E+02  0.15570352113E+02 0.  0.
         22    1    3    3    0    0  0.18708839227E+02  0.26735551803E+02 -0.60039758354E+02  0.68334346991E+02  0.00000000000E+00 0.  1.
         22    1    4    4    0    0 -0.19772854472E+02 -0.18215468436E+02  0.14777108500E+01  0.26924945565E+02  0.00000000000E+00 0.  1.
         22    1    4    4    0    0  0.10640152452E+01 -0.85200833676E+01  0.45913187460E+01  0.97367426206E+01  0.00000000000E+00 0.  1.
<mgrwt>
<rscale>  0 0.90062910E+02</rscale>
<asrwt>0</asrwt>
<pdfrwt beam="1">  1        1 0.39250236E-02 0.90062910E+02</pdfrwt>
<pdfrwt beam="2">  1       -1 0.12228213E-01 0.90062910E+02</pdfrwt>
<totfact> 0.87449166E+04</totfact>
</mgrwt>
</event>
<event>
 7    1  0.3607059E-009  0.9205984E+02  0.7818608E-02  0.1297939E+00
          1   -1    0    0  501    0  0.00000000000E+00  0.00000000000E+00  0.56593607406E+02  0.56593607630E+02  0.50400000000E-02 0. -1.
         -1   -1    0    0    0  501 -0.00000000000E+00 -0.00000000000E+00 -0.37438035342E+02  0.37438035681E+02  0.50400000000E-02 0.  1.
         23    2    1    2    0    0  0.00000000000E+00 -0.88817841970E-15  0.19155572064E+02  0.94031643311E+02  0.92059839250E+02 0.  0.
    9000005    2    3    3    0    0  0.41847739156E+02  0.57277599859E+01  0.24791794022E+02  0.51419350426E+02  0.15661291152E+02 0.  0.
         22    1    3    3    0    0 -0.41847739156E+02 -0.57277599859E+01 -0.56362219578E+01  0.42612292885E+02  0.00000000000E+00 0.  1.
         22    1    4    4    0    0  0.24690523468E+02 -0.44440193127E+01  0.14466167966E+02  0.28959303728E+02  0.00000000000E+00 0.  1.
         22    1    4    4    0    0  0.17157215688E+02  0.10171779299E+02  0.10325626056E+02  0.22460046698E+02  0.00000000000E+00 0.  1.
<mgrwt>
<rscale>  0 0.92059839E+02</rscale>
<asrwt>0</asrwt>
<pdfrwt beam="1">  1        1 0.87067088E-02 0.92059839E+02</pdfrwt>
<pdfrwt beam="2">  1       -1 0.57596978E-02 0.92059839E+02</pdfrwt>
<totfact> 0.92994803E+04</totfact>
</mgrwt>
</event>
<event>
 7    1  0.3607059E-009  0.9160330E+02  0.7818608E-02  0.1299015E+00
          1   -1    0    0  501    0  0.00000000000E+00  0.00000000000E+00  0.83653812545E+02  0.83653812697E+02  0.50400000000E-02 0. -1.
         -1   -1    0    0    0  501 -0.00000000000E+00 -0.00000000000E+00 -0.25077052470E+02  0.25077052977E+02  0.50400000000E-02 0.  1.
         23    2    1    2    0    0  0.00000000000E+00  0.00000000000E+00  0.58576760074E+02  0.10873086567E+03  0.91603298681E+02 0.  0.
    9000005    2    3    3    0    0 -0.24445265462E+02 -0.41248107314E+01  0.74737548268E+02  0.79137688384E+02  0.79049057247E+01 0.  0.
         22    1    3    3    0    0  0.24445265462E+02  0.41248107314E+01 -0.16160788193E+02  0.29593177290E+02  0.00000000000E+00 0.  1.
         22    1    4    4    0    0 -0.83252927909E+01 -0.22126296331E+01  0.38154010075E+02  0.39114379898E+02  0.00000000000E+00 0. -1.
         22    1    4    4    0    0 -0.16119972671E+02 -0.19121810983E+01  0.36583538192E+02  0.40023308486E+02  0.00000000000E+00 0. -1.
<mgrwt>
<rscale>  0 0.91603299E+02</rscale>
<asrwt>0</asrwt>
<pdfrwt beam="1">  1        1 0.12869817E-01 0.91603299E+02</pdfrwt>
<pdfrwt beam="2">  1       -1 0.38580081E-02 0.91603299E+02</pdfrwt>
<totfact> 0.10016911E+05</totfact>
</mgrwt>
</event>
<event>
 7    1  0.3607059E-009  0.9125647E+02  0.7818608E-02  0.1299837E+00
         -1   -1    0    0    0  501 -0.00000000000E+00  0.00000000000E+00  0.20752896107E+03  0.20752896113E+03  0.50400000000E-02 0.  1.
          1   -1    0    0  501    0  0.00000000000E+00 -0.00000000000E+00 -0.10032025823E+02  0.10032027089E+02  0.50400000000E-02 0. -1.
         23    2    1    2    0    0 -0.17763568394E-14 -0.71054273576E-14  0.19749693525E+03  0.21756098822E+03  0.91256474639E+02 0.  0.
    9000005    2    3    3    0    0 -0.15166691137E+02 -0.36548973333E+02  0.14901768059E+03  0.15498228494E+03  0.15728431149E+02 0.  0.
         22    1    3    3    0    0  0.15166691137E+02  0.36548973333E+02  0.48479254663E+02  0.62578703282E+02  0.00000000000E+00 0. -1.
         22    1    4    4    0    0 -0.52824789492E+01 -0.30307760088E+02  0.10242335259E+03  0.10694394822E+03  0.00000000000E+00 0. -1.
         22    1    4    4    0    0 -0.98842121877E+01 -0.62412132454E+01  0.46594328000E+02  0.48038336723E+02  0.00000000000E+00 0. -1.
<mgrwt>
<rscale>  0 0.91256475E+02</rscale>
<asrwt>0</asrwt>
<pdfrwt beam="2">  1        1 0.15433887E-02 0.91256475E+02</pdfrwt>
<pdfrwt beam="1">  1       -1 0.31927532E-01 0.91256475E+02</pdfrwt>
<totfact> 0.68528402E+04</totfact>
</mgrwt>
</event>
<event>
 7    1  0.3607059E-009  0.8877556E+02  0.7818608E-02  0.1305844E+00
         -1   -1    0    0    0  501 -0.00000000000E+00  0.00000000000E+00  0.12283020593E+03  0.12283020603E+03  0.50400000000E-02 0.  1.
          1   -1    0    0  501    0  0.00000000000E+00 -0.00000000000E+00 -0.16040638046E+02  0.16040638838E+02  0.50400000000E-02 0. -1.
         23    2    1    2    0    0  0.00000000000E+00  0.00000000000E+00  0.10678956788E+03  0.13887084487E+03  0.88775558270E+02 0.  0.
    9000005    2    3    3    0    0 -0.85279365037E+01  0.36491146727E+02  0.90363026885E+02  0.97954335491E+02  0.50245122503E+01 0.  0.
         22    1    3    3    0    0  0.85279365037E+01 -0.36491146727E+02  0.16426540996E+02  0.40916509376E+02  0.00000000000E+00 0. -1.
         22    1    4    4    0    0 -0.87755898611E+01  0.29304962136E+02  0.74617978993E+02  0.80645114992E+02  0.00000000000E+00 0. -1.
         22    1    4    4    0    0  0.24765335741E+00  0.71861845906E+01  0.15745047892E+02  0.17309220499E+02  0.00000000000E+00 0. -1.
<mgrwt>
<rscale>  0 0.88775558E+02</rscale>
<asrwt>0</asrwt>
<pdfrwt beam="2">  1        1 0.24677904E-02 0.88775558E+02</pdfrwt>
<pdfrwt beam="1">  1       -1 0.18896956E-01 0.88775558E+02</pdfrwt>
<totfact> 0.83731964E+04</totfact>
</mgrwt>
</event>
<event>
 7    1  0.3607059E-009  0.9177182E+02  0.7818608E-02  0.1298617E+00
          1   -1    0    0  501    0  0.00000000000E+00  0.00000000000E+00  0.56690835876E+03  0.56690835878E+03  0.50400000000E-02 0. -1.
         -1   -1    0    0    0  501 -0.00000000000E+00 -0.00000000000E+00 -0.37140315791E+01  0.37140349988E+01  0.50400000000E-02 0.  1.
         23    2    1    2    0    0  0.00000000000E+00  0.00000000000E+00  0.56319432718E+03  0.57062239378E+03  0.91771815476E+02 0.  0.
    9000005    2    3    3    0    0 -0.32303568273E+02 -0.68100965495E+01  0.47782831848E+03  0.47909505699E+03  0.11057746365E+02 0.  0.
         22    1    3    3    0    0  0.32303568273E+02  0.68100965495E+01  0.85366008701E+02  0.91527336789E+02  0.00000000000E+00 0.  1.
         22    1    4    4    0    0 -0.27313094238E+02 -0.71967480551E+01  0.44410393888E+03  0.44500124363E+03  0.00000000000E+00 0. -1.
         22    1    4    4    0    0 -0.49904740345E+01  0.38665150560E+00  0.33724379597E+02  0.34093813364E+02  0.00000000000E+00 0. -1.
<mgrwt>
<rscale>  0 0.91771815E+02</rscale>
<asrwt>0</asrwt>
<pdfrwt beam="1">  1        1 0.87216651E-01 0.91771815E+02</pdfrwt>
<pdfrwt beam="2">  1       -1 0.57138987E-03 0.91771815E+02</pdfrwt>
<totfact> 0.13861525E+05</totfact>
</mgrwt>
</event>
<event>
 7    1  0.3607059E-009  0.9150691E+02  0.7818608E-02  0.1299243E+00
         -1   -1    0    0    0  501 -0.00000000000E+00  0.00000000000E+00  0.15019169941E+03  0.15019169950E+03  0.50400000000E-02 0.  1.
          1   -1    0    0  501    0  0.00000000000E+00 -0.00000000000E+00 -0.13938044548E+02  0.13938045459E+02  0.50400000000E-02 0. -1.
         23    2    1    2    0    0 -0.44408920985E-15  0.00000000000E+00  0.13625365487E+03  0.16412974496E+03  0.91506910752E+02 0.  0.
    9000005    2    3    3    0    0  0.33884285833E+01 -0.44765207158E+02  0.78036965824E+02  0.90613841214E+02  0.10280805633E+02 0.  0.
         22    1    3    3    0    0 -0.33884285833E+01  0.44765207158E+02  0.58216689044E+02  0.73515903744E+02  0.00000000000E+00 0. -1.
         22    1    4    4    0    0 -0.23049564992E+01 -0.29738893511E+02  0.54220220433E+02  0.61883333100E+02  0.00000000000E+00 0. -1.
         22    1    4    4    0    0  0.56933850825E+01 -0.15026313646E+02  0.23816745390E+02  0.28730508114E+02  0.00000000000E+00 0. -1.
<mgrwt>
<rscale>  0 0.91506911E+02</rscale>
<asrwt>0</asrwt>
<pdfrwt beam="2">  1        1 0.21443145E-02 0.91506911E+02</pdfrwt>
<pdfrwt beam="1">  1       -1 0.23106417E-01 0.91506911E+02</pdfrwt>
<totfact> 0.74067433E+04</totfact>
</mgrwt>
</event>
<event>
 7    1  0.3607059E-009  0.9089994E+02  0.7818608E-02  0.1300687E+00
          1   -1    0    0  501    0  0.00000000000E+00  0.00000000000E+00  0.24693182783E+03  0.24693182788E+03  0.50400000000E-02 0. -1.
         -1   -1    0    0    0  501 -0.00000000000E+00 -0.00000000000E+00 -0.83654644268E+01  0.83654659450E+01  0.50400000000E-02 0.  1.
         23    2    1    2    0    0  0.00000000000E+00 -0.71054273576E-14  0.23856636340E+03  0.25529729382E+03  0.90899936675E+02 0.  0.
    9000005    2    3    3    0    0  0.17875478585E+01 -0.40187773706E+02  0.68633332133E+02  0.80667721304E+02  0.13360183301E+02 0.  0.
         22    1    3    3    0    0 -0.17875478585E+01  0.40187773706E+02  0.16993303127E+03  0.17462957252E+03  0.00000000000E+00 0. -1.
         22    1    4    4    0    0  0.61529945074E+01 -0.17620786437E+02  0.38336534283E+02  0.42638495716E+02  0.00000000000E+00 0. -1.
         22    1    4    4    0    0 -0.43654466489E+01 -0.22566987269E+02  0.30296797850E+02  0.38029225588E+02  0.00000000000E+00 0. -1.
<mgrwt>
<rscale>  0 0.90899937E+02</rscale>
<asrwt>0</asrwt>
<pdfrwt beam="1">  1        1 0.37989508E-01 0.90899937E+02</pdfrwt>
<pdfrwt beam="2">  1       -1 0.12869948E-02 0.90899937E+02</pdfrwt>
<totfact> 0.12437950E+05</totfact>
</mgrwt>
</event>
<event>
 7    1  0.3607059E-009  0.9057765E+02  0.7818608E-02  0.1301459E+00
          1   -1    0    0  501    0  0.00000000000E+00  0.00000000000E+00  0.86466792149E+02  0.86466792296E+02  0.50400000000E-02 0. -1.
         -1   -1    0    0    0  501 -0.00000000000E+00 -0.00000000000E+00 -0.23720986831E+02  0.23720987367E+02  0.50400000000E-02 0.  1.
         23    2    1    2    0    0  0.71054273576E-14 -0.17763568394E-14  0.62745805317E+02  0.11018777966E+03  0.90577650124E+02 0.  0.
    9000005    2    3    3    0    0 -0.35576183789E+02  0.84569351297E+01  0.21559681832E+01  0.39418344390E+02  0.14559294999E+02 0.  0.
         22    1    3    3    0    0  0.35576183789E+02 -0.84569351297E+01  0.60589837134E+02  0.70769435272E+02  0.00000000000E+00 0. -1.
         22    1    4    4    0    0 -0.11338912188E+02  0.40839796121E+01 -0.60151187829E+01  0.13469650072E+02  0.00000000000E+00 0.  1.
         22    1    4    4    0    0 -0.24237271601E+02  0.43729555176E+01  0.81710869661E+01  0.25948694319E+02  0.00000000000E+00 0.  1.
<mgrwt>
<rscale>  0 0.90577650E+02</rscale>
<asrwt>0</asrwt>
<pdfrwt beam="1">  1        1 0.13302583E-01 0.90577650E+02</pdfrwt>
<pdfrwt beam="2">  1       -1 0.36493827E-02 0.90577650E+02</pdfrwt>
<totfact> 0.10385505E+05</totfact>
</mgrwt>
</event>
<event>
 7    1  0.3607059E-009  0.1024762E+03  0.7818608E-02  0.1275173E+00
          1   -1    0    0  501    0  0.00000000000E+00  0.00000000000E+00  0.31676018141E+02  0.31676018542E+02  0.50400000000E-02 0. -1.
         -1   -1    0    0    0  501 -0.00000000000E+00 -0.00000000000E+00 -0.82881148117E+02  0.82881148270E+02  0.50400000000E-02 0.  1.
         23    2    1    2    0    0  0.00000000000E+00 -0.17763568394E-14 -0.51205129975E+02  0.11455716681E+03  0.10247623691E+03 0.  0.
    9000005    2    3    3    0    0 -0.40367185067E+02  0.10157480066E+02 -0.57410048592E+02  0.72471717467E+02  0.14951659497E+02 0.  0.
         22    1    3    3    0    0  0.40367185067E+02 -0.10157480066E+02  0.62049186166E+01  0.42085449345E+02  0.00000000000E+00 0. -1.
         22    1    4    4    0    0 -0.12396901477E+01  0.21416774047E+01 -0.10847128104E+02  0.11125816908E+02  0.00000000000E+00 0. -1.
         22    1    4    4    0    0 -0.39127494920E+02  0.80158026616E+01 -0.46562920488E+02  0.61345900558E+02  0.00000000000E+00 0. -1.
<mgrwt>
<rscale>  0 0.10247624E+03</rscale>
<asrwt>0</asrwt>
<pdfrwt beam="1">  1        1 0.48732336E-02 0.10247624E+03</pdfrwt>
<pdfrwt beam="2">  1       -1 0.12750946E-01 0.10247624E+03</pdfrwt>
<totfact> 0.62341840E+04</totfact>
</mgrwt>
</event>
<event>
 7    1  0.3607059E-009  0.8952928E+02  0.7818608E-02  0.1303996E+00
          1   -1    0    0  501    0  0.00000000000E+00  0.00000000000E+00  0.15789818815E+03  0.15789818823E+03  0.50400000000E-02 0. -1.
         -1   -1    0    0    0  501 -0.00000000000E+00 -0.00000000000E+00 -0.12690917801E+02  0.12690918802E+02  0.50400000000E-02 0.  1.
         23    2    1    2    0    0  0.00000000000E+00  0.17763568394E-14  0.14520727035E+03  0.17058910704E+03  0.89529280553E+02 0.  0.
    9000005    2    3    3    0    0 -0.23844831785E+02 -0.10613227806E+02  0.72499822392E+01  0.30184584492E+02  0.13316542013E+02 0.  0.
         22    1    3    3    0    0  0.23844831785E+02  0.10613227806E+02  0.13795728811E+03  0.14040452254E+03  0.00000000000E+00 0. -1.
         22    1    4    4    0    0 -0.92905600181E+01  0.30262696483E+00 -0.23867082461E+01  0.95970029062E+01  0.00000000000E+00 0.  1.
         22    1    4    4    0    0 -0.14554271767E+02 -0.10915854771E+02  0.96366904853E+01  0.20587581586E+02  0.00000000000E+00 0.  1.
<mgrwt>
<rscale>  0 0.89529281E+02</rscale>
<asrwt>0</asrwt>
<pdfrwt beam="1">  1        1 0.24292029E-01 0.89529281E+02</pdfrwt>
<pdfrwt beam="2">  1       -1 0.19524490E-02 0.89529281E+02</pdfrwt>
<totfact> 0.11889210E+05</totfact>
</mgrwt>
</event>
<event>
 7    1  0.3607059E-009  0.9139494E+02  0.7818608E-02  0.1299508E+00
          1   -1    0    0  501    0  0.00000000000E+00  0.00000000000E+00  0.99311700136E+02  0.99311700264E+02  0.50400000000E-02 0. -1.
         -1   -1    0    0    0  501 -0.00000000000E+00 -0.00000000000E+00 -0.21027317840E+02  0.21027318444E+02  0.50400000000E-02 0.  1.
         23    2    1    2    0    0  0.00000000000E+00  0.17763568394E-14  0.78284382296E+02  0.12033901871E+03  0.91394939204E+02 0.  0.
    9000005    2    3    3    0    0  0.30216627667E+02 -0.12754705907E+02  0.80336247191E+02  0.87476619832E+02  0.11068843396E+02 0.  0.
         22    1    3    3    0    0 -0.30216627667E+02  0.12754705907E+02 -0.20518648954E+01  0.32862398876E+02  0.00000000000E+00 0.  1.
         22    1    4    4    0    0  0.19382443800E+02 -0.38435449184E+01  0.37283896240E+02  0.42196455823E+02  0.00000000000E+00 0.  1.
         22    1    4    4    0    0  0.10834183866E+02 -0.89111609891E+01  0.43052350952E+02  0.45280164009E+02  0.00000000000E+00 0.  1.
<mgrwt>
<rscale>  0 0.91394939E+02</rscale>
<asrwt>0</asrwt>
<pdfrwt beam="1">  1        1 0.15278723E-01 0.91394939E+02</pdfrwt>
<pdfrwt beam="2">  1       -1 0.32349721E-02 0.91394939E+02</pdfrwt>
<totfact> 0.10365375E+05</totfact>
</mgrwt>
</event>
<event>
 7    1  0.3607059E-009  0.8291343E+02  0.7818608E-02  0.1320981E+00
          1   -1    0    0  501    0  0.00000000000E+00  0.00000000000E+00  0.77542067268E+02  0.77542067432E+02  0.50400000000E-02 0. -1.
         -1   -1    0    0    0  501 -0.00000000000E+00 -0.00000000000E+00 -0.22164217261E+02  0.22164217834E+02  0.50400000000E-02 0.  1.
         23    2    1    2    0    0  0.00000000000E+00  0.00000000000E+00  0.55377850007E+02  0.99706285266E+02  0.82913431059E+02 0.  0.
    9000005    2    3    3    0    0  0.18018205621E+02 -0.13564309133E+02 -0.11104889351E+02  0.29502290731E+02  0.15440867037E+02 0.  0.
         22    1    3    3    0    0 -0.18018205621E+02  0.13564309133E+02  0.66482739358E+02  0.70203994534E+02  0.00000000000E+00 0. -1.
         22    1    4    4    0    0  0.76333872587E+01 -0.45418745107E+01  0.34003486086E+01  0.95110249591E+01  0.00000000000E+00 0. -1.
         22    1    4    4    0    0  0.10384818362E+02 -0.90224346225E+01 -0.14505237959E+02  0.19991265772E+02  0.00000000000E+00 0. -1.
<mgrwt>
<rscale>  0 0.82913431E+02</rscale>
<asrwt>0</asrwt>
<pdfrwt beam="1">  1        1 0.11929549E-01 0.82913431E+02</pdfrwt>
<pdfrwt beam="2">  1       -1 0.34098796E-02 0.82913431E+02</pdfrwt>
<totfact> 0.12990897E+05</totfact>
</mgrwt>
</event>
<event>
 7    1  0.3607059E-009  0.7934964E+02  0.7818608E-02  0.1330907E+00
          1   -1    0    0  501    0  0.00000000000E+00  0.00000000000E+00  0.48317593461E+03  0.48317593463E+03  0.50400000000E-02 0. -1.
         -1   -1    0    0    0  501 -0.00000000000E+00 -0.00000000000E+00 -0.32577999946E+01  0.32578038932E+01  0.50400000000E-02 0.  1.
         23    2    1    2    0    0  0.00000000000E+00  0.17763568394E-14  0.47991813461E+03  0.48643373853E+03  0.79349644278E+02 0.  0.
    9000005    2    3    3    0    0 -0.35364301363E+02 -0.12015160079E+02  0.30813457345E+03  0.31063672556E+03  0.12379904215E+02 0.  0.
         22    1    3    3    0    0  0.35364301363E+02  0.12015160079E+02  0.17178356117E+03  0.17579701297E+03  0.00000000000E+00 0.  1.
         22    1    4    4    0    0 -0.21982047734E+02 -0.60877607801E+01  0.23119081143E+03  0.23231328533E+03  0.00000000000E+00 0. -1.
         22    1    4    4    0    0 -0.13382253629E+02 -0.59273992991E+01  0.76943762020E+02  0.78323440223E+02  0.00000000000E+00 0. -1.
<mgrwt>
<rscale>  0 0.79349644E+02</rscale>
<asrwt>0</asrwt>
<pdfrwt beam="1">  1        1 0.74334752E-01 0.79349644E+02</pdfrwt>
<pdfrwt beam="2">  1       -1 0.50120035E-03 0.79349644E+02</pdfrwt>
<totfact> 0.19990989E+05</totfact>
</mgrwt>
</event>
<event>
 7    1  0.3607059E-009  0.9290967E+02  0.7818608E-02  0.1295955E+00
          1   -1    0    0  501    0  0.00000000000E+00  0.00000000000E+00  0.22667421104E+03  0.22667421110E+03  0.50400000000E-02 0. -1.
         -1   -1    0    0    0  501 -0.00000000000E+00 -0.00000000000E+00 -0.95204996653E+01  0.95205009994E+01  0.50400000000E-02 0.  1.
         23    2    1    2    0    0  0.00000000000E+00  0.00000000000E+00  0.21715371138E+03  0.23619471210E+03  0.92909674728E+02 0.  0.
    9000005    2    3    3    0    0  0.33487472015E+02  0.17135347927E+02  0.17645626772E+03  0.18077528544E+03  0.11307452351E+02 0.  0.
         22    1    3    3    0    0 -0.33487472015E+02 -0.17135347927E+02  0.40697443657E+02  0.55419426655E+02  0.00000000000E+00 0.  1.
         22    1    4    4    0    0  0.84088173046E+01 -0.70528696584E+00  0.33883932718E+02  0.34918856433E+02  0.00000000000E+00 0. -1.
         22    1    4    4    0    0  0.25078654711E+02  0.17840634892E+02  0.14257233500E+03  0.14585642901E+03  0.00000000000E+00 0. -1.
<mgrwt>
<rscale>  0 0.92909675E+02</rscale>
<asrwt>0</asrwt>
<pdfrwt beam="1">  1        1 0.34872953E-01 0.92909675E+02</pdfrwt>
<pdfrwt beam="2">  1       -1 0.14646925E-02 0.92909675E+02</pdfrwt>
<totfact> 0.11535797E+05</totfact>
</mgrwt>
</event>
<event>
 7    1  0.3607059E-009  0.9810966E+02  0.7818608E-02  0.1284322E+00
         -1   -1    0    0    0  501 -0.00000000000E+00  0.00000000000E+00  0.29240144144E+02  0.29240144578E+02  0.50400000000E-02 0.  1.
          1   -1    0    0  501    0  0.00000000000E+00 -0.00000000000E+00 -0.82297000845E+02  0.82297001000E+02  0.50400000000E-02 0. -1.
         23    2    1    2    0    0  0.00000000000E+00  0.00000000000E+00 -0.53056856702E+02  0.11153714558E+03  0.98109657020E+02 0.  0.
    9000005    2    3    3    0    0  0.45263626841E+02  0.87727352197E+00 -0.61053697486E+01  0.46314391491E+02  0.76276992416E+01 0.  0.
         22    1    3    3    0    0 -0.45263626841E+02 -0.87727352197E+00 -0.46951486953E+02  0.65222754087E+02  0.00000000000E+00 0. -1.
         22    1    4    4    0    0  0.11431881447E+02 -0.29366682673E+01 -0.53072287518E+00  0.11814973581E+02  0.00000000000E+00 0. -1.
         22    1    4    4    0    0  0.33831745394E+02  0.38139417892E+01 -0.55746468735E+01  0.34499417910E+02  0.00000000000E+00 0. -1.
<mgrwt>
<rscale>  0 0.98109657E+02</rscale>
<asrwt>0</asrwt>
<pdfrwt beam="2">  1        1 0.12661077E-01 0.98109657E+02</pdfrwt>
<pdfrwt beam="1">  1       -1 0.44984838E-02 0.98109657E+02</pdfrwt>
<totfact> 0.82674973E+04</totfact>
</mgrwt>
</event>
<event>
 7    1  0.3607059E-009  0.9235638E+02  0.7818608E-02  0.1297244E+00
          1   -1    0    0  501    0  0.00000000000E+00  0.00000000000E+00  0.41541259767E+03  0.41541259770E+03  0.50400000000E-02 0. -1.
         -1   -1    0    0    0  501 -0.00000000000E+00 -0.00000000000E+00 -0.51332691761E+01  0.51332716503E+01  0.50400000000E-02 0.  1.
         23    2    1    2    0    0  0.00000000000E+00  0.00000000000E+00  0.41027932849E+03  0.42054586935E+03  0.92356379523E+02 0.  0.
    9000005    2    3    3    0    0  0.17589071662E+02 -0.10160184878E+02  0.39345412052E+03  0.39416988743E+03  0.12294324231E+02 0.  0.
         22    1    3    3    0    0 -0.17589071662E+02  0.10160184878E+02  0.16825207977E+02  0.26375981918E+02  0.00000000000E+00 0.  1.
         22    1    4    4    0    0  0.11017290841E+02  0.31869952763E+00  0.15195038322E+03  0.15234960200E+03  0.00000000000E+00 0.  1.
         22    1    4    4    0    0  0.65717808208E+01 -0.10478884405E+02  0.24150373729E+03  0.24182028543E+03  0.00000000000E+00 0.  1.
<mgrwt>
<rscale>  0 0.92356380E+02</rscale>
<asrwt>0</asrwt>
<pdfrwt beam="1">  1        1 0.63909644E-01 0.92356380E+02</pdfrwt>
<pdfrwt beam="2">  1       -1 0.78973375E-03 0.92356380E+02</pdfrwt>
<totfact> 0.13115681E+05</totfact>
</mgrwt>
</event>
<event>
 7    1  0.3607059E-009  0.9117029E+02  0.7818608E-02  0.1300042E+00
         -1   -1    0    0    0  501 -0.00000000000E+00  0.00000000000E+00  0.19120267878E+03  0.19120267885E+03  0.50400000000E-02 0.  1.
          1   -1    0    0  501    0  0.00000000000E+00 -0.00000000000E+00 -0.10868077420E+02  0.10868078588E+02  0.50400000000E-02 0. -1.
         23    2    1    2    0    0  0.00000000000E+00  0.35527136788E-14  0.18033460136E+03  0.20207075744E+03  0.91170294299E+02 0.  0.
    9000005    2    3    3    0    0  0.86195334707E+01  0.21788136472E+02  0.17607235144E+03  0.17825508985E+03  0.14979481575E+02 0.  0.
         22    1    3    3    0    0 -0.86195334707E+01 -0.21788136472E+02  0.42622499239E+01  0.23815667586E+02  0.00000000000E+00 0. -1.
         22    1    4    4    0    0  0.15092424798E+01  0.15030390862E+01  0.22112852330E+01  0.30702966858E+01  0.00000000000E+00 0. -1.
         22    1    4    4    0    0  0.71102909909E+01  0.20285097386E+02  0.17386106621E+03  0.17518479317E+03  0.00000000000E+00 0. -1.
<mgrwt>
<rscale>  0 0.91170294E+02</rscale>
<asrwt>0</asrwt>
<pdfrwt beam="2">  1        1 0.16720121E-02 0.91170294E+02</pdfrwt>
<pdfrwt beam="1">  1       -1 0.29415794E-01 0.91170294E+02</pdfrwt>
<totfact> 0.70322318E+04</totfact>
</mgrwt>
</event>
<event>
 7    1  0.3607059E-009  0.9179740E+02  0.7818608E-02  0.1298557E+00
          1   -1    0    0  501    0  0.00000000000E+00  0.00000000000E+00  0.16688000690E+04  0.16688000690E+04  0.50400000000E-02 0. -1.
         -1   -1    0    0    0  501 -0.00000000000E+00 -0.00000000000E+00 -0.12623933445E+01  0.12624034054E+01  0.50400000000E-02 0.  1.
         23    2    1    2    0    0  0.00000000000E+00  0.00000000000E+00  0.16675376757E+04  0.16700624724E+04  0.91797396650E+02 0.  0.
    9000005    2    3    3    0    0  0.17597041418E+02  0.44380105859E+01  0.15998971769E+04  0.16000297024E+04  0.97324243787E+01 0.  0.
         22    1    3    3    0    0 -0.17597041418E+02 -0.44380105859E+01  0.67640498739E+02  0.70032770003E+02  0.00000000000E+00 0.  1.
         22    1    4    4    0    0  0.18746703669E+02  0.35618520393E+01  0.15157810256E+04  0.15159011324E+04  0.00000000000E+00 0.  1.
         22    1    4    4    0    0 -0.11496622510E+01  0.87615854662E+00  0.84116151378E+02  0.84128570057E+02  0.00000000000E+00 0.  1.
<mgrwt>
<rscale>  0 0.91797397E+02</rscale>
<asrwt>0</asrwt>
<pdfrwt beam="1">  1        1 0.25673854E+00 0.91797397E+02</pdfrwt>
<pdfrwt beam="2">  1       -1 0.19421508E-03 0.91797397E+02</pdfrwt>
<totfact> 0.98355913E+04</totfact>
</mgrwt>
</event>
<event>
 7    1  0.3607059E-009  0.9524376E+02  0.7818608E-02  0.1290628E+00
          1   -1    0    0  501    0  0.00000000000E+00  0.00000000000E+00  0.39904130940E+03  0.39904130943E+03  0.50400000000E-02 0. -1.
         -1   -1    0    0    0  501 -0.00000000000E+00 -0.00000000000E+00 -0.56832286925E+01  0.56832309273E+01  0.50400000000E-02 0.  1.
         23    2    1    2    0    0  0.35527136788E-14  0.35527136788E-14  0.39335808071E+03  0.40472454036E+03  0.95243760483E+02 0.  0.
    9000005    2    3    3    0    0  0.19457931871E+02  0.24699083689E+02  0.34853671983E+03  0.34997410439E+03  0.39208196539E+01 0.  0.
         22    1    3    3    0    0 -0.19457931871E+02 -0.24699083689E+02  0.44821360877E+02  0.54750435967E+02  0.00000000000E+00 0.  1.
         22    1    4    4    0    0  0.11013096155E+02  0.11094807883E+02  0.18112816125E+03  0.18180152322E+03  0.00000000000E+00 0.  1.
         22    1    4    4    0    0  0.84448357153E+01  0.13604275806E+02  0.16740855858E+03  0.16817258117E+03  0.00000000000E+00 0.  1.
<mgrwt>
<rscale>  0 0.95243760E+02</rscale>
<asrwt>0</asrwt>
<pdfrwt beam="1">  1        1 0.61390964E-01 0.95243760E+02</pdfrwt>
<pdfrwt beam="2">  1       -1 0.87434315E-03 0.95243760E+02</pdfrwt>
<totfact> 0.12004870E+05</totfact>
</mgrwt>
</event>
<event>
 7    1  0.3607059E-009  0.9096743E+02  0.7818608E-02  0.1300526E+00
         -1   -1    0    0    0  501 -0.00000000000E+00  0.00000000000E+00  0.32306259793E+02  0.32306260186E+02  0.50400000000E-02 0.  1.
          1   -1    0    0  501    0  0.00000000000E+00 -0.00000000000E+00 -0.64036140200E+02  0.64036140398E+02  0.50400000000E-02 0. -1.
         23    2    1    2    0    0  0.00000000000E+00  0.00000000000E+00 -0.31729880406E+02  0.96342400584E+02  0.90967427356E+02 0.  0.
    9000005    2    3    3    0    0 -0.41558571334E+02 -0.97941523923E+01 -0.29398187292E+02  0.53581705253E+02  0.13553798338E+02 0.  0.
         22    1    3    3    0    0  0.41558571334E+02  0.97941523923E+01 -0.23316931141E+01  0.42760695331E+02  0.00000000000E+00 0.  1.
         22    1    4    4    0    0 -0.20071267233E+02 -0.53777255270E+01 -0.22405056118E+02  0.30557523457E+02  0.00000000000E+00 0. -1.
         22    1    4    4    0    0 -0.21487304101E+02 -0.44164268653E+01 -0.69931311749E+01  0.23024181797E+02  0.00000000000E+00 0. -1.
<mgrwt>
<rscale>  0 0.90967427E+02</rscale>
<asrwt>0</asrwt>
<pdfrwt beam="2">  1        1 0.98517139E-02 0.90967427E+02</pdfrwt>
<pdfrwt beam="1">  1       -1 0.49701939E-02 0.90967427E+02</pdfrwt>
<totfact> 0.97950145E+04</totfact>
</mgrwt>
</event>
<event>
 7    1  0.3607059E-009  0.9154538E+02  0.7818608E-02  0.1299152E+00
          1   -1    0    0  501    0  0.00000000000E+00  0.00000000000E+00  0.40397050365E+03  0.40397050368E+03  0.50400000000E-02 0. -1.
         -1   -1    0    0    0  501 -0.00000000000E+00 -0.00000000000E+00 -0.51863655746E+01  0.51863680234E+01  0.50400000000E-02 0.  1.
         23    2    1    2    0    0  0.00000000000E+00  0.00000000000E+00  0.39878413807E+03  0.40915687170E+03  0.91545381547E+02 0.  0.
    9000005    2    3    3    0    0 -0.25648427753E+01  0.41898961066E+02  0.28086354588E+03  0.28398751675E+03  0.15738191498E+01 0.  0.
         22    1    3    3    0    0  0.25648427753E+01 -0.41898961066E+02  0.11792059219E+03  0.12516935495E+03  0.00000000000E+00 0.  1.
         22    1    4    4    0    0  0.18512985518E+00  0.48719187176E+01  0.31634165663E+02  0.32007660056E+02  0.00000000000E+00 0. -1.
         22    1    4    4    0    0 -0.27499726305E+01  0.37027042348E+02  0.24922938022E+03  0.25197985669E+03  0.00000000000E+00 0. -1.
<mgrwt>
<rscale>  0 0.91545382E+02</rscale>
<asrwt>0</asrwt>
<pdfrwt beam="1">  1        1 0.62149326E-01 0.91545382E+02</pdfrwt>
<pdfrwt beam="2">  1       -1 0.79790236E-03 0.91545382E+02</pdfrwt>
<totfact> 0.13366855E+05</totfact>
</mgrwt>
</event>
<event>
 7    1  0.3607059E-009  0.9229796E+02  0.7818608E-02  0.1297380E+00
          1   -1    0    0  501    0  0.00000000000E+00  0.00000000000E+00  0.16939161223E+03  0.16939161231E+03  0.50400000000E-02 0. -1.
         -1   -1    0    0    0  501 -0.00000000000E+00 -0.00000000000E+00 -0.12572807440E+02  0.12572808450E+02  0.50400000000E-02 0.  1.
         23    2    1    2    0    0  0.00000000000E+00  0.00000000000E+00  0.15681880479E+03  0.18196442076E+03  0.92297957101E+02 0.  0.
    9000005    2    3    3    0    0 -0.12935437583E+02  0.39339938452E+02  0.44311548426E+02  0.62077644848E+02  0.13234967440E+02 0.  0.
         22    1    3    3    0    0  0.12935437583E+02 -0.39339938452E+02  0.11250725637E+03  0.11988677591E+03  0.00000000000E+00 0. -1.
         22    1    4    4    0    0 -0.12177679058E+02  0.21905766708E+02  0.19556996974E+02  0.31790479911E+02  0.00000000000E+00 0.  1.
         22    1    4    4    0    0 -0.75775852490E+00  0.17434171743E+02  0.24754551452E+02  0.30287164938E+02  0.00000000000E+00 0.  1.
<mgrwt>
<rscale>  0 0.92297957E+02</rscale>
<asrwt>0</asrwt>
<pdfrwt beam="1">  1        1 0.26060247E-01 0.92297957E+02</pdfrwt>
<pdfrwt beam="2">  1       -1 0.19342783E-02 0.92297957E+02</pdfrwt>
<totfact> 0.11098262E+05</totfact>
</mgrwt>
</event>
<event>
 7    1  0.3607059E-009  0.9088373E+02  0.7818608E-02  0.1300726E+00
          1   -1    0    0  501    0  0.00000000000E+00  0.00000000000E+00  0.33192158352E+02  0.33192158734E+02  0.50400000000E-02 0. -1.
         -1   -1    0    0    0  501 -0.00000000000E+00 -0.00000000000E+00 -0.62212374219E+02  0.62212374423E+02  0.50400000000E-02 0.  1.
         23    2    1    2    0    0  0.00000000000E+00 -0.33306690739E-15 -0.29020215867E+02  0.95404533158E+02  0.90883728016E+02 0.  0.
    9000005    2    3    3    0    0 -0.41563631221E+02  0.55875181449E+00 -0.30477615968E+02  0.53811605166E+02  0.15458205961E+02 0.  0.
         22    1    3    3    0    0  0.41563631221E+02 -0.55875181449E+00  0.14574001003E+01  0.41592927992E+02  0.00000000000E+00 0. -1.
         22    1    4    4    0    0 -0.17633601541E+02 -0.60978726706E+01 -0.79589592698E+01  0.20284796944E+02  0.00000000000E+00 0.  1.
         22    1    4    4    0    0 -0.23930029681E+02  0.66566244851E+01 -0.22518656698E+02  0.33526808222E+02  0.00000000000E+00 0.  1.
<mgrwt>
<rscale>  0 0.90883728E+02</rscale>
<asrwt>0</asrwt>
<pdfrwt beam="1">  1        1 0.51064860E-02 0.90883728E+02</pdfrwt>
<pdfrwt beam="2">  1       -1 0.95711345E-02 0.90883728E+02</pdfrwt>
<totfact> 0.88903731E+04</totfact>
</mgrwt>
</event>
<event>
 7    1  0.3607059E-009  0.9266369E+02  0.7818608E-02  0.1296526E+00
         -1   -1    0    0    0  501 -0.00000000000E+00  0.00000000000E+00  0.96799051231E+01  0.96799064352E+01  0.50400000000E-02 0.  1.
          1   -1    0    0  501    0  0.00000000000E+00 -0.00000000000E+00 -0.22176249645E+03  0.22176249650E+03  0.50400000000E-02 0. -1.
         23    2    1    2    0    0  0.00000000000E+00  0.17763568394E-14 -0.21208259132E+03  0.23144240294E+03  0.92663694809E+02 0.  0.
    9000005    2    3    3    0    0  0.54497865751E+01  0.14807585916E+02 -0.21454514558E+03  0.21547277715E+03  0.12244730482E+02 0.  0.
         22    1    3    3    0    0 -0.54497865751E+01 -0.14807585916E+02  0.24625542604E+01  0.15969625790E+02  0.00000000000E+00 0.  1.
         22    1    4    4    0    0  0.62595091596E+01  0.95127072280E+01 -0.78439398446E+02  0.79261669691E+02  0.00000000000E+00 0.  1.
         22    1    4    4    0    0 -0.80972258445E+00  0.52948786880E+01 -0.13610574714E+03  0.13621110746E+03  0.00000000000E+00 0.  1.
<mgrwt>
<rscale>  0 0.92663695E+02</rscale>
<asrwt>0</asrwt>
<pdfrwt beam="2">  1        1 0.34117304E-01 0.92663695E+02</pdfrwt>
<pdfrwt beam="1">  1       -1 0.14892164E-02 0.92663695E+02</pdfrwt>
<totfact> 0.11568350E+05</totfact>
</mgrwt>
</event>
<event>
 6    1  0.5519070E-009  0.2100936E+03  0.7818608E-02  0.1141492E+00
          1   -1    0    0  501    0  0.00000000000E+00  0.00000000000E+00  0.48311596346E+02  0.48311596609E+02  0.50400000000E-02 0. -1.
         -1   -1    0    0    0  501 -0.00000000000E+00 -0.00000000000E+00 -0.22840959286E+03  0.22840959291E+03  0.50400000000E-02 0.  1.
    9000005    2    1    2    0    0 -0.44310334779E+02  0.25353103171E+02 -0.21065924944E+03  0.21722181314E+03  0.14206024130E+02 0.  0.
         22    1    1    2    0    0  0.44310334779E+02 -0.25353103171E+02  0.30561252931E+02  0.59499376378E+02  0.00000000000E+00 0. -1.
         22    1    3    3    0    0 -0.15802555946E+02  0.59051944059E+01 -0.96394808904E+02  0.97859855299E+02  0.00000000000E+00 0. -1.
         22    1    3    3    0    0 -0.28507778832E+02  0.19447908765E+02 -0.11426444054E+03  0.11936195785E+03  0.00000000000E+00 0. -1.
<mgrwt>
<rscale>  0 0.21009362E+03</rscale>
<asrwt>0</asrwt>
<pdfrwt beam="1">  1        1 0.74325535E-02 0.21009362E+03</pdfrwt>
<pdfrwt beam="2">  1       -1 0.35139937E-01 0.21009362E+03</pdfrwt>
<totfact> 0.72939831E+03</totfact>
</mgrwt>
</event>
<event>
 6    1  0.3607059E-009  0.1534569E+03  0.7818608E-02  0.1196288E+00
          1   -1    0    0  501    0  0.00000000000E+00  0.00000000000E+00  0.20160648816E+02  0.20160649446E+02  0.50400000000E-02 0. -1.
         -1   -1    0    0    0  501 -0.00000000000E+00 -0.00000000000E+00 -0.29201716729E+03  0.29201716733E+03  0.50400000000E-02 0.  1.
    9000005    2    1    2    0    0  0.29337040914E+02  0.66449745818E+02 -0.18620241625E+03  0.19987084497E+03  0.88552960030E+00 0.  0.
         22    1    1    2    0    0 -0.29337040914E+02 -0.66449745818E+02 -0.85654102216E+02  0.11230697180E+03  0.00000000000E+00 0.  1.
         22    1    3    3    0    0  0.13899262034E+02  0.32530283425E+02 -0.90319499500E+02  0.97000107293E+02  0.00000000000E+00 0. -1.
         22    1    3    3    0    0  0.15437778881E+02  0.33919462394E+02 -0.95882916754E+02  0.10287073768E+03  0.00000000000E+00 0. -1.
<mgrwt>
<rscale>  0 0.15345691E+03</rscale>
<asrwt>0</asrwt>
<pdfrwt beam="1">  1        1 0.31016385E-02 0.15345691E+03</pdfrwt>
<pdfrwt beam="2">  1       -1 0.44925715E-01 0.15345691E+03</pdfrwt>
<totfact> 0.15377658E+04</totfact>
</mgrwt>
</event>
<event>
 7    1  0.3607059E-009  0.9361223E+02  0.7818608E-02  0.1294333E+00
          1   -1    0    0  501    0  0.00000000000E+00  0.00000000000E+00  0.35562692648E+02  0.35562693005E+02  0.50400000000E-02 0. -1.
         -1   -1    0    0    0  501 -0.00000000000E+00 -0.00000000000E+00 -0.61604232582E+02  0.61604232788E+02  0.50400000000E-02 0.  1.
         23    2    1    2    0    0  0.35527136788E-14  0.00000000000E+00 -0.26041539933E+02  0.97166925793E+02  0.93612230323E+02 0.  0.
    9000005    2    3    3    0    0  0.29142732982E+02 -0.92437933731E+01  0.23000224873E+02  0.39375565739E+02  0.93101144711E+01 0.  0.
         22    1    3    3    0    0 -0.29142732982E+02  0.92437933731E+01 -0.49041764807E+02  0.57791360054E+02  0.00000000000E+00 0.  1.
         22    1    4    4    0    0  0.56644387846E+01 -0.57914380071E+01  0.43634471377E+01  0.92014287944E+01  0.00000000000E+00 0.  1.
         22    1    4    4    0    0  0.23478294197E+02 -0.34523553660E+01  0.18636777736E+02  0.30174136944E+02  0.00000000000E+00 0.  1.
<mgrwt>
<rscale>  0 0.93612230E+02</rscale>
<asrwt>0</asrwt>
<pdfrwt beam="1">  1        1 0.54711835E-02 0.93612230E+02</pdfrwt>
<pdfrwt beam="2">  1       -1 0.94775743E-02 0.93612230E+02</pdfrwt>
<totfact> 0.82595015E+04</totfact>
</mgrwt>
</event>
<event>
 7    1  0.3607059E-009  0.9101971E+02  0.7818608E-02  0.1300401E+00
         -1   -1    0    0    0  501 -0.00000000000E+00  0.00000000000E+00  0.14664724834E+01  0.14664811442E+01  0.50400000000E-02 0.  1.
          1   -1    0    0  501    0  0.00000000000E+00 -0.00000000000E+00 -0.14123282963E+04  0.14123282963E+04  0.50400000000E-02 0. -1.
         23    2    1    2    0    0  0.00000000000E+00  0.00000000000E+00 -0.14108618238E+04  0.14137947775E+04  0.91019705839E+02 0.  0.
    9000005    2    3    3    0    0  0.13471365649E+02 -0.26949612935E+02 -0.12306369754E+04  0.12310688753E+04  0.12468006586E+02 0.  0.
         22    1    3    3    0    0 -0.13471365649E+02  0.26949612935E+02 -0.18022484841E+03  0.18272590214E+03  0.00000000000E+00 0.  1.
         22    1    4    4    0    0  0.92855791404E+01 -0.15323080766E+02 -0.48744425035E+03  0.48777342689E+03  0.00000000000E+00 0. -1.
         22    1    4    4    0    0  0.41857865087E+01 -0.11626532169E+02 -0.74319272509E+03  0.74329544845E+03  0.00000000000E+00 0. -1.
<mgrwt>
<rscale>  0 0.91019706E+02</rscale>
<asrwt>0</asrwt>
<pdfrwt beam="2">  1        1 0.21728019E+00 0.91019706E+02</pdfrwt>
<pdfrwt beam="1">  1       -1 0.22561295E-03 0.91019706E+02</pdfrwt>
<totfact> 0.11624518E+05</totfact>
</mgrwt>
</event>
<event>
 7    1  0.3607059E-009  0.9067442E+02  0.7818608E-02  0.1301227E+00
          1   -1    0    0  501    0  0.00000000000E+00  0.00000000000E+00  0.21237191821E+02  0.21237192419E+02  0.50400000000E-02 0. -1.
         -1   -1    0    0    0  501 -0.00000000000E+00 -0.00000000000E+00 -0.96785994549E+02  0.96785994680E+02  0.50400000000E-02 0.  1.
         23    2    1    2    0    0  0.00000000000E+00  0.00000000000E+00 -0.75548802728E+02  0.11802318710E+03  0.90674423623E+02 0.  0.
    9000005    2    3    3    0    0  0.36695383492E+02  0.90508451431E+01 -0.97368350869E+01  0.42130604773E+02  0.15865463548E+02 0.  0.
         22    1    3    3    0    0 -0.36695383492E+02 -0.90508451431E+01 -0.65811967641E+02  0.75892582326E+02  0.00000000000E+00 0.  1.
         22    1    4    4    0    0  0.28773427273E+02  0.34484732164E+01 -0.87898750523E+00  0.28992666376E+02  0.00000000000E+00 0. -1.
         22    1    4    4    0    0  0.79219562187E+01  0.56023719267E+01 -0.88578475817E+01  0.13137938397E+02  0.00000000000E+00 0. -1.
<mgrwt>
<rscale>  0 0.90674424E+02</rscale>
<asrwt>0</asrwt>
<pdfrwt beam="1">  1        1 0.32672604E-02 0.90674424E+02</pdfrwt>
<pdfrwt beam="2">  1       -1 0.14890153E-01 0.90674424E+02</pdfrwt>
<totfact> 0.83034240E+04</totfact>
</mgrwt>
</event>
<event>
 7    1  0.3607059E-009  0.9251257E+02  0.7818608E-02  0.1296879E+00
          1   -1    0    0  501    0  0.00000000000E+00  0.00000000000E+00  0.92872670848E+01  0.92872684523E+01  0.50400000000E-02 0. -1.
         -1   -1    0    0    0  501 -0.00000000000E+00 -0.00000000000E+00 -0.23038464779E+03  0.23038464785E+03  0.50400000000E-02 0.  1.
         23    2    1    2    0    0 -0.71054273576E-14  0.00000000000E+00 -0.22109738071E+03  0.23967191630E+03  0.92512570536E+02 0.  0.
    9000005    2    3    3    0    0  0.40790227078E+02 -0.10804224025E+02 -0.15395538728E+03  0.16037108930E+03  0.15363955480E+02 0.  0.
         22    1    3    3    0    0 -0.40790227078E+02  0.10804224025E+02 -0.67141993430E+02  0.79300827004E+02  0.00000000000E+00 0.  1.
         22    1    4    4    0    0  0.31856438423E+02 -0.98512221874E+01 -0.13883188353E+03  0.14278014964E+03  0.00000000000E+00 0. -1.
         22    1    4    4    0    0  0.89337886555E+01 -0.95300183778E+00 -0.15123503749E+02  0.17590939654E+02  0.00000000000E+00 0. -1.
<mgrwt>
<rscale>  0 0.92512571E+02</rscale>
<asrwt>0</asrwt>
<pdfrwt beam="1">  1        1 0.14288106E-02 0.92512571E+02</pdfrwt>
<pdfrwt beam="2">  1       -1 0.35443788E-01 0.92512571E+02</pdfrwt>
<totfact> 0.64045399E+04</totfact>
</mgrwt>
</event>
<event>
 7    1  0.3607059E-009  0.8985323E+02  0.7818608E-02  0.1303208E+00
         -1   -1    0    0    0  501 -0.00000000000E+00  0.00000000000E+00  0.72652917010E+01  0.72652934491E+01  0.50400000000E-02 0.  1.
          1   -1    0    0  501    0  0.00000000000E+00 -0.00000000000E+00 -0.27781407238E+03  0.27781407243E+03  0.50400000000E-02 0. -1.
         23    2    1    2    0    0 -0.71054273576E-14 -0.17763568394E-14 -0.27054878068E+03  0.28507936588E+03  0.89853225433E+02 0.  0.
    9000005    2    3    3    0    0  0.39219103246E+02  0.81511911022E+01 -0.84018781281E+02  0.94296712966E+02  0.15104121701E+02 0.  0.
         22    1    3    3    0    0 -0.39219103246E+02 -0.81511911022E+01 -0.18652999940E+03  0.19078265291E+03  0.00000000000E+00 0.  1.
         22    1    4    4    0    0  0.35898998762E+02  0.86619813740E+01 -0.82904592418E+02  0.90757586335E+02  0.00000000000E+00 0. -1.
         22    1    4    4    0    0  0.33201044834E+01 -0.51079027178E+00 -0.11141888637E+01  0.35391266305E+01  0.00000000000E+00 0. -1.
<mgrwt>
<rscale>  0 0.89853225E+02</rscale>
<asrwt>0</asrwt>
<pdfrwt beam="2">  1        1 0.42740618E-01 0.89853225E+02</pdfrwt>
<pdfrwt beam="1">  1       -1 0.11177375E-02 0.89853225E+02</pdfrwt>
<totfact> 0.13125591E+05</totfact>
</mgrwt>
</event>
<event>
 7    1  0.3607059E-009  0.8729320E+02  0.7818608E-02  0.1309542E+00
          1   -1    0    0  501    0  0.00000000000E+00  0.00000000000E+00  0.10862923543E+03  0.10862923555E+03  0.50400000000E-02 0. -1.
         -1   -1    0    0    0  501 -0.00000000000E+00 -0.00000000000E+00 -0.17536951442E+02  0.17536952167E+02  0.50400000000E-02 0.  1.
         23    2    1    2    0    0  0.00000000000E+00  0.00000000000E+00  0.91092283992E+02  0.12616618772E+03  0.87293199737E+02 0.  0.
    9000005    2    3    3    0    0  0.41833381751E+01  0.11455118595E+02  0.10546214820E+03  0.10731909092E+03  0.15697213587E+02 0.  0.
         22    1    3    3    0    0 -0.41833381751E+01 -0.11455118595E+02 -0.14369864204E+02  0.18847096794E+02  0.00000000000E+00 0.  1.
         22    1    4    4    0    0  0.18557938918E+01  0.36110966814E+01  0.46401221395E+01  0.61656081355E+01  0.00000000000E+00 0.  1.
         22    1    4    4    0    0  0.23275442832E+01  0.78440219141E+01  0.10082202606E+03  0.10115348279E+03  0.00000000000E+00 0.  1.
<mgrwt>
<rscale>  0 0.87293200E+02</rscale>
<asrwt>0</asrwt>
<pdfrwt beam="1">  1        1 0.16712190E-01 0.87293200E+02</pdfrwt>
<pdfrwt beam="2">  1       -1 0.26979925E-02 0.87293200E+02</pdfrwt>
<totfact> 0.11917307E+05</totfact>
</mgrwt>
</event>
<event>
 7    1  0.3607059E-009  0.9097040E+02  0.7818608E-02  0.1300519E+00
          1   -1    0    0  501    0  0.00000000000E+00  0.00000000000E+00  0.30204570065E+03  0.30204570069E+03  0.50400000000E-02 0. -1.
         -1   -1    0    0    0  501 -0.00000000000E+00 -0.00000000000E+00 -0.68496365587E+01  0.68496384129E+01  0.50400000000E-02 0.  1.
         23    2    1    2    0    0  0.00000000000E+00  0.00000000000E+00  0.29519606409E+03  0.30889533911E+03  0.90970403241E+02 0.  0.
    9000005    2    3    3    0    0 -0.23430012338E+02  0.82216393584E+01  0.27666135675E+03  0.27790991982E+03  0.87095571782E+01 0.  0.
         22    1    3    3    0    0  0.23430012338E+02 -0.82216393584E+01  0.18534707348E+02  0.30985419287E+02  0.00000000000E+00 0.  1.
         22    1    4    4    0    0 -0.74740881406E+01  0.34974244868E+01  0.13931322046E+03  0.13955739811E+03  0.00000000000E+00 0.  1.
         22    1    4    4    0    0 -0.15955924198E+02  0.47242148716E+01  0.13734813628E+03  0.13835252171E+03  0.00000000000E+00 0.  1.
<mgrwt>
<rscale>  0 0.90970403E+02</rscale>
<asrwt>0</asrwt>
<pdfrwt beam="1">  1        1 0.46468570E-01 0.90970403E+02</pdfrwt>
<pdfrwt beam="2">  1       -1 0.10537904E-02 0.90970403E+02</pdfrwt>
<totfact> 0.12906504E+05</totfact>
</mgrwt>
</event>
<event>
 6    1  0.5193051E-009  0.1734464E+03  0.7818608E-02  0.1174301E+00
          1   -1    0    0  501    0  0.00000000000E+00  0.00000000000E+00  0.29072226790E+03  0.29072226794E+03  0.50400000000E-02 0. -1.
         -1   -1    0    0    0  501 -0.00000000000E+00 -0.00000000000E+00 -0.25869764671E+02  0.25869765162E+02  0.50400000000E-02 0.  1.
    9000005    2    1    2    0    0  0.30250142983E+02  0.50977560341E+02  0.24730023295E+03  0.25477079888E+03  0.15393892882E+02 0.  0.
         22    1    1    2    0    0 -0.30250142983E+02 -0.50977560341E+02  0.17552270282E+02  0.61821234223E+02  0.00000000000E+00 0.  1.
         22    1    3    3    0    0  0.28910793449E+01 -0.23675613531E+00  0.18055581379E+02  0.18287110547E+02  0.00000000000E+00 0.  1.
         22    1    3    3    0    0  0.27359063639E+02  0.51214316477E+02  0.22924465157E+03  0.23648368833E+03  0.00000000000E+00 0.  1.
<mgrwt>
<rscale>  0 0.17344644E+03</rscale>
<asrwt>0</asrwt>
<pdfrwt beam="1">  1        1 0.44726502E-01 0.17344644E+03</pdfrwt>
<pdfrwt beam="2">  1       -1 0.39799639E-02 0.17344644E+03</pdfrwt>
<totfact> 0.21557978E+04</totfact>
</mgrwt>
</event>
<event>
 7    1  0.3607059E-009  0.9116498E+02  0.7818608E-02  0.1300055E+00
          1   -1    0    0  501    0  0.00000000000E+00  0.00000000000E+00  0.40077559871E+03  0.40077559875E+03  0.50400000000E-02 0. -1.
         -1   -1    0    0    0  501 -0.00000000000E+00 -0.00000000000E+00 -0.51843542182E+01  0.51843566681E+01  0.50400000000E-02 0.  1.
         23    2    1    2    0    0  0.35527136788E-14  0.00000000000E+00  0.39559124450E+03  0.40595995541E+03  0.91164975061E+02 0.  0.
    9000005    2    3    3    0    0  0.31296446278E+02  0.12509413084E+02  0.33347529725E+03  0.33528928351E+03  0.87850324035E+01 0.  0.
         22    1    3    3    0    0 -0.31296446278E+02 -0.12509413084E+02  0.62115947249E+02  0.70670671909E+02  0.00000000000E+00 0.  1.
         22    1    4    4    0    0  0.28606413193E+02  0.13514627026E+02  0.31596805229E+03  0.31754807838E+03  0.00000000000E+00 0.  1.
         22    1    4    4    0    0  0.26900330852E+01 -0.10052139424E+01  0.17507244960E+02  0.17741205121E+02  0.00000000000E+00 0.  1.
<mgrwt>
<rscale>  0 0.91164975E+02</rscale>
<asrwt>0</asrwt>
<pdfrwt beam="1">  1        1 0.61657773E-01 0.91164975E+02</pdfrwt>
<pdfrwt beam="2">  1       -1 0.79759330E-03 0.91164975E+02</pdfrwt>
<totfact> 0.13498095E+05</totfact>
</mgrwt>
</event>
<event>
 7    1  0.3607059E-009  0.9053852E+02  0.7818608E-02  0.1301553E+00
         -1   -1    0    0    0  501 -0.00000000000E+00  0.00000000000E+00  0.26954869562E+01  0.26954916681E+01  0.50400000000E-02 0.  1.
          1   -1    0    0  501    0  0.00000000000E+00 -0.00000000000E+00 -0.76027230049E+03  0.76027230051E+03  0.50400000000E-02 0. -1.
         23    2    1    2    0    0  0.00000000000E+00  0.00000000000E+00 -0.75757681353E+03  0.76296779217E+03  0.90538519382E+02 0.  0.
    9000005    2    3    3    0    0 -0.28474048361E+02 -0.14905449609E+02 -0.64339306726E+03  0.64434708668E+03  0.13985180059E+02 0.  0.
         22    1    3    3    0    0  0.28474048361E+02  0.14905449609E+02 -0.11418374628E+03  0.11862070550E+03  0.00000000000E+00 0.  1.
         22    1    4    4    0    0 -0.78187985733E+00 -0.56087990865E+01 -0.13056358780E+03  0.13068634368E+03  0.00000000000E+00 0. -1.
         22    1    4    4    0    0 -0.27692168504E+02 -0.92966505228E+01 -0.51282947945E+03  0.51366074300E+03  0.00000000000E+00 0. -1.
<mgrwt>
<rscale>  0 0.90538519E+02</rscale>
<asrwt>0</asrwt>
<pdfrwt beam="2">  1        1 0.11696480E+00 0.90538519E+02</pdfrwt>
<pdfrwt beam="1">  1       -1 0.41469127E-03 0.90538519E+02</pdfrwt>
<totfact> 0.14446760E+05</totfact>
</mgrwt>
</event>
<event>
 7    1  0.3607059E-009  0.8996211E+02  0.7818608E-02  0.1302943E+00
          1   -1    0    0  501    0  0.00000000000E+00  0.00000000000E+00  0.27071935128E+03  0.27071935132E+03  0.50400000000E-02 0. -1.
         -1   -1    0    0    0  501 -0.00000000000E+00 -0.00000000000E+00 -0.74737728116E+01  0.74737745110E+01  0.50400000000E-02 0.  1.
         23    2    1    2    0    0 -0.71054273576E-14  0.00000000000E+00  0.26324557846E+03  0.27819312583E+03  0.89962106913E+02 0.  0.
    9000005    2    3    3    0    0 -0.32666541767E+02 -0.18119629572E+02  0.20557587933E+03  0.20948200501E+03  0.15028118082E+02 0.  0.
         22    1    3    3    0    0  0.32666541767E+02  0.18119629572E+02  0.57669699133E+02  0.68711120825E+02  0.00000000000E+00 0.  1.
         22    1    4    4    0    0 -0.31773227131E+02 -0.18808968348E+02  0.20482556792E+03  0.20812695291E+03  0.00000000000E+00 0.  1.
         22    1    4    4    0    0 -0.89331463651E+00  0.68933877543E+00  0.75031141188E+00  0.13550521030E+01  0.00000000000E+00 0.  1.
<mgrwt>
<rscale>  0 0.89962107E+02</rscale>
<asrwt>0</asrwt>
<pdfrwt beam="1">  1        1 0.41649135E-01 0.89962107E+02</pdfrwt>
<pdfrwt beam="2">  1       -1 0.11498112E-02 0.89962107E+02</pdfrwt>
<totfact> 0.13017850E+05</totfact>
</mgrwt>
</event>
<event>
 7    1  0.3607059E-009  0.8947662E+02  0.7818608E-02  0.1304124E+00
         -1   -1    0    0    0  501 -0.00000000000E+00  0.00000000000E+00  0.23794423928E+02  0.23794424462E+02  0.50400000000E-02 0.  1.
          1   -1    0    0  501    0  0.00000000000E+00 -0.00000000000E+00 -0.84117034121E+02  0.84117034272E+02  0.50400000000E-02 0. -1.
         23    2    1    2    0    0  0.00000000000E+00  0.00000000000E+00 -0.60322610193E+02  0.10791145873E+03  0.89476620552E+02 0.  0.
    9000005    2    3    3    0    0 -0.38181457861E+02  0.21439006777E+02 -0.32854245303E+02  0.56220397556E+02  0.12801442532E+02 0.  0.
         22    1    3    3    0    0  0.38181457861E+02 -0.21439006777E+02 -0.27468364890E+02  0.51691061178E+02  0.00000000000E+00 0.  1.
         22    1    4    4    0    0 -0.20776827272E+02  0.17612681878E+02 -0.24086947775E+02  0.36360200323E+02  0.00000000000E+00 0. -1.
         22    1    4    4    0    0 -0.17404630589E+02  0.38263248991E+01 -0.87672975286E+01  0.19860197233E+02  0.00000000000E+00 0. -1.
<mgrwt>
<rscale>  0 0.89476621E+02</rscale>
<asrwt>0</asrwt>
<pdfrwt beam="2">  1        1 0.12941082E-01 0.89476621E+02</pdfrwt>
<pdfrwt beam="1">  1       -1 0.36606807E-02 0.89476621E+02</pdfrwt>
<totfact> 0.10691377E+05</totfact>
</mgrwt>
</event>
<event>
 7    1  0.3607059E-009  0.9168347E+02  0.7818608E-02  0.1298825E+00
         -1   -1    0    0    0  501 -0.00000000000E+00  0.00000000000E+00  0.25593216837E+03  0.25593216842E+03  0.50400000000E-02 0.  1.
          1   -1    0    0  501    0  0.00000000000E+00 -0.00000000000E+00 -0.82110205869E+01  0.82110221337E+01  0.50400000000E-02 0. -1.
         23    2    1    2    0    0  0.00000000000E+00  0.00000000000E+00  0.24772114778E+03  0.26414319055E+03  0.91683466648E+02 0.  0.
    9000005    2    3    3    0    0 -0.12915154397E+02  0.37744332473E+02  0.60684151914E+02  0.72899174514E+02  0.63472438449E+01 0.  0.
         22    1    3    3    0    0  0.12915154397E+02 -0.37744332473E+02  0.18703699587E+03  0.19124401604E+03  0.00000000000E+00 0.  1.
         22    1    4    4    0    0 -0.22583938946E+01  0.85273201480E+01  0.91624429115E+01  0.12718722105E+02  0.00000000000E+00 0.  1.
         22    1    4    4    0    0 -0.10656760502E+02  0.29217012325E+02  0.51521709003E+02  0.60180452409E+02  0.00000000000E+00 0.  1.
<mgrwt>
<rscale>  0 0.91683467E+02</rscale>
<asrwt>0</asrwt>
<pdfrwt beam="2">  1        1 0.12632339E-02 0.91683467E+02</pdfrwt>
<pdfrwt beam="1">  1       -1 0.39374184E-01 0.91683467E+02</pdfrwt>
<totfact> 0.63323664E+04</totfact>
</mgrwt>
</event>
<event>
 7    1  0.3607059E-009  0.9317694E+02  0.7818608E-02  0.1295336E+00
          1   -1    0    0  501    0  0.00000000000E+00  0.00000000000E+00  0.27026570781E+02  0.27026571251E+02  0.50400000000E-02 0. -1.
         -1   -1    0    0    0  501 -0.00000000000E+00 -0.00000000000E+00 -0.80309321366E+02  0.80309321524E+02  0.50400000000E-02 0.  1.
         23    2    1    2    0    0  0.71054273576E-14 -0.55511151231E-16 -0.53282750585E+02  0.10733589277E+03  0.93176941182E+02 0.  0.
    9000005    2    3    3    0    0  0.44799761067E+02  0.27991474544E+00 -0.17890184367E+02  0.50241841531E+02  0.14038767746E+02 0.  0.
         22    1    3    3    0    0 -0.44799761067E+02 -0.27991474544E+00 -0.35392566218E+02  0.57094051244E+02  0.00000000000E+00 0.  1.
         22    1    4    4    0    0  0.59900714411E+01 -0.72288508468E+00 -0.82841085602E+01  0.10248413211E+02  0.00000000000E+00 0.  1.
         22    1    4    4    0    0  0.38809689626E+02  0.10027998301E+01 -0.96060758065E+01  0.39993428320E+02  0.00000000000E+00 0.  1.
<mgrwt>
<rscale>  0 0.93176941E+02</rscale>
<asrwt>0</asrwt>
<pdfrwt beam="1">  1        1 0.41579341E-02 0.93176941E+02</pdfrwt>
<pdfrwt beam="2">  1       -1 0.12355280E-01 0.93176941E+02</pdfrwt>
<totfact> 0.80018586E+04</totfact>
</mgrwt>
</event>
<event>
 7    1  0.3607059E-009  0.9285345E+02  0.7818608E-02  0.1296085E+00
          1   -1    0    0  501    0  0.00000000000E+00  0.00000000000E+00  0.23384017288E+02  0.23384017831E+02  0.50400000000E-02 0. -1.
         -1   -1    0    0    0  501 -0.00000000000E+00 -0.00000000000E+00 -0.92175801371E+02  0.92175801509E+02  0.50400000000E-02 0.  1.
         23    2    1    2    0    0  0.00000000000E+00 -0.17763568394E-14 -0.68791784083E+02  0.11555981934E+03  0.92853445216E+02 0.  0.
    9000005    2    3    3    0    0  0.27198853862E+02 -0.11108869601E+02  0.77736779120E+01  0.33550950272E+02  0.14214484185E+02 0.  0.
         22    1    3    3    0    0 -0.27198853862E+02  0.11108869601E+02 -0.76565461995E+02  0.82008869068E+02  0.00000000000E+00 0.  1.
         22    1    4    4    0    0  0.12946876708E+02 -0.91317689571E+01  0.10362776455E+02  0.18931401338E+02  0.00000000000E+00 0. -1.
         22    1    4    4    0    0  0.14251977154E+02 -0.19771006444E+01 -0.25890985427E+01  0.14619548934E+02  0.00000000000E+00 0. -1.
<mgrwt>
<rscale>  0 0.92853445E+02</rscale>
<asrwt>0</asrwt>
<pdfrwt beam="1">  1        1 0.35975412E-02 0.92853445E+02</pdfrwt>
<pdfrwt beam="2">  1       -1 0.14180892E-01 0.92853445E+02</pdfrwt>
<totfact> 0.78806676E+04</totfact>
</mgrwt>
</event>
<event>
 7    1  0.3607059E-009  0.8104683E+02  0.7818608E-02  0.1326107E+00
          1   -1    0    0  501    0  0.00000000000E+00  0.00000000000E+00  0.55609119270E+02  0.55609119499E+02  0.50400000000E-02 0. -1.
         -1   -1    0    0    0  501 -0.00000000000E+00 -0.00000000000E+00 -0.29530177786E+02  0.29530178216E+02  0.50400000000E-02 0.  1.
         23    2    1    2    0    0  0.00000000000E+00  0.00000000000E+00  0.26078941484E+02  0.85139297715E+02  0.81046831069E+02 0.  0.
    9000005    2    3    3    0    0 -0.32385687463E+02  0.21865376936E+02  0.14435761004E+02  0.44365640622E+02  0.15264056179E+02 0.  0.
         22    1    3    3    0    0  0.32385687463E+02 -0.21865376936E+02  0.11643180480E+02  0.40773657092E+02  0.00000000000E+00 0.  1.
         22    1    4    4    0    0 -0.12132687887E+02  0.38283890456E+00  0.66102410510E+01  0.13821865567E+02  0.00000000000E+00 0.  1.
         22    1    4    4    0    0 -0.20252999575E+02  0.21482538032E+02  0.78255199533E+01  0.30543775055E+02  0.00000000000E+00 0.  1.
<mgrwt>
<rscale>  0 0.81046831E+02</rscale>
<asrwt>0</asrwt>
<pdfrwt beam="1">  1        1 0.85552492E-02 0.81046831E+02</pdfrwt>
<pdfrwt beam="2">  1       -1 0.45431043E-02 0.81046831E+02</pdfrwt>
<totfact> 0.13180409E+05</totfact>
</mgrwt>
</event>
<event>
 7    1  0.3607059E-009  0.9023426E+02  0.7818608E-02  0.1302285E+00
         -1   -1    0    0    0  501 -0.00000000000E+00  0.00000000000E+00  0.95924748192E+01  0.95924761433E+01  0.50400000000E-02 0.  1.
          1   -1    0    0  501    0  0.00000000000E+00 -0.00000000000E+00 -0.21220335167E+03  0.21220335173E+03  0.50400000000E-02 0. -1.
         23    2    1    2    0    0 -0.35527136788E-14  0.00000000000E+00 -0.20261087686E+03  0.22179582788E+03  0.90234260920E+02 0.  0.
    9000005    2    3    3    0    0  0.20611057630E+02 -0.34446358103E+02 -0.59139711581E+02  0.72814813825E+02  0.13896918480E+02 0.  0.
         22    1    3    3    0    0 -0.20611057630E+02  0.34446358103E+02 -0.14347116527E+03  0.14898101405E+03  0.00000000000E+00 0. -1.
         22    1    4    4    0    0 -0.21583945058E+00 -0.56209029891E+01 -0.30423348308E+01  0.63950714073E+01  0.00000000000E+00 0.  1.
         22    1    4    4    0    0  0.20826897080E+02 -0.28825455114E+02 -0.56097376750E+02  0.66419742417E+02  0.00000000000E+00 0.  1.
<mgrwt>
<rscale>  0 0.90234261E+02</rscale>
<asrwt>0</asrwt>
<pdfrwt beam="2">  1        1 0.32646666E-01 0.90234261E+02</pdfrwt>
<pdfrwt beam="1">  1       -1 0.14757656E-02 0.90234261E+02</pdfrwt>
<totfact> 0.12315507E+05</totfact>
</mgrwt>
</event>
<event>
 7    1  0.3607059E-009  0.8986407E+02  0.7818608E-02  0.1303181E+00
         -1   -1    0    0    0  501 -0.00000000000E+00  0.00000000000E+00  0.62746116584E+02  0.62746116786E+02  0.50400000000E-02 0.  1.
          1   -1    0    0  501    0  0.00000000000E+00 -0.00000000000E+00 -0.32175500252E+02  0.32175500646E+02  0.50400000000E-02 0. -1.
         23    2    1    2    0    0  0.00000000000E+00  0.88817841970E-15  0.30570616332E+02  0.94921617432E+02  0.89864068865E+02 0.  0.
    9000005    2    3    3    0    0 -0.34422307343E+02 -0.74423716266E+01 -0.12494441892E+02  0.39289941401E+02  0.12136897414E+02 0.  0.
         22    1    3    3    0    0  0.34422307343E+02  0.74423716266E+01  0.43065058224E+02  0.55631676032E+02  0.00000000000E+00 0.  1.
         22    1    4    4    0    0 -0.12974938618E+02 -0.89235493628E+01 -0.55862700436E+01  0.16708835339E+02  0.00000000000E+00 0. -1.
         22    1    4    4    0    0 -0.21447368725E+02  0.14811777362E+01 -0.69081718486E+01  0.22581106062E+02  0.00000000000E+00 0. -1.
<mgrwt>
<rscale>  0 0.89864069E+02</rscale>
<asrwt>0</asrwt>
<pdfrwt beam="2">  1        1 0.49500771E-02 0.89864069E+02</pdfrwt>
<pdfrwt beam="1">  1       -1 0.96532486E-02 0.89864069E+02</pdfrwt>
<totfact> 0.91362468E+04</totfact>
</mgrwt>
</event>
<event>
 7    1  0.4058737E-009  0.9054470E+02  0.7818608E-02  0.1301538E+00
          1   -1    0    0  501    0  0.00000000000E+00  0.00000000000E+00  0.73888400584E+03  0.73888400586E+03  0.50400000000E-02 0. -1.
         -1   -1    0    0    0  501 -0.00000000000E+00 -0.00000000000E+00 -0.27738912712E+01  0.27738958499E+01  0.50400000000E-02 0.  1.
         23    2    1    2    0    0 -0.22204460493E-15  0.00000000000E+00  0.73611011457E+03  0.74165790171E+03  0.90544698321E+02 0.  0.
    9000005    2    3    3    0    0  0.63023935282E+00 -0.26823459102E+02  0.66391706322E+03  0.66464016464E+03  0.15517295469E+02 0.  0.
         22    1    3    3    0    0 -0.63023935282E+00  0.26823459102E+02  0.72193051351E+02  0.77017737069E+02  0.00000000000E+00 0.  1.
         22    1    4    4    0    0  0.34768292932E+01 -0.22678327970E+02  0.38829630844E+03  0.38897354415E+03  0.00000000000E+00 0. -1.
         22    1    4    4    0    0 -0.28465899404E+01 -0.41451311319E+01  0.27562075478E+03  0.27566662049E+03  0.00000000000E+00 0. -1.
<mgrwt>
<rscale>  0 0.90544698E+02</rscale>
<asrwt>0</asrwt>
<pdfrwt beam="1">  1        1 0.11367454E+00 0.90544698E+02</pdfrwt>
<pdfrwt beam="2">  1       -1 0.42675256E-03 0.90544698E+02</pdfrwt>
<totfact> 0.14463174E+05</totfact>
</mgrwt>
</event>
<event>
 7    1  0.3607059E-009  0.1068819E+03  0.7818608E-02  0.1266456E+00
          1   -1    0    0  501    0  0.00000000000E+00  0.00000000000E+00  0.19158085306E+03  0.19158085312E+03  0.50400000000E-02 0. -1.
         -1   -1    0    0    0  501 -0.00000000000E+00 -0.00000000000E+00 -0.14907197662E+02  0.14907198514E+02  0.50400000000E-02 0.  1.
         23    2    1    2    0    0  0.00000000000E+00  0.00000000000E+00  0.17667365540E+03  0.20648805164E+03  0.10688187385E+03 0.  0.
    9000005    2    3    3    0    0 -0.17930906788E+02  0.49314200960E+02  0.10035522873E+03  0.11387104411E+03  0.11917840359E+02 0.  0.
         22    1    3    3    0    0  0.17930906788E+02 -0.49314200960E+02  0.76318426666E+02  0.92617007527E+02  0.00000000000E+00 0. -1.
         22    1    4    4    0    0 -0.10619844417E+02  0.42043688155E+02  0.84096173028E+02  0.94618281146E+02  0.00000000000E+00 0.  1.
         22    1    4    4    0    0 -0.73110623707E+01  0.72705128045E+01  0.16259055701E+02  0.19252762963E+02  0.00000000000E+00 0.  1.
<mgrwt>
<rscale>  0 0.10688187E+03</rscale>
<asrwt>0</asrwt>
<pdfrwt beam="1">  1        1 0.29473977E-01 0.10688187E+03</pdfrwt>
<pdfrwt beam="2">  1       -1 0.22934151E-02 0.10688187E+03</pdfrwt>
<totfact> 0.76343677E+04</totfact>
</mgrwt>
</event>
<event>
 7    1  0.3607059E-009  0.9454566E+02  0.7818608E-02  0.1292203E+00
          1   -1    0    0  501    0  0.00000000000E+00  0.00000000000E+00  0.81074953725E+02  0.81074953882E+02  0.50400000000E-02 0. -1.
         -1   -1    0    0    0  501 -0.00000000000E+00 -0.00000000000E+00 -0.27563632999E+02  0.27563633460E+02  0.50400000000E-02 0.  1.
         23    2    1    2    0    0  0.00000000000E+00  0.00000000000E+00  0.53511320726E+02  0.10863858734E+03  0.94545656768E+02 0.  0.
    9000005    2    3    3    0    0 -0.18133864193E+02 -0.43356990111E+02  0.22602792042E+02  0.52389118300E+02  0.50067840057E+01 0.  0.
         22    1    3    3    0    0  0.18133864193E+02  0.43356990111E+02  0.30908528684E+02  0.56249469042E+02  0.00000000000E+00 0.  1.
         22    1    4    4    0    0 -0.13037904788E+02 -0.31588303714E+02  0.18847012936E+02  0.39025860521E+02  0.00000000000E+00 0. -1.
         22    1    4    4    0    0 -0.50959594054E+01 -0.11768686397E+02  0.37557791057E+01  0.13363257779E+02  0.00000000000E+00 0. -1.
<mgrwt>
<rscale>  0 0.94545657E+02</rscale>
<asrwt>0</asrwt>
<pdfrwt beam="1">  1        1 0.12473070E-01 0.94545657E+02</pdfrwt>
<pdfrwt beam="2">  1       -1 0.42405591E-02 0.94545657E+02</pdfrwt>
<totfact> 0.91360650E+04</totfact>
</mgrwt>
</event>
<event>
 7    1  0.3607059E-009  0.9194172E+02  0.7818608E-02  0.1298217E+00
         -1   -1    0    0    0  501 -0.00000000000E+00  0.00000000000E+00  0.15270057836E+01  0.15270141010E+01  0.50400000000E-02 0.  1.
          1   -1    0    0  501    0  0.00000000000E+00 -0.00000000000E+00 -0.13839595852E+04  0.13839595852E+04  0.50400000000E-02 0. -1.
         23    2    1    2    0    0  0.00000000000E+00  0.00000000000E+00 -0.13824325794E+04  0.13854865993E+04  0.91941721956E+02 0.  0.
    9000005    2    3    3    0    0 -0.10625760708E+02  0.27800116842E+02 -0.12146959509E+04  0.12151301206E+04  0.13007828769E+02 0.  0.
         22    1    3    3    0    0  0.10625760708E+02 -0.27800116842E+02 -0.16773662854E+03  0.17035647872E+03  0.00000000000E+00 0.  1.
         22    1    4    4    0    0 -0.57600297396E+01  0.10586783066E+02 -0.73846336430E+03  0.73856170923E+03  0.00000000000E+00 0.  1.
         22    1    4    4    0    0 -0.48657309688E+01  0.17213333775E+02 -0.47623258658E+03  0.47656841138E+03  0.00000000000E+00 0.  1.
<mgrwt>
<rscale>  0 0.91941722E+02</rscale>
<asrwt>0</asrwt>
<pdfrwt beam="2">  1        1 0.21291586E+00 0.91941722E+02</pdfrwt>
<pdfrwt beam="1">  1       -1 0.23492571E-03 0.91941722E+02</pdfrwt>
<totfact> 0.11479250E+05</totfact>
</mgrwt>
</event>
<event>
 7    1  0.3607059E-009  0.9156621E+02  0.7818608E-02  0.1299103E+00
         -1   -1    0    0    0  501 -0.00000000000E+00  0.00000000000E+00  0.24935903301E+03  0.24935903306E+03  0.50400000000E-02 0.  1.
          1   -1    0    0  501    0  0.00000000000E+00 -0.00000000000E+00 -0.84059223707E+01  0.84059238817E+01  0.50400000000E-02 0. -1.
         23    2    1    2    0    0  0.00000000000E+00  0.00000000000E+00  0.24095311064E+03  0.25776495694E+03  0.91566213752E+02 0.  0.
    9000005    2    3    3    0    0 -0.38364965214E+02  0.23140962030E+02  0.12214695900E+03  0.13079143078E+03  0.13384472057E+02 0.  0.
         22    1    3    3    0    0  0.38364965214E+02 -0.23140962030E+02  0.11880615164E+03  0.12697352616E+03  0.00000000000E+00 0. -1.
         22    1    4    4    0    0 -0.19323734564E+02  0.19056824449E+02  0.65958327890E+02  0.71323700784E+02  0.00000000000E+00 0.  1.
         22    1    4    4    0    0 -0.19041230650E+02  0.40841375813E+01  0.56188631111E+02  0.59467729994E+02  0.00000000000E+00 0.  1.
<mgrwt>
<rscale>  0 0.91566214E+02</rscale>
<asrwt>0</asrwt>
<pdfrwt beam="2">  1        1 0.12932191E-02 0.91566214E+02</pdfrwt>
<pdfrwt beam="1">  1       -1 0.38362922E-01 0.91566214E+02</pdfrwt>
<totfact> 0.64103367E+04</totfact>
</mgrwt>
</event>
<event>
 7    1  0.3607059E-009  0.1050943E+03  0.7818608E-02  0.1269934E+00
         -1   -1    0    0    0  501 -0.00000000000E+00  0.00000000000E+00  0.28572970910E+03  0.28572970915E+03  0.50400000000E-02 0.  1.
          1   -1    0    0  501    0  0.00000000000E+00 -0.00000000000E+00 -0.96636834066E+01  0.96636847209E+01  0.50400000000E-02 0. -1.
         23    2    1    2    0    0  0.00000000000E+00  0.00000000000E+00  0.27606602570E+03  0.29539339387E+03  0.10509427481E+03 0.  0.
    9000005    2    3    3    0    0 -0.17223990884E+02 -0.47779132436E+02  0.10269538539E+03  0.11473656372E+03  0.62149429591E+01 0.  0.
         22    1    3    3    0    0  0.17223990884E+02  0.47779132436E+02  0.17337064031E+03  0.18065683015E+03  0.00000000000E+00 0.  1.
         22    1    4    4    0    0 -0.60550125542E+01 -0.96005383083E+01  0.20991557877E+02  0.23863759447E+02  0.00000000000E+00 0.  1.
         22    1    4    4    0    0 -0.11168978329E+02 -0.38178594128E+02  0.81703827512E+02  0.90872804274E+02  0.00000000000E+00 0.  1.
<mgrwt>
<rscale>  0 0.10509427E+03</rscale>
<asrwt>0</asrwt>
<pdfrwt beam="2">  1        1 0.14867210E-02 0.10509427E+03</pdfrwt>
<pdfrwt beam="1">  1       -1 0.43958405E-01 0.10509427E+03</pdfrwt>
<totfact> 0.42508151E+04</totfact>
</mgrwt>
</event>
<event>
 7    1  0.3607059E-009  0.7525547E+02  0.7818608E-02  0.1343082E+00
          1   -1    0    0  501    0  0.00000000000E+00  0.00000000000E+00  0.93473824966E+02  0.93473825102E+02  0.50400000000E-02 0. -1.
         -1   -1    0    0    0  501 -0.00000000000E+00 -0.00000000000E+00 -0.15146981471E+02  0.15146982309E+02  0.50400000000E-02 0.  1.
         23    2    1    2    0    0 -0.88817841970E-15 -0.17763568394E-14  0.78326843496E+02  0.10862080741E+03  0.75255467513E+02 0.  0.
    9000005    2    3    3    0    0  0.46216409805E+01  0.12472681289E+02  0.89961073447E+02  0.90949286524E+02  0.13603821773E+01 0.  0.
         22    1    3    3    0    0 -0.46216409805E+01 -0.12472681289E+02 -0.11634229951E+02  0.17671520887E+02  0.00000000000E+00 0.  1.
         22    1    4    4    0    0  0.43274831479E+00  0.15459939344E+01  0.14071663141E+02  0.14162947147E+02  0.00000000000E+00 0. -1.
         22    1    4    4    0    0  0.41888926657E+01  0.10926687354E+02  0.75889410306E+02  0.76786339377E+02  0.00000000000E+00 0. -1.
<mgrwt>
<rscale>  0 0.75255468E+02</rscale>
<asrwt>0</asrwt>
<pdfrwt beam="1">  1        1 0.14380589E-01 0.75255468E+02</pdfrwt>
<pdfrwt beam="2">  1       -1 0.23303049E-02 0.75255468E+02</pdfrwt>
<totfact> 0.17330958E+05</totfact>
</mgrwt>
</event>
<event>
 7    1  0.3607059E-009  0.1004117E+03  0.7818608E-02  0.1279433E+00
         -1   -1    0    0    0  501 -0.00000000000E+00  0.00000000000E+00  0.41166851873E+02  0.41166852182E+02  0.50400000000E-02 0.  1.
          1   -1    0    0  501    0  0.00000000000E+00 -0.00000000000E+00 -0.61229487747E+02  0.61229487955E+02  0.50400000000E-02 0. -1.
         23    2    1    2    0    0  0.00000000000E+00  0.00000000000E+00 -0.20062635874E+02  0.10239634014E+03  0.10041165826E+03 0.  0.
    9000005    2    3    3    0    0  0.14802903588E+02 -0.30008046591E+02  0.26866656093E+02  0.44759830359E+02  0.12728565878E+02 0.  0.
         22    1    3    3    0    0 -0.14802903588E+02  0.30008046591E+02 -0.46929291967E+02  0.57636509778E+02  0.00000000000E+00 0. -1.
         22    1    4    4    0    0  0.14475579994E+02 -0.26188947508E+02  0.27767801704E+02  0.40822226779E+02  0.00000000000E+00 0. -1.
         22    1    4    4    0    0  0.32732359425E+00 -0.38190990826E+01 -0.90114561096E+00  0.39376035796E+01  0.00000000000E+00 0. -1.
<mgrwt>
<rscale>  0 0.10041166E+03</rscale>
<asrwt>0</asrwt>
<pdfrwt beam="2">  1        1 0.94199212E-02 0.10041166E+03</pdfrwt>
<pdfrwt beam="1">  1       -1 0.63333619E-02 0.10041166E+03</pdfrwt>
<totfact> 0.73828049E+04</totfact>
</mgrwt>
</event>
<event>
 7    1  0.4131392E-009  0.8931282E+02  0.7818608E-02  0.1304524E+00
          1   -1    0    0  501    0  0.00000000000E+00  0.00000000000E+00  0.58358061840E+02  0.58358062058E+02  0.50400000000E-02 0. -1.
         -1   -1    0    0    0  501 -0.00000000000E+00 -0.00000000000E+00 -0.34171712065E+02  0.34171712436E+02  0.50400000000E-02 0.  1.
         23    2    1    2    0    0 -0.44408920985E-15 -0.17763568394E-14  0.24186349775E+02  0.92529774494E+02  0.89312819083E+02 0.  0.
    9000005    2    3    3    0    0  0.36141594980E+01  0.11491359700E+02 -0.30737962366E+02  0.36299946459E+02  0.15091397743E+02 0.  0.
         22    1    3    3    0    0 -0.36141594980E+01 -0.11491359700E+02  0.54924312142E+02  0.56229828035E+02  0.00000000000E+00 0. -1.
         22    1    4    4    0    0  0.57213171127E+01  0.11457643195E+01 -0.21478081433E+02  0.22256554707E+02  0.00000000000E+00 0. -1.
         22    1    4    4    0    0 -0.21071576147E+01  0.10345595381E+02 -0.92598809330E+01  0.14043391752E+02  0.00000000000E+00 0. -1.
<mgrwt>
<rscale>  0 0.89312819E+02</rscale>
<asrwt>0</asrwt>
<pdfrwt beam="1">  1        1 0.89781634E-02 0.89312819E+02</pdfrwt>
<pdfrwt beam="2">  1       -1 0.52571865E-02 0.89312819E+02</pdfrwt>
<totfact> 0.10161944E+05</totfact>
</mgrwt>
</event>
<event>
 7    1  0.3607059E-009  0.9254204E+02  0.7818608E-02  0.1296810E+00
         -1   -1    0    0    0  501 -0.00000000000E+00  0.00000000000E+00  0.51922042053E+03  0.51922042056E+03  0.50400000000E-02 0.  1.
          1   -1    0    0  501    0  0.00000000000E+00 -0.00000000000E+00 -0.41235022357E+01  0.41235053158E+01  0.50400000000E-02 0. -1.
         23    2    1    2    0    0  0.00000000000E+00  0.00000000000E+00  0.51509691830E+03  0.52334392587E+03  0.92542041846E+02 0.  0.
    9000005    2    3    3    0    0 -0.36619998465E+02 -0.24510395696E+02  0.33719935884E+03  0.34007001763E+03  0.15574011848E+01 0.  0.
         22    1    3    3    0    0  0.36619998465E+02  0.24510395696E+02  0.17789755945E+03  0.18327390825E+03  0.00000000000E+00 0. -1.
         22    1    4    4    0    0 -0.14444822994E+02 -0.90581490880E+01  0.13481141265E+03  0.13588531914E+03  0.00000000000E+00 0.  1.
         22    1    4    4    0    0 -0.22175175471E+02 -0.15452246608E+02  0.20238794619E+03  0.20418469849E+03  0.00000000000E+00 0.  1.
<mgrwt>
<rscale>  0 0.92542042E+02</rscale>
<asrwt>0</asrwt>
<pdfrwt beam="2">  1        1 0.63438563E-03 0.92542042E+02</pdfrwt>
<pdfrwt beam="1">  1       -1 0.79880011E-01 0.92542042E+02</pdfrwt>
<totfact> 0.44183393E+04</totfact>
</mgrwt>
</event>
<event>
 7    1  0.3607059E-009  0.9082006E+02  0.7818608E-02  0.1300878E+00
         -1   -1    0    0    0  501 -0.00000000000E+00  0.00000000000E+00  0.78454973838E+01  0.78454990027E+01  0.50400000000E-02 0.  1.
          1   -1    0    0  501    0  0.00000000000E+00 -0.00000000000E+00 -0.26283488484E+03  0.26283488489E+03  0.50400000000E-02 0. -1.
         23    2    1    2    0    0  0.00000000000E+00 -0.88817841970E-15 -0.25498938746E+03  0.27068038389E+03  0.90820055650E+02 0.  0.
    9000005    2    3    3    0    0 -0.42952404412E+02 -0.65312729772E+01 -0.96038324036E+02  0.10589868851E+03  0.10178701897E+02 0.  0.
         22    1    3    3    0    0  0.42952404412E+02  0.65312729772E+01 -0.15895106342E+03  0.16478169539E+03  0.00000000000E+00 0. -1.
         22    1    4    4    0    0  0.36921485325E+00  0.50875344248E-01 -0.33924147893E+01  0.34128266893E+01  0.00000000000E+00 0.  1.
         22    1    4    4    0    0 -0.43321619265E+02 -0.65821483215E+01 -0.92645909247E+02  0.10248586182E+03  0.00000000000E+00 0.  1.
<mgrwt>
<rscale>  0 0.90820056E+02</rscale>
<asrwt>0</asrwt>
<pdfrwt beam="2">  1        1 0.40436129E-01 0.90820056E+02</pdfrwt>
<pdfrwt beam="1">  1       -1 0.12069999E-02 0.90820056E+02</pdfrwt>
<totfact> 0.12619806E+05</totfact>
</mgrwt>
</event>
<event>
 7    1  0.3607059E-009  0.9126432E+02  0.7818608E-02  0.1299819E+00
         -1   -1    0    0    0  501 -0.00000000000E+00  0.00000000000E+00  0.87736581834E+01  0.87736596310E+01  0.50400000000E-02 0.  1.
          1   -1    0    0  501    0  0.00000000000E+00 -0.00000000000E+00 -0.23733475995E+03  0.23733476000E+03  0.50400000000E-02 0. -1.
         23    2    1    2    0    0 -0.44408920985E-15  0.00000000000E+00 -0.22856110176E+03  0.24610841963E+03  0.91264324761E+02 0.  0.
    9000005    2    3    3    0    0 -0.38106082782E+01 -0.22571533143E+02 -0.22064915141E+03  0.22188872099E+03  0.49559702357E+01 0.  0.
         22    1    3    3    0    0  0.38106082782E+01  0.22571533143E+02 -0.79119503539E+01  0.24219698641E+02  0.00000000000E+00 0.  1.
         22    1    4    4    0    0  0.95328300858E+00 -0.15226094713E+01 -0.13681797938E+02  0.13799227620E+02  0.00000000000E+00 0. -1.
         22    1    4    4    0    0 -0.47638912868E+01 -0.21048923672E+02 -0.20696735347E+03  0.20808949337E+03  0.00000000000E+00 0. -1.
<mgrwt>
<rscale>  0 0.91264325E+02</rscale>
<asrwt>0</asrwt>
<pdfrwt beam="2">  1        1 0.36513035E-01 0.91264325E+02</pdfrwt>
<pdfrwt beam="1">  1       -1 0.13497939E-02 0.91264325E+02</pdfrwt>
<totfact> 0.12210904E+05</totfact>
</mgrwt>
</event>
<event>
 7    1  0.3607059E-009  0.9064107E+02  0.7818608E-02  0.1301307E+00
          1   -1    0    0  501    0  0.00000000000E+00  0.00000000000E+00  0.66456216175E+03  0.66456216177E+03  0.50400000000E-02 0. -1.
         -1   -1    0    0    0  501 -0.00000000000E+00 -0.00000000000E+00 -0.30906804643E+01  0.30906845737E+01  0.50400000000E-02 0.  1.
         23    2    1    2    0    0  0.00000000000E+00  0.00000000000E+00  0.66147148129E+03  0.66765284634E+03  0.90641065061E+02 0.  0.
    9000005    2    3    3    0    0  0.34479927792E+02  0.12852133929E+02  0.52441203775E+03  0.52573972563E+03  0.63427916089E+01 0.  0.
         22    1    3    3    0    0 -0.34479927792E+02 -0.12852133929E+02  0.13705944353E+03  0.14191312071E+03  0.00000000000E+00 0.  1.
         22    1    4    4    0    0  0.98481962621E+01  0.17090341212E+01  0.11348588568E+03  0.11392521238E+03  0.00000000000E+00 0.  1.
         22    1    4    4    0    0  0.24631731530E+02  0.11143099808E+02  0.41092615208E+03  0.41181451326E+03  0.00000000000E+00 0.  1.
<mgrwt>
<rscale>  0 0.90641065E+02</rscale>
<asrwt>0</asrwt>
<pdfrwt beam="1">  1        1 0.10224043E+00 0.90641065E+02</pdfrwt>
<pdfrwt beam="2">  1       -1 0.47548915E-03 0.90641065E+02</pdfrwt>
<totfact> 0.14438120E+05</totfact>
</mgrwt>
</event>
<event>
 7    1  0.3607059E-009  0.9041378E+02  0.7818608E-02  0.1301853E+00
         -1   -1    0    0    0  501 -0.00000000000E+00  0.00000000000E+00  0.35766849791E+01  0.35766885301E+01  0.50400000000E-02 0.  1.
          1   -1    0    0  501    0  0.00000000000E+00 -0.00000000000E+00 -0.57138440184E+03  0.57138440186E+03  0.50400000000E-02 0. -1.
         23    2    1    2    0    0  0.88817841970E-15  0.00000000000E+00 -0.56780771686E+03  0.57496109039E+03  0.90413782901E+02 0.  0.
    9000005    2    3    3    0    0  0.75851749206E+01  0.69750027200E+01 -0.56370564690E+03  0.56386998948E+03  0.88951194306E+01 0.  0.
         22    1    3    3    0    0 -0.75851749206E+01 -0.69750027200E+01 -0.41020699662E+01  0.11091100916E+02  0.00000000000E+00 0.  1.
         22    1    4    4    0    0  0.21727295966E+01 -0.33820001412E+00 -0.27702863811E+02  0.27789994539E+02  0.00000000000E+00 0.  1.
         22    1    4    4    0    0  0.54124453240E+01  0.73132027341E+01 -0.53600278309E+03  0.53607999494E+03  0.00000000000E+00 0.  1.
<mgrwt>
<rscale>  0 0.90413783E+02</rscale>
<asrwt>0</asrwt>
<pdfrwt beam="2">  1        1 0.87905220E-01 0.90413783E+02</pdfrwt>
<pdfrwt beam="1">  1       -1 0.55025996E-03 0.90413783E+02</pdfrwt>
<totfact> 0.14428506E+05</totfact>
</mgrwt>
</event>
<event>
 7    1  0.3607059E-009  0.1008288E+03  0.7818608E-02  0.1278563E+00
          1   -1    0    0  501    0  0.00000000000E+00  0.00000000000E+00  0.25272786575E+03  0.25272786580E+03  0.50400000000E-02 0. -1.
         -1   -1    0    0    0  501 -0.00000000000E+00 -0.00000000000E+00 -0.10056718339E+02  0.10056719602E+02  0.50400000000E-02 0.  1.
         23    2    1    2    0    0 -0.44408920985E-15  0.00000000000E+00  0.24267114741E+03  0.26278458540E+03  0.10082882792E+03 0.  0.
    9000005    2    3    3    0    0  0.35111432571E+01  0.33834292466E+02  0.21748238833E+03  0.22045774926E+03  0.12080666453E+02 0.  0.
         22    1    3    3    0    0 -0.35111432571E+01 -0.33834292466E+02  0.25188759082E+02  0.42326836141E+02  0.00000000000E+00 0.  1.
         22    1    4    4    0    0  0.50203705180E+01  0.34009406423E+02  0.20237682782E+03  0.20527597103E+03  0.00000000000E+00 0. -1.
         22    1    4    4    0    0 -0.15092272609E+01 -0.17511395725E+00  0.15105560511E+02  0.15181778228E+02  0.00000000000E+00 0. -1.
<mgrwt>
<rscale>  0 0.10082883E+03</rscale>
<asrwt>0</asrwt>
<pdfrwt beam="1">  1        1 0.38881206E-01 0.10082883E+03</pdfrwt>
<pdfrwt beam="2">  1       -1 0.15471877E-02 0.10082883E+03</pdfrwt>
<totfact> 0.94573446E+04</totfact>
</mgrwt>
</event>
<event>
 7    1  0.3607059E-009  0.8747028E+02  0.7818608E-02  0.1309096E+00
          1   -1    0    0  501    0  0.00000000000E+00  0.00000000000E+00  0.82464626972E+01  0.82464642374E+01  0.50400000000E-02 0. -1.
         -1   -1    0    0    0  501 -0.00000000000E+00 -0.00000000000E+00 -0.23194943270E+03  0.23194943275E+03  0.50400000000E-02 0.  1.
         23    2    1    2    0    0  0.00000000000E+00  0.35527136788E-14 -0.22370297000E+03  0.24019589699E+03  0.87470281489E+02 0.  0.
    9000005    2    3    3    0    0  0.29714427702E+02 -0.23557304732E+02 -0.17012166559E+03  0.17455406580E+03  0.94787638275E+01 0.  0.
         22    1    3    3    0    0 -0.29714427702E+02  0.23557304732E+02 -0.53581304413E+02  0.65641831194E+02  0.00000000000E+00 0. -1.
         22    1    4    4    0    0  0.77748986896E+01 -0.13922067978E+01 -0.33969005749E+02  0.34875215282E+02  0.00000000000E+00 0. -1.
         22    1    4    4    0    0  0.21939529012E+02 -0.22165097935E+02 -0.13615265984E+03  0.13967885051E+03  0.00000000000E+00 0. -1.
<mgrwt>
<rscale>  0 0.87470281E+02</rscale>
<asrwt>0</asrwt>
<pdfrwt beam="1">  1        1 0.12686869E-02 0.87470281E+02</pdfrwt>
<pdfrwt beam="2">  1       -1 0.35684523E-01 0.87470281E+02</pdfrwt>
<totfact> 0.73958959E+04</totfact>
</mgrwt>
</event>
<event>
 7    1  0.3607059E-009  0.9080038E+02  0.7818608E-02  0.1300925E+00
         -1   -1    0    0    0  501 -0.00000000000E+00  0.00000000000E+00  0.52096581405E+03  0.52096581408E+03  0.50400000000E-02 0.  1.
          1   -1    0    0  501    0  0.00000000000E+00 -0.00000000000E+00 -0.39564519900E+01  0.39564552001E+01  0.50400000000E-02 0. -1.
         23    2    1    2    0    0  0.00000000000E+00  0.00000000000E+00  0.51700936206E+03  0.52492226928E+03  0.90800376225E+02 0.  0.
    9000005    2    3    3    0    0 -0.34919015993E+02 -0.17417200577E+02  0.39085341522E+03  0.39286917587E+03  0.75564944327E+01 0.  0.
         22    1    3    3    0    0  0.34919015993E+02  0.17417200577E+02  0.12615594684E+03  0.13205309341E+03  0.00000000000E+00 0. -1.
         22    1    4    4    0    0 -0.16251679153E+02 -0.39486775777E+01  0.16695636442E+03  0.16779194483E+03  0.00000000000E+00 0.  1.
         22    1    4    4    0    0 -0.18667336840E+02 -0.13468522999E+02  0.22389705079E+03  0.22507723104E+03  0.00000000000E+00 0.  1.
<mgrwt>
<rscale>  0 0.90800376E+02</rscale>
<asrwt>0</asrwt>
<pdfrwt beam="2">  1        1 0.60868564E-03 0.90800376E+02</pdfrwt>
<pdfrwt beam="1">  1       -1 0.80148525E-01 0.90800376E+02</pdfrwt>
<totfact> 0.46343494E+04</totfact>
</mgrwt>
</event>
<event>
 7    1  0.3607059E-009  0.9117956E+02  0.7818608E-02  0.1300020E+00
         -1   -1    0    0    0  501 -0.00000000000E+00  0.00000000000E+00  0.22582263016E+02  0.22582263579E+02  0.50400000000E-02 0.  1.
          1   -1    0    0  501    0  0.00000000000E+00 -0.00000000000E+00 -0.92038070915E+02  0.92038071053E+02  0.50400000000E-02 0. -1.
         23    2    1    2    0    0  0.00000000000E+00  0.71054273576E-14 -0.69455807899E+02  0.11462033463E+03  0.91179558347E+02 0.  0.
    9000005    2    3    3    0    0 -0.95137043386E+01  0.34833037318E+02 -0.68601068822E+02  0.78501341873E+02  0.12349209419E+02 0.  0.
         22    1    3    3    0    0  0.95137043386E+01 -0.34833037318E+02 -0.85473907638E+00  0.36118992759E+02  0.00000000000E+00 0.  1.
         22    1    4    4    0    0 -0.12115138049E+02  0.32144641894E+02 -0.60352019133E+02  0.69443651876E+02  0.00000000000E+00 0. -1.
         22    1    4    4    0    0  0.26014337108E+01  0.26883954240E+01 -0.82490496892E+01  0.90576899971E+01  0.00000000000E+00 0. -1.
<mgrwt>
<rscale>  0 0.91179558E+02</rscale>
<asrwt>0</asrwt>
<pdfrwt beam="2">  1        1 0.14159703E-01 0.91179558E+02</pdfrwt>
<pdfrwt beam="1">  1       -1 0.34741944E-02 0.91179558E+02</pdfrwt>
<totfact> 0.10302642E+05</totfact>
</mgrwt>
</event>
<event>
 7    1  0.3607059E-009  0.1027041E+03  0.7818608E-02  0.1274710E+00
          1   -1    0    0  501    0  0.00000000000E+00  0.00000000000E+00  0.22592355850E+03  0.22592355856E+03  0.50400000000E-02 0. -1.
         -1   -1    0    0    0  501 -0.00000000000E+00 -0.00000000000E+00 -0.11672232621E+02  0.11672233709E+02  0.50400000000E-02 0.  1.
         23    2    1    2    0    0  0.00000000000E+00  0.00000000000E+00  0.21425132588E+03  0.23759579226E+03  0.10270408882E+03 0.  0.
    9000005    2    3    3    0    0  0.44886460945E+02  0.22435565213E+02  0.87536182501E+02  0.10130611355E+03  0.90662248712E+01 0.  0.
         22    1    3    3    0    0 -0.44886460945E+02 -0.22435565213E+02  0.12671514338E+03  0.13628967871E+03  0.00000000000E+00 0.  1.
         22    1    4    4    0    0  0.36906873004E+02  0.18254270978E+02  0.63957903814E+02  0.76065426733E+02  0.00000000000E+00 0. -1.
         22    1    4    4    0    0  0.79795879411E+01  0.41812942347E+01  0.23578278687E+02  0.25240686818E+02  0.00000000000E+00 0. -1.
<mgrwt>
<rscale>  0 0.10270409E+03</rscale>
<asrwt>0</asrwt>
<pdfrwt beam="1">  1        1 0.34757469E-01 0.10270409E+03</pdfrwt>
<pdfrwt beam="2">  1       -1 0.17957283E-02 0.10270409E+03</pdfrwt>
<totfact> 0.87975245E+04</totfact>
</mgrwt>
</event>
<event>
 7    1  0.3607059E-009  0.9055152E+02  0.7818608E-02  0.1301522E+00
         -1   -1    0    0    0  501 -0.00000000000E+00  0.00000000000E+00  0.16780906549E+02  0.16780907306E+02  0.50400000000E-02 0.  1.
          1   -1    0    0  501    0  0.00000000000E+00 -0.00000000000E+00 -0.12215635151E+03  0.12215635162E+03  0.50400000000E-02 0. -1.
         23    2    1    2    0    0  0.00000000000E+00  0.00000000000E+00 -0.10537544497E+03  0.13893725892E+03  0.90551518572E+02 0.  0.
    9000005    2    3    3    0    0  0.69427354627E+01  0.19544001373E+02  0.70680999158E+01  0.24596888316E+02  0.11174941300E+02 0.  0.
         22    1    3    3    0    0 -0.69427354627E+01 -0.19544001373E+02 -0.11244354488E+03  0.11434037061E+03  0.00000000000E+00 0. -1.
         22    1    4    4    0    0  0.93760991204E+01  0.18519323172E+02  0.71523341786E+01  0.21955237409E+02  0.00000000000E+00 0.  1.
         22    1    4    4    0    0 -0.24333636577E+01  0.10246782005E+01 -0.84234262749E-01  0.26416509073E+01  0.00000000000E+00 0.  1.
<mgrwt>
<rscale>  0 0.90551519E+02</rscale>
<asrwt>0</asrwt>
<pdfrwt beam="2">  1        1 0.18793284E-01 0.90551519E+02</pdfrwt>
<pdfrwt beam="1">  1       -1 0.25816781E-02 0.90551519E+02</pdfrwt>
<totfact> 0.11010688E+05</totfact>
</mgrwt>
</event>
<event>
 7    1  0.3607059E-009  0.9521437E+02  0.7818608E-02  0.1290694E+00
         -1   -1    0    0    0  501 -0.00000000000E+00  0.00000000000E+00  0.34496798147E+03  0.34496798150E+03  0.50400000000E-02 0.  1.
          1   -1    0    0  501    0  0.00000000000E+00 -0.00000000000E+00 -0.65700116002E+01  0.65700135333E+01  0.50400000000E-02 0. -1.
         23    2    1    2    0    0  0.00000000000E+00  0.00000000000E+00  0.33839796986E+03  0.35153799504E+03  0.95214368373E+02 0.  0.
    9000005    2    3    3    0    0  0.23144917748E+02 -0.39911766056E+02  0.20697022368E+03  0.21224733220E+03  0.91444106632E+01 0.  0.
         22    1    3    3    0    0 -0.23144917748E+02  0.39911766056E+02  0.13142774618E+03  0.13929066284E+03  0.00000000000E+00 0. -1.
         22    1    4    4    0    0  0.10351871537E+02 -0.24895776344E+02  0.13197848673E+03  0.13470442414E+03  0.00000000000E+00 0. -1.
         22    1    4    4    0    0  0.12793046211E+02 -0.15015989712E+02  0.74991736952E+02  0.77542908054E+02  0.00000000000E+00 0. -1.
<mgrwt>
<rscale>  0 0.95214368E+02</rscale>
<asrwt>0</asrwt>
<pdfrwt beam="2">  1        1 0.10107709E-02 0.95214368E+02</pdfrwt>
<pdfrwt beam="1">  1       -1 0.53072010E-01 0.95214368E+02</pdfrwt>
<totfact> 0.51013899E+04</totfact>
</mgrwt>
</event>
<event>
 7    1  0.3607059E-009  0.9376239E+02  0.7818608E-02  0.1293988E+00
         -1   -1    0    0    0  501 -0.00000000000E+00  0.00000000000E+00  0.43589367758E+01  0.43589396895E+01  0.50400000000E-02 0.  1.
          1   -1    0    0  501    0  0.00000000000E+00 -0.00000000000E+00 -0.50421597200E+03  0.50421597203E+03  0.50400000000E-02 0. -1.
         23    2    1    2    0    0  0.17763568394E-14 -0.71054273576E-14 -0.49985703523E+03  0.50857491172E+03  0.93762386715E+02 0.  0.
    9000005    2    3    3    0    0  0.91788051951E+01  0.45241655156E+02 -0.26713377765E+03  0.27131730395E+03  0.11025717001E+02 0.  0.
         22    1    3    3    0    0 -0.91788051951E+01 -0.45241655156E+02 -0.23272325757E+03  0.23725760776E+03  0.00000000000E+00 0.  1.
         22    1    4    4    0    0  0.82137541613E+01  0.37064811645E+02 -0.23924945915E+03  0.24224279086E+03  0.00000000000E+00 0.  1.
         22    1    4    4    0    0  0.96505103372E+00  0.81768435107E+01 -0.27884318506E+02  0.29074513097E+02  0.00000000000E+00 0.  1.
<mgrwt>
<rscale>  0 0.93762387E+02</rscale>
<asrwt>0</asrwt>
<pdfrwt beam="2">  1        1 0.77571642E-01 0.93762387E+02</pdfrwt>
<pdfrwt beam="1">  1       -1 0.67060628E-03 0.93762387E+02</pdfrwt>
<totfact> 0.12942970E+05</totfact>
</mgrwt>
</event>
<event>
 7    1  0.3607059E-009  0.9818880E+02  0.7818608E-02  0.1284151E+00
          1   -1    0    0  501    0  0.00000000000E+00  0.00000000000E+00  0.73806066310E+01  0.73806083518E+01  0.50400000000E-02 0. -1.
         -1   -1    0    0    0  501 -0.00000000000E+00 -0.00000000000E+00 -0.32656659713E+03  0.32656659717E+03  0.50400000000E-02 0.  1.
         23    2    1    2    0    0  0.17763568394E-14 -0.35527136788E-14 -0.31918599050E+03  0.33394720552E+03  0.98188795411E+02 0.  0.
    9000005    2    3    3    0    0 -0.10161901648E+02  0.19951448964E+02 -0.30808115408E+03  0.30895436749E+03  0.61220202939E+01 0.  0.
         22    1    3    3    0    0  0.10161901648E+02 -0.19951448964E+02 -0.11104836421E+02  0.24992838030E+02  0.00000000000E+00 0. -1.
         22    1    4    4    0    0 -0.10687269193E+02  0.17493744445E+02 -0.25962443706E+03  0.26043251935E+03  0.00000000000E+00 0.  1.
         22    1    4    4    0    0  0.52536754567E+00  0.24577045194E+01 -0.48456717023E+02  0.48521848143E+02  0.00000000000E+00 0.  1.
<mgrwt>
<rscale>  0 0.98188795E+02</rscale>
<asrwt>0</asrwt>
<pdfrwt beam="1">  1        1 0.11354783E-02 0.98188795E+02</pdfrwt>
<pdfrwt beam="2">  1       -1 0.50241004E-01 0.98188795E+02</pdfrwt>
<totfact> 0.48182394E+04</totfact>
</mgrwt>
</event>
<event>
 7    1  0.3607059E-009  0.9318930E+02  0.7818608E-02  0.1295307E+00
         -1   -1    0    0    0  501 -0.00000000000E+00  0.00000000000E+00  0.41243823566E+02  0.41243823874E+02  0.50400000000E-02 0.  1.
          1   -1    0    0  501    0  0.00000000000E+00 -0.00000000000E+00 -0.52639677468E+02  0.52639677709E+02  0.50400000000E-02 0. -1.
         23    2    1    2    0    0  0.71054273576E-14  0.00000000000E+00 -0.11395853902E+02  0.93883501583E+02  0.93189304018E+02 0.  0.
    9000005    2    3    3    0    0  0.32391329847E+02 -0.17258334556E+02 -0.34566185271E+02  0.50479439369E+02  0.25108313092E+01 0.  0.
         22    1    3    3    0    0 -0.32391329847E+02  0.17258334556E+02  0.23170331369E+02  0.43404062214E+02  0.00000000000E+00 0.  1.
         22    1    4    4    0    0  0.76943326482E+01 -0.50810563860E+01 -0.77818901798E+01  0.12065558573E+02  0.00000000000E+00 0.  1.
         22    1    4    4    0    0  0.24696997199E+02 -0.12177278170E+02 -0.26784295091E+02  0.38413880796E+02  0.00000000000E+00 0.  1.
<mgrwt>
<rscale>  0 0.93189304E+02</rscale>
<asrwt>0</asrwt>
<pdfrwt beam="2">  1        1 0.80984120E-02 0.93189304E+02</pdfrwt>
<pdfrwt beam="1">  1       -1 0.63452036E-02 0.93189304E+02</pdfrwt>
<totfact> 0.88894681E+04</totfact>
</mgrwt>
</event>
<event>
 7    1  0.3607059E-009  0.9189371E+02  0.7818608E-02  0.1298330E+00
         -1   -1    0    0    0  501 -0.00000000000E+00  0.00000000000E+00  0.41753500053E+01  0.41753530471E+01  0.50400000000E-02 0.  1.
          1   -1    0    0  501    0  0.00000000000E+00 -0.00000000000E+00 -0.50561336908E+03  0.50561336911E+03  0.50400000000E-02 0. -1.
         23    2    1    2    0    0  0.00000000000E+00  0.35527136788E-14 -0.50143801908E+03  0.50978872216E+03  0.91893711755E+02 0.  0.
    9000005    2    3    3    0    0  0.30001672754E+02 -0.30584706819E+02 -0.33038146136E+03  0.33344850951E+03  0.14158877839E+02 0.  0.
         22    1    3    3    0    0 -0.30001672754E+02  0.30584706819E+02 -0.17105655772E+03  0.17634021265E+03  0.00000000000E+00 0.  1.
         22    1    4    4    0    0  0.23065591490E+02 -0.29552388167E+02 -0.29555908722E+03  0.29792707026E+03  0.00000000000E+00 0. -1.
         22    1    4    4    0    0  0.69360812642E+01 -0.10323186523E+01 -0.34822374146E+02  0.35521439248E+02  0.00000000000E+00 0. -1.
<mgrwt>
<rscale>  0 0.91893712E+02</rscale>
<asrwt>0</asrwt>
<pdfrwt beam="2">  1        1 0.77786624E-01 0.91893712E+02</pdfrwt>
<pdfrwt beam="1">  1       -1 0.64236218E-03 0.91893712E+02</pdfrwt>
<totfact> 0.13658036E+05</totfact>
</mgrwt>
</event>
<event>
 7    1  0.3607059E-009  0.8757982E+02  0.7818608E-02  0.1308821E+00
          1   -1    0    0  501    0  0.00000000000E+00  0.00000000000E+00  0.17083359768E+03  0.17083359775E+03  0.50400000000E-02 0. -1.
         -1   -1    0    0    0  501 -0.00000000000E+00 -0.00000000000E+00 -0.11224700517E+02  0.11224701648E+02  0.50400000000E-02 0.  1.
         23    2    1    2    0    0  0.00000000000E+00 -0.17763568394E-14  0.15960889716E+03  0.18205829940E+03  0.87579816897E+02 0.  0.
    9000005    2    3    3    0    0  0.15029516947E+02  0.14135552704E+02  0.15977515710E+03  0.16142512533E+03  0.10211269919E+02 0.  0.
         22    1    3    3    0    0 -0.15029516947E+02 -0.14135552704E+02 -0.16625993228E+00  0.20633174072E+02  0.00000000000E+00 0.  1.
         22    1    4    4    0    0  0.10416506532E+01  0.15719712035E+01  0.51153772450E+02  0.51188519859E+02  0.00000000000E+00 0.  1.
         22    1    4    4    0    0  0.13987866294E+02  0.12563581500E+02  0.10862138465E+03  0.11023660547E+03  0.00000000000E+00 0.  1.
<mgrwt>
<rscale>  0 0.87579817E+02</rscale>
<asrwt>0</asrwt>
<pdfrwt beam="1">  1        1 0.26282093E-01 0.87579817E+02</pdfrwt>
<pdfrwt beam="2">  1       -1 0.17268770E-02 0.87579817E+02</pdfrwt>
<totfact> 0.12797690E+05</totfact>
</mgrwt>
</event>
<event>
 7    1  0.3607059E-009  0.9021963E+02  0.7818608E-02  0.1302321E+00
         -1   -1    0    0    0  501 -0.00000000000E+00  0.00000000000E+00  0.53308675431E+02  0.53308675669E+02  0.50400000000E-02 0.  1.
          1   -1    0    0  501    0  0.00000000000E+00 -0.00000000000E+00 -0.38171933200E+02  0.38171933532E+02  0.50400000000E-02 0. -1.
         23    2    1    2    0    0  0.00000000000E+00  0.00000000000E+00  0.15136742231E+02  0.91480609201E+02  0.90219625883E+02 0.  0.
    9000005    2    3    3    0    0 -0.41154812818E+02  0.14817654153E+02  0.10035994106E+01  0.45512933400E+02  0.12535485719E+02 0.  0.
         22    1    3    3    0    0  0.41154812818E+02 -0.14817654153E+02  0.14133142820E+02  0.45967675802E+02  0.00000000000E+00 0.  1.
         22    1    4    4    0    0 -0.22302635511E+02  0.51983663243E+01  0.61899287141E+01  0.23722263397E+02  0.00000000000E+00 0.  1.
         22    1    4    4    0    0 -0.18852177306E+02  0.96192878287E+01 -0.51863293035E+01  0.21790670003E+02  0.00000000000E+00 0.  1.
<mgrwt>
<rscale>  0 0.90219626E+02</rscale>
<asrwt>0</asrwt>
<pdfrwt beam="2">  1        1 0.58726052E-02 0.90219626E+02</pdfrwt>
<pdfrwt beam="1">  1       -1 0.82013347E-02 0.90219626E+02</pdfrwt>
<totfact> 0.92745608E+04</totfact>
</mgrwt>
</event>
<event>
 7    1  0.3607059E-009  0.9152904E+02  0.7818608E-02  0.1299191E+00
         -1   -1    0    0    0  501 -0.00000000000E+00  0.00000000000E+00  0.80772856580E+02  0.80772856738E+02  0.50400000000E-02 0.  1.
          1   -1    0    0  501    0  0.00000000000E+00 -0.00000000000E+00 -0.25929395249E+02  0.25929395739E+02  0.50400000000E-02 0. -1.
         23    2    1    2    0    0  0.00000000000E+00  0.00000000000E+00  0.54843461331E+02  0.10670225248E+03  0.91529041473E+02 0.  0.
    9000005    2    3    3    0    0 -0.23461623136E+02 -0.20124948526E+02  0.65541109056E+02  0.73992911606E+02  0.14961707069E+02 0.  0.
         22    1    3    3    0    0  0.23461623136E+02  0.20124948526E+02 -0.10697647725E+02  0.32709340870E+02  0.00000000000E+00 0. -1.
         22    1    4    4    0    0 -0.17848319101E+02 -0.88581140892E+01  0.27766035873E+02  0.34175743270E+02  0.00000000000E+00 0. -1.
         22    1    4    4    0    0 -0.56133040355E+01 -0.11266834436E+02  0.37775073182E+02  0.39817168337E+02  0.00000000000E+00 0. -1.
<mgrwt>
<rscale>  0 0.91529041E+02</rscale>
<asrwt>0</asrwt>
<pdfrwt beam="2">  1        1 0.39891378E-02 0.91529041E+02</pdfrwt>
<pdfrwt beam="1">  1       -1 0.12426593E-01 0.91529041E+02</pdfrwt>
<totfact> 0.83681756E+04</totfact>
</mgrwt>
</event>
<event>
 7    1  0.3607059E-009  0.9128199E+02  0.7818608E-02  0.1299777E+00
         -1   -1    0    0    0  501 -0.00000000000E+00  0.00000000000E+00  0.21005777141E+02  0.21005777746E+02  0.50400000000E-02 0.  1.
          1   -1    0    0  501    0  0.00000000000E+00 -0.00000000000E+00 -0.99167965714E+02  0.99167965842E+02  0.50400000000E-02 0. -1.
         23    2    1    2    0    0  0.00000000000E+00  0.00000000000E+00 -0.78162188573E+02  0.12017374359E+03  0.91281985766E+02 0.  0.
    9000005    2    3    3    0    0  0.26035224192E+02 -0.71744804296E+01 -0.87510027334E+02  0.91595987244E+02  0.15855367905E+01 0.  0.
         22    1    3    3    0    0 -0.26035224192E+02  0.71744804296E+01  0.93478387616E+01  0.28577756344E+02  0.00000000000E+00 0.  1.
         22    1    4    4    0    0  0.61027031160E+01 -0.19121032225E+01 -0.18634110031E+02  0.19700994409E+02  0.00000000000E+00 0.  1.
         22    1    4    4    0    0  0.19932521076E+02 -0.52623772071E+01 -0.68875917304E+02  0.71894992835E+02  0.00000000000E+00 0.  1.
<mgrwt>
<rscale>  0 0.91281986E+02</rscale>
<asrwt>0</asrwt>
<pdfrwt beam="2">  1        1 0.15256610E-01 0.91281986E+02</pdfrwt>
<pdfrwt beam="1">  1       -1 0.32316581E-02 0.91281986E+02</pdfrwt>
<totfact> 0.10397925E+05</totfact>
</mgrwt>
</event>
<event>
 7    1  0.3607059E-009  0.9527285E+02  0.7818608E-02  0.1290563E+00
          1   -1    0    0  501    0  0.00000000000E+00  0.00000000000E+00  0.34147888936E+03  0.34147888940E+03  0.50400000000E-02 0. -1.
         -1   -1    0    0    0  501 -0.00000000000E+00 -0.00000000000E+00 -0.66452963513E+01  0.66452982626E+01  0.50400000000E-02 0.  1.
         23    2    1    2    0    0  0.00000000000E+00  0.00000000000E+00  0.33483359301E+03  0.34812418766E+03  0.95272845170E+02 0.  0.
    9000005    2    3    3    0    0 -0.19249674403E+02  0.38219838827E+02  0.23998325082E+03  0.24406702328E+03  0.12060063687E+02 0.  0.
         22    1    3    3    0    0  0.19249674403E+02 -0.38219838827E+02  0.94850342192E+02  0.10405716438E+03  0.00000000000E+00 0.  1.
         22    1    4    4    0    0 -0.18356346506E+02  0.28441734456E+02  0.16441737572E+03  0.16786590230E+03  0.00000000000E+00 0. -1.
         22    1    4    4    0    0 -0.89332789678E+00  0.97781043710E+01  0.75565875100E+02  0.76201120986E+02  0.00000000000E+00 0. -1.
<mgrwt>
<rscale>  0 0.95272845E+02</rscale>
<asrwt>0</asrwt>
<pdfrwt beam="1">  1        1 0.52535214E-01 0.95272845E+02</pdfrwt>
<pdfrwt beam="2">  1       -1 0.10223534E-02 0.95272845E+02</pdfrwt>
<totfact> 0.11673253E+05</totfact>
</mgrwt>
</event>
<event>
 7    1  0.3607059E-009  0.9134460E+02  0.7818608E-02  0.1299628E+00
          1   -1    0    0  501    0  0.00000000000E+00  0.00000000000E+00  0.73014565952E+02  0.73014566126E+02  0.50400000000E-02 0. -1.
         -1   -1    0    0    0  501 -0.00000000000E+00 -0.00000000000E+00 -0.28569079394E+02  0.28569079839E+02  0.50400000000E-02 0.  1.
         23    2    1    2    0    0  0.00000000000E+00  0.00000000000E+00  0.44445486558E+02  0.10158364597E+03  0.91344599469E+02 0.  0.
    9000005    2    3    3    0    0 -0.53998099137E+01 -0.23444852440E+02 -0.20927887274E+02  0.31923779046E+02  0.15271377755E+01 0.  0.
         22    1    3    3    0    0  0.53998099137E+01  0.23444852440E+02  0.65373373832E+02  0.69659866919E+02  0.00000000000E+00 0. -1.
         22    1    4    4    0    0 -0.53370993165E+01 -0.22275703547E+02 -0.20231527571E+02  0.30561516741E+02  0.00000000000E+00 0.  1.
         22    1    4    4    0    0 -0.62710597129E-01 -0.11691488923E+01 -0.69635970309E+00  0.13622623050E+01  0.00000000000E+00 0.  1.
<mgrwt>
<rscale>  0 0.91344599E+02</rscale>
<asrwt>0</asrwt>
<pdfrwt beam="1">  1        1 0.11233010E-01 0.91344599E+02</pdfrwt>
<pdfrwt beam="2">  1       -1 0.43952430E-02 0.91344599E+02</pdfrwt>
<totfact> 0.98811329E+04</totfact>
</mgrwt>
</event>
<event>
 6    1  0.3607059E-009  0.3851330E+03  0.7818608E-02  0.1049053E+00
         -1   -1    0    0    0  501 -0.00000000000E+00  0.00000000000E+00  0.36296102752E+02  0.36296103102E+02  0.50400000000E-02 0.  1.
          1   -1    0    0  501    0  0.00000000000E+00 -0.00000000000E+00 -0.10216481847E+04  0.10216481847E+04  0.50400000000E-02 0. -1.
    9000005    2    1    2    0    0  0.15098651302E+03 -0.11690541599E+03 -0.42496419401E+03  0.46591524432E+03  0.43180194279E+01 0.  0.
         22    1    1    2    0    0 -0.15098651302E+03  0.11690541599E+03 -0.56038788789E+03  0.59202904346E+03  0.00000000000E+00 0.  1.
         22    1    3    3    0    0  0.24956486949E+02 -0.21292762335E+02 -0.71836121446E+02  0.78972376899E+02  0.00000000000E+00 0.  1.
         22    1    3    3    0    0  0.12603002607E+03 -0.95612653651E+02 -0.35312807257E+03  0.38694286742E+03  0.00000000000E+00 0.  1.
<mgrwt>
<rscale>  0 0.38513295E+03</rscale>
<asrwt>0</asrwt>
<pdfrwt beam="2">  1        1 0.15717662E+00 0.38513295E+03</pdfrwt>
<pdfrwt beam="1">  1       -1 0.55840166E-02 0.38513295E+03</pdfrwt>
<totfact> 0.22988307E+03</totfact>
</mgrwt>
</event>
<event>
 7    1  0.3607059E-009  0.9597821E+02  0.7818608E-02  0.1288988E+00
          1   -1    0    0  501    0  0.00000000000E+00  0.00000000000E+00  0.15757213571E+03  0.15757213579E+03  0.50400000000E-02 0. -1.
         -1   -1    0    0    0  501 -0.00000000000E+00 -0.00000000000E+00 -0.14615237975E+02  0.14615238844E+02  0.50400000000E-02 0.  1.
         23    2    1    2    0    0 -0.17763568394E-14  0.00000000000E+00  0.14295689773E+03  0.17218737463E+03  0.95978213014E+02 0.  0.
    9000005    2    3    3    0    0 -0.12277387378E+02 -0.44181017274E+02  0.53026406556E+02  0.71240904800E+02  0.12679518774E+02 0.  0.
         22    1    3    3    0    0  0.12277387378E+02  0.44181017274E+02  0.89930491178E+02  0.10094646983E+03  0.00000000000E+00 0. -1.
         22    1    4    4    0    0 -0.12451474452E+02 -0.43859139681E+02  0.48001806338E+02  0.66202996619E+02  0.00000000000E+00 0. -1.
         22    1    4    4    0    0  0.17408707382E+00 -0.32187759261E+00  0.50246002180E+01  0.50379081815E+01  0.00000000000E+00 0. -1.
<mgrwt>
<rscale>  0 0.95978213E+02</rscale>
<asrwt>0</asrwt>
<pdfrwt beam="1">  1        1 0.24241867E-01 0.95978213E+02</pdfrwt>
<pdfrwt beam="2">  1       -1 0.22484982E-02 0.95978213E+02</pdfrwt>
<totfact> 0.98491346E+04</totfact>
</mgrwt>
</event>
<event>
 7    1  0.3607059E-009  0.8789464E+02  0.7818608E-02  0.1308032E+00
          1   -1    0    0  501    0  0.00000000000E+00  0.00000000000E+00  0.61585948221E+03  0.61585948223E+03  0.50400000000E-02 0. -1.
         -1   -1    0    0    0  501 -0.00000000000E+00 -0.00000000000E+00 -0.31360491906E+01  0.31360532405E+01  0.50400000000E-02 0.  1.
         23    2    1    2    0    0  0.00000000000E+00  0.00000000000E+00  0.61272343302E+03  0.61899553548E+03  0.87894638984E+02 0.  0.
    9000005    2    3    3    0    0 -0.99232383561E+01  0.14585008922E+02  0.58953719680E+03  0.58986145415E+03  0.84401143752E+01 0.  0.
         22    1    3    3    0    0  0.99232383561E+01 -0.14585008922E+02  0.23186236223E+02  0.29134081330E+02  0.00000000000E+00 0.  1.
         22    1    4    4    0    0 -0.47761145287E+01  0.12772923858E+02  0.47305705718E+03  0.47325356650E+03  0.00000000000E+00 0. -1.
         22    1    4    4    0    0 -0.51471238274E+01  0.18120850641E+01  0.11648013962E+03  0.11660788765E+03  0.00000000000E+00 0. -1.
<mgrwt>
<rscale>  0 0.87894639E+02</rscale>
<asrwt>0</asrwt>
<pdfrwt beam="1">  1        1 0.94747540E-01 0.87894639E+02</pdfrwt>
<pdfrwt beam="2">  1       -1 0.48246979E-03 0.87894639E+02</pdfrwt>
<totfact> 0.15620536E+05</totfact>
</mgrwt>
</event>
<event>
 7    1  0.3607059E-009  0.9201917E+02  0.7818608E-02  0.1298034E+00
         -1   -1    0    0    0  501 -0.00000000000E+00  0.00000000000E+00  0.87193727308E+01  0.87193741874E+01  0.50400000000E-02 0.  1.
          1   -1    0    0  501    0  0.00000000000E+00 -0.00000000000E+00 -0.24277911309E+03  0.24277911315E+03  0.50400000000E-02 0. -1.
         23    2    1    2    0    0  0.00000000000E+00  0.00000000000E+00 -0.23405974036E+03  0.25149848733E+03  0.92019166874E+02 0.  0.
    9000005    2    3    3    0    0  0.38993986747E+02  0.17626393920E+02 -0.16318086217E+03  0.16870334171E+03  0.12660805659E+01 0.  0.
         22    1    3    3    0    0 -0.38993986747E+02 -0.17626393920E+02 -0.70878878189E+02  0.82795145621E+02  0.00000000000E+00 0.  1.
         22    1    4    4    0    0  0.26896177583E+02  0.11756263471E+02 -0.11370927256E+03  0.11743684586E+03  0.00000000000E+00 0.  1.
         22    1    4    4    0    0  0.12097809164E+02  0.58701304496E+01 -0.49471589614E+02  0.51266495853E+02  0.00000000000E+00 0.  1.
<mgrwt>
<rscale>  0 0.92019167E+02</rscale>
<asrwt>0</asrwt>
<pdfrwt beam="2">  1        1 0.37350628E-01 0.92019167E+02</pdfrwt>
<pdfrwt beam="1">  1       -1 0.13414423E-02 0.92019167E+02</pdfrwt>
<totfact> 0.11997667E+05</totfact>
</mgrwt>
</event>
<event>
 7    1  0.3607059E-009  0.8180880E+02  0.7818608E-02  0.1323995E+00
          1   -1    0    0  501    0  0.00000000000E+00  0.00000000000E+00  0.81635174842E+02  0.81635174997E+02  0.50400000000E-02 0. -1.
         -1   -1    0    0    0  501 -0.00000000000E+00 -0.00000000000E+00 -0.20495697201E+02  0.20495697821E+02  0.50400000000E-02 0.  1.
         23    2    1    2    0    0  0.00000000000E+00  0.00000000000E+00  0.61139477641E+02  0.10213087282E+03  0.81808798160E+02 0.  0.
    9000005    2    3    3    0    0 -0.99725333127E+00 -0.39052999151E+02  0.42714163659E+02  0.58938009377E+02  0.11093147226E+02 0.  0.
         22    1    3    3    0    0  0.99725333127E+00  0.39052999151E+02  0.18425313982E+02  0.43192863441E+02  0.00000000000E+00 0.  1.
         22    1    4    4    0    0  0.20671112865E-01 -0.14977314944E+02  0.24564534972E+02  0.28770414814E+02  0.00000000000E+00 0. -1.
         22    1    4    4    0    0 -0.10179244441E+01 -0.24075684207E+02  0.18149628687E+02  0.30167594562E+02  0.00000000000E+00 0. -1.
<mgrwt>
<rscale>  0 0.81808798E+02</rscale>
<asrwt>0</asrwt>
<pdfrwt beam="1">  1        1 0.12559258E-01 0.81808798E+02</pdfrwt>
<pdfrwt beam="2">  1       -1 0.31531843E-02 0.81808798E+02</pdfrwt>
<totfact> 0.13574903E+05</totfact>
</mgrwt>
</event>
<event>
 7    1  0.3607059E-009  0.9137561E+02  0.7818608E-02  0.1299554E+00
         -1   -1    0    0    0  501 -0.00000000000E+00  0.00000000000E+00  0.26231941672E+02  0.26231942156E+02  0.50400000000E-02 0.  1.
          1   -1    0    0  501    0  0.00000000000E+00 -0.00000000000E+00 -0.79573814718E+02  0.79573814878E+02  0.50400000000E-02 0. -1.
         23    2    1    2    0    0  0.17763568394E-14  0.00000000000E+00 -0.53341873047E+02  0.10580575703E+03  0.91375613822E+02 0.  0.
    9000005    2    3    3    0    0 -0.84218626740E+01 -0.22867784772E+02  0.16264054302E+02  0.32057208076E+02  0.13010833025E+02 0.  0.
         22    1    3    3    0    0  0.84218626740E+01  0.22867784772E+02 -0.69605927348E+02  0.73748548958E+02  0.00000000000E+00 0. -1.
         22    1    4    4    0    0 -0.10536888230E+02 -0.10334965568E+02  0.70370156618E+01  0.16351058568E+02  0.00000000000E+00 0. -1.
         22    1    4    4    0    0  0.21150255561E+01 -0.12532819205E+02  0.92270386399E+01  0.15706149508E+02  0.00000000000E+00 0. -1.
<mgrwt>
<rscale>  0 0.91375614E+02</rscale>
<asrwt>0</asrwt>
<pdfrwt beam="2">  1        1 0.12242125E-01 0.91375614E+02</pdfrwt>
<pdfrwt beam="1">  1       -1 0.40356834E-02 0.91375614E+02</pdfrwt>
<totfact> 0.10005864E+05</totfact>
</mgrwt>
</event>
<event>
 7    1  0.3607059E-009  0.5841186E+02  0.7818608E-02  0.1404620E+00
         -1   -1    0    0    0  501 -0.00000000000E+00  0.00000000000E+00  0.31787730669E+01  0.31787770624E+01  0.50400000000E-02 0.  1.
          1   -1    0    0  501    0  0.00000000000E+00 -0.00000000000E+00 -0.26833803677E+03  0.26833803682E+03  0.50400000000E-02 0. -1.
         23    2    1    2    0    0  0.22204460493E-15  0.00000000000E+00 -0.26515926370E+03  0.27151681388E+03  0.58411857459E+02 0.  0.
    9000005    2    3    3    0    0  0.17043688371E+01  0.27325801217E+02 -0.17272192204E+03  0.17511003809E+03  0.90032660621E+01 0.  0.
         22    1    3    3    0    0 -0.17043688371E+01 -0.27325801217E+02 -0.92437341663E+02  0.96406775794E+02  0.00000000000E+00 0.  1.
         22    1    4    4    0    0 -0.25080606553E+01  0.21782754868E+01 -0.19364724256E+02  0.19647590129E+02  0.00000000000E+00 0.  1.
         22    1    4    4    0    0  0.42124294923E+01  0.25147525731E+02 -0.15335719778E+03  0.15546244796E+03  0.00000000000E+00 0.  1.
<mgrwt>
<rscale>  0 0.58411857E+02</rscale>
<asrwt>0</asrwt>
<pdfrwt beam="2">  1        1 0.41282757E-01 0.58411857E+02</pdfrwt>
<pdfrwt beam="1">  1       -1 0.48904253E-03 0.58411857E+02</pdfrwt>
<totfact> 0.40000998E+05</totfact>
</mgrwt>
</event>
<event>
 7    1  0.3607059E-009  0.9225693E+02  0.7818608E-02  0.1297476E+00
          1   -1    0    0  501    0  0.00000000000E+00  0.00000000000E+00  0.37632450646E+02  0.37632450984E+02  0.50400000000E-02 0. -1.
         -1   -1    0    0    0  501 -0.00000000000E+00 -0.00000000000E+00 -0.56542565311E+02  0.56542565535E+02  0.50400000000E-02 0.  1.
         23    2    1    2    0    0 -0.71054273576E-14 -0.88817841970E-15 -0.18910114664E+02  0.94175016519E+02  0.92256930904E+02 0.  0.
    9000005    2    3    3    0    0  0.32488155582E+02  0.45133688111E+01 -0.42549167368E+02  0.53744142624E+02  0.14664485954E+01 0.  0.
         22    1    3    3    0    0 -0.32488155582E+02 -0.45133688111E+01  0.23639052704E+02  0.40430873895E+02  0.00000000000E+00 0. -1.
         22    1    4    4    0    0  0.10612439765E+02  0.19901796658E+01 -0.13248919288E+02  0.17091476097E+02  0.00000000000E+00 0. -1.
         22    1    4    4    0    0  0.21875715817E+02  0.25231891454E+01 -0.29300248080E+02  0.36652666527E+02  0.00000000000E+00 0. -1.
<mgrwt>
<rscale>  0 0.92256931E+02</rscale>
<asrwt>0</asrwt>
<pdfrwt beam="1">  1        1 0.57896078E-02 0.92256931E+02</pdfrwt>
<pdfrwt beam="2">  1       -1 0.86988562E-02 0.92256931E+02</pdfrwt>
<totfact> 0.86869535E+04</totfact>
</mgrwt>
</event>
<event>
 7    1  0.3607059E-009  0.9220292E+02  0.7818608E-02  0.1297603E+00
          1   -1    0    0  501    0  0.00000000000E+00  0.00000000000E+00  0.94971442864E+02  0.94971442998E+02  0.50400000000E-02 0. -1.
         -1   -1    0    0    0  501 -0.00000000000E+00 -0.00000000000E+00 -0.22378776512E+02  0.22378777080E+02  0.50400000000E-02 0.  1.
         23    2    1    2    0    0  0.00000000000E+00  0.00000000000E+00  0.72592666352E+02  0.11735022008E+03  0.92202922644E+02 0.  0.
    9000005    2    3    3    0    0 -0.42158817892E+02 -0.95662246395E+01  0.53087605544E+02  0.69923160533E+02  0.14215341590E+02 0.  0.
         22    1    3    3    0    0  0.42158817892E+02  0.95662246395E+01  0.19505060807E+02  0.47427059545E+02  0.00000000000E+00 0. -1.
         22    1    4    4    0    0 -0.16550019035E+02 -0.62706086148E+01  0.32074123128E+02  0.36632950153E+02  0.00000000000E+00 0. -1.
         22    1    4    4    0    0 -0.25608798857E+02 -0.32956160246E+01  0.21013482417E+02  0.33290210380E+02  0.00000000000E+00 0. -1.
<mgrwt>
<rscale>  0 0.92202923E+02</rscale>
<asrwt>0</asrwt>
<pdfrwt beam="1">  1        1 0.14610992E-01 0.92202923E+02</pdfrwt>
<pdfrwt beam="2">  1       -1 0.34428886E-02 0.92202923E+02</pdfrwt>
<totfact> 0.10044356E+05</totfact>
</mgrwt>
</event>
<event>
 7    1  0.3607059E-009  0.1040532E+03  0.7818608E-02  0.1271996E+00
         -1   -1    0    0    0  501 -0.00000000000E+00  0.00000000000E+00  0.62352010947E+01  0.62352031316E+01  0.50400000000E-02 0.  1.
          1   -1    0    0  501    0  0.00000000000E+00 -0.00000000000E+00 -0.43411047428E+03  0.43411047431E+03  0.50400000000E-02 0. -1.
         23    2    1    2    0    0  0.00000000000E+00  0.00000000000E+00 -0.42787527319E+03  0.44034567745E+03  0.10405318946E+03 0.  0.
    9000005    2    3    3    0    0 -0.42141353529E+02  0.74870128481E+01 -0.33890292685E+03  0.34161357804E+03  0.35628415020E+01 0.  0.
         22    1    3    3    0    0  0.42141353529E+02 -0.74870128481E+01 -0.88972346344E+02  0.98732099403E+02  0.00000000000E+00 0.  1.
         22    1    4    4    0    0 -0.93563323407E+01  0.30761918473E+01 -0.73470173479E+02  0.74127392387E+02  0.00000000000E+00 0.  1.
         22    1    4    4    0    0 -0.32785021188E+02  0.44108210008E+01 -0.26543275337E+03  0.26748618565E+03  0.00000000000E+00 0.  1.
<mgrwt>
<rscale>  0 0.10405319E+03</rscale>
<asrwt>0</asrwt>
<pdfrwt beam="2">  1        1 0.66786203E-01 0.10405319E+03</pdfrwt>
<pdfrwt beam="1">  1       -1 0.95926220E-03 0.10405319E+03</pdfrwt>
<totfact> 0.96009881E+04</totfact>
</mgrwt>
</event>
<event>
 7    1  0.3607059E-009  0.9164085E+02  0.7818608E-02  0.1298926E+00
         -1   -1    0    0    0  501 -0.00000000000E+00  0.00000000000E+00  0.37550918680E+03  0.37550918683E+03  0.50400000000E-02 0.  1.
          1   -1    0    0  501    0  0.00000000000E+00 -0.00000000000E+00 -0.55911040604E+01  0.55911063320E+01  0.50400000000E-02 0. -1.
         23    2    1    2    0    0  0.00000000000E+00  0.35527136788E-14  0.36991808273E+03  0.38110029316E+03  0.91640850679E+02 0.  0.
    9000005    2    3    3    0    0  0.14442370883E+02 -0.30968717767E+02  0.30949239707E+03  0.31168194512E+03  0.13872545260E+02 0.  0.
         22    1    3    3    0    0 -0.14442370883E+02  0.30968717767E+02  0.60425685661E+02  0.69418348038E+02  0.00000000000E+00 0. -1.
         22    1    4    4    0    0 -0.26722820823E+01 -0.63750562391E+01  0.59895040116E+02  0.60292605384E+02  0.00000000000E+00 0. -1.
         22    1    4    4    0    0  0.17114652965E+02 -0.24593661527E+02  0.24959735696E+03  0.25138933974E+03  0.00000000000E+00 0. -1.
<mgrwt>
<rscale>  0 0.91640851E+02</rscale>
<asrwt>0</asrwt>
<pdfrwt beam="2">  1        1 0.86017007E-03 0.91640851E+02</pdfrwt>
<pdfrwt beam="1">  1       -1 0.57770642E-01 0.91640851E+02</pdfrwt>
<totfact> 0.54243840E+04</totfact>
</mgrwt>
</event>
<event>
 7    1  0.3607059E-009  0.9304991E+02  0.7818608E-02  0.1295630E+00
         -1   -1    0    0    0  501 -0.00000000000E+00  0.00000000000E+00  0.50065156240E+02  0.50065156494E+02  0.50400000000E-02 0.  1.
          1   -1    0    0  501    0  0.00000000000E+00 -0.00000000000E+00 -0.43235086231E+02  0.43235086525E+02  0.50400000000E-02 0. -1.
         23    2    1    2    0    0  0.00000000000E+00 -0.88817841970E-15  0.68300700091E+01  0.93300243018E+02  0.93049908602E+02 0.  0.
    9000005    2    3    3    0    0  0.73988425450E+01 -0.78384061316E+01 -0.40600537445E+02  0.44660279972E+02  0.15164217246E+02 0.  0.
         22    1    3    3    0    0 -0.73988425450E+01  0.78384061316E+01  0.47430607454E+02  0.48639963046E+02  0.00000000000E+00 0.  1.
         22    1    4    4    0    0 -0.21638469220E+01 -0.73665699277E+01 -0.26696617596E+02  0.27778732459E+02  0.00000000000E+00 0. -1.
         22    1    4    4    0    0  0.95626894670E+01 -0.47183620394E+00 -0.13903919849E+02  0.16881547513E+02  0.00000000000E+00 0. -1.
<mgrwt>
<rscale>  0 0.93049909E+02</rscale>
<asrwt>0</asrwt>
<pdfrwt beam="2">  1        1 0.66515518E-02 0.93049909E+02</pdfrwt>
<pdfrwt beam="1">  1       -1 0.77023318E-02 0.93049909E+02</pdfrwt>
<totfact> 0.86622040E+04</totfact>
</mgrwt>
</event>
<event>
 7    1  0.3607059E-009  0.8028783E+02  0.7818608E-02  0.1328237E+00
         -1   -1    0    0    0  501 -0.00000000000E+00  0.00000000000E+00  0.58128646727E+01  0.58128668577E+01  0.50400000000E-02 0.  1.
          1   -1    0    0  501    0  0.00000000000E+00 -0.00000000000E+00 -0.27723568608E+03  0.27723568613E+03  0.50400000000E-02 0. -1.
         23    2    1    2    0    0  0.00000000000E+00  0.00000000000E+00 -0.27142282141E+03  0.28304855298E+03  0.80287828252E+02 0.  0.
    9000005    2    3    3    0    0 -0.21229746478E+02  0.28592729681E+02 -0.74211730576E+02  0.82647802803E+02  0.74183574275E+01 0.  0.
         22    1    3    3    0    0  0.21229746478E+02 -0.28592729681E+02 -0.19721109083E+03  0.20040075018E+03  0.00000000000E+00 0.  1.
         22    1    4    4    0    0 -0.24224630193E+01  0.37560704958E+00 -0.44335457920E+01  0.50661362028E+01  0.00000000000E+00 0. -1.
         22    1    4    4    0    0 -0.18807283459E+02  0.28217122631E+02 -0.69778184784E+02  0.77581666600E+02  0.00000000000E+00 0. -1.
<mgrwt>
<rscale>  0 0.80287828E+02</rscale>
<asrwt>0</asrwt>
<pdfrwt beam="2">  1        1 0.42651634E-01 0.80287828E+02</pdfrwt>
<pdfrwt beam="1">  1       -1 0.89428726E-03 0.80287828E+02</pdfrwt>
<totfact> 0.17673812E+05</totfact>
</mgrwt>
</event>
<event>
 7    1  0.3607059E-009  0.9488450E+02  0.7818608E-02  0.1291436E+00
         -1   -1    0    0    0  501 -0.00000000000E+00  0.00000000000E+00  0.73131048891E+01  0.73131066258E+01  0.50400000000E-02 0.  1.
          1   -1    0    0  501    0  0.00000000000E+00 -0.00000000000E+00 -0.30777169845E+03  0.30777169849E+03  0.50400000000E-02 0. -1.
         23    2    1    2    0    0 -0.17763568394E-14 -0.71054273576E-14 -0.30045859356E+03  0.31508480512E+03  0.94884498055E+02 0.  0.
    9000005    2    3    3    0    0  0.15985465590E+02  0.30945600885E+02 -0.25655921537E+03  0.25904624045E+03  0.83161515071E+01 0.  0.
         22    1    3    3    0    0 -0.15985465590E+02 -0.30945600885E+02 -0.43899378186E+02  0.56038564662E+02  0.00000000000E+00 0.  1.
         22    1    4    4    0    0  0.83360147519E+01  0.21059313775E+02 -0.14022282290E+03  0.14204021931E+03  0.00000000000E+00 0. -1.
         22    1    4    4    0    0  0.76494508380E+01  0.98862871101E+01 -0.11633639247E+03  0.11700602114E+03  0.00000000000E+00 0. -1.
<mgrwt>
<rscale>  0 0.94884498E+02</rscale>
<asrwt>0</asrwt>
<pdfrwt beam="2">  1        1 0.47349482E-01 0.94884498E+02</pdfrwt>
<pdfrwt beam="1">  1       -1 0.11250934E-02 0.94884498E+02</pdfrwt>
<totfact> 0.11574521E+05</totfact>
</mgrwt>
</event>
<event>
 7    1  0.3607059E-009  0.9166772E+02  0.7818608E-02  0.1298863E+00
          1   -1    0    0  501    0  0.00000000000E+00  0.00000000000E+00  0.42067470069E+03  0.42067470072E+03  0.50400000000E-02 0. -1.
         -1   -1    0    0    0  501 -0.00000000000E+00 -0.00000000000E+00 -0.49937446924E+01  0.49937472357E+01  0.50400000000E-02 0.  1.
         23    2    1    2    0    0 -0.44408920985E-15  0.17763568394E-14  0.41568095600E+03  0.42566844796E+03  0.91667717361E+02 0.  0.
    9000005    2    3    3    0    0  0.33527975827E+01 -0.12019661117E+02  0.41262114073E+03  0.41282025842E+03  0.29404896448E+01 0.  0.
         22    1    3    3    0    0 -0.33527975827E+01  0.12019661117E+02  0.30598152739E+01  0.12848189542E+02  0.00000000000E+00 0.  1.
         22    1    4    4    0    0  0.89479720979E+00 -0.44878458911E+01  0.19813928924E+03  0.19819212740E+03  0.00000000000E+00 0.  1.
         22    1    4    4    0    0  0.24580003730E+01 -0.75318152264E+01  0.21448185149E+03  0.21462813102E+03  0.00000000000E+00 0.  1.
<mgrwt>
<rscale>  0 0.91667717E+02</rscale>
<asrwt>0</asrwt>
<pdfrwt beam="1">  1        1 0.64719201E-01 0.91667717E+02</pdfrwt>
<pdfrwt beam="2">  1       -1 0.76826842E-03 0.91667717E+02</pdfrwt>
<totfact> 0.13405644E+05</totfact>
</mgrwt>
</event>
<event>
 7    1  0.3607059E-009  0.9079837E+02  0.7818608E-02  0.1300930E+00
         -1   -1    0    0    0  501 -0.00000000000E+00  0.00000000000E+00  0.92743640485E+02  0.92743640622E+02  0.50400000000E-02 0.  1.
          1   -1    0    0  501    0  0.00000000000E+00 -0.00000000000E+00 -0.22223472393E+02  0.22223472964E+02  0.50400000000E-02 0. -1.
         23    2    1    2    0    0  0.00000000000E+00  0.00000000000E+00  0.70520168092E+02  0.11496711359E+03  0.90798365066E+02 0.  0.
    9000005    2    3    3    0    0 -0.17012400121E+02  0.34392010234E+02  0.82911985052E+01  0.41859817222E+02  0.14535067917E+02 0.  0.
         22    1    3    3    0    0  0.17012400121E+02 -0.34392010234E+02  0.62228969587E+02  0.73107296364E+02  0.00000000000E+00 0.  1.
         22    1    4    4    0    0 -0.14261149264E+02  0.27911200353E+02  0.12400886497E+02  0.33707528378E+02  0.00000000000E+00 0.  1.
         22    1    4    4    0    0 -0.27512508571E+01  0.64808098813E+01 -0.41096879916E+01  0.81522888433E+01  0.00000000000E+00 0.  1.
<mgrwt>
<rscale>  0 0.90798365E+02</rscale>
<asrwt>0</asrwt>
<pdfrwt beam="2">  1        1 0.34189958E-02 0.90798365E+02</pdfrwt>
<pdfrwt beam="1">  1       -1 0.14268252E-01 0.90798365E+02</pdfrwt>
<totfact> 0.83385148E+04</totfact>
</mgrwt>
</event>
<event>
 7    1  0.3607059E-009  0.9014381E+02  0.7818608E-02  0.1302504E+00
         -1   -1    0    0    0  501 -0.00000000000E+00  0.00000000000E+00  0.19583596027E+02  0.19583596675E+02  0.50400000000E-02 0.  1.
          1   -1    0    0  501    0  0.00000000000E+00 -0.00000000000E+00 -0.10373357493E+03  0.10373357505E+03  0.50400000000E-02 0. -1.
         23    2    1    2    0    0  0.35527136788E-14  0.00000000000E+00 -0.84149978905E+02  0.12331717173E+03  0.90143806740E+02 0.  0.
    9000005    2    3    3    0    0 -0.28838339439E+02 -0.89322506653E+01  0.81414879613E+00  0.33148785254E+02  0.13665438230E+02 0.  0.
         22    1    3    3    0    0  0.28838339439E+02  0.89322506653E+01 -0.84964127702E+02  0.90168386476E+02  0.00000000000E+00 0. -1.
         22    1    4    4    0    0 -0.17262313771E+02 -0.84236413121E+01  0.64522565157E+01  0.20262695375E+02  0.00000000000E+00 0. -1.
         22    1    4    4    0    0 -0.11576025667E+02 -0.50860935314E+00 -0.56381077196E+01  0.12886089879E+02  0.00000000000E+00 0. -1.
<mgrwt>
<rscale>  0 0.90143807E+02</rscale>
<asrwt>0</asrwt>
<pdfrwt beam="2">  1        1 0.15959011E-01 0.90143807E+02</pdfrwt>
<pdfrwt beam="1">  1       -1 0.30128610E-02 0.90143807E+02</pdfrwt>
<totfact> 0.10840052E+05</totfact>
</mgrwt>
</event>
<event>
 7    1  0.3607059E-009  0.9110269E+02  0.7818608E-02  0.1300203E+00
         -1   -1    0    0    0  501 -0.00000000000E+00  0.00000000000E+00  0.18134192256E+01  0.18134262293E+01  0.50400000000E-02 0.  1.
          1   -1    0    0  501    0  0.00000000000E+00 -0.00000000000E+00 -0.11442037479E+04  0.11442037479E+04  0.50400000000E-02 0. -1.
         23    2    1    2    0    0 -0.35527136788E-14 -0.35527136788E-14 -0.11423903286E+04  0.11460171741E+04  0.91102691375E+02 0.  0.
    9000005    2    3    3    0    0  0.23355203902E+02  0.16946970532E+02 -0.10119339474E+04  0.10124075459E+04  0.11227627075E+02 0.  0.
         22    1    3    3    0    0 -0.23355203902E+02 -0.16946970532E+02 -0.13045638122E+03  0.13360962824E+03  0.00000000000E+00 0.  1.
         22    1    4    4    0    0  0.81624243689E+01  0.11542065544E+01 -0.18546583157E+03  0.18564894840E+03  0.00000000000E+00 0.  1.
         22    1    4    4    0    0  0.15192779533E+02  0.15792763977E+02 -0.82646811586E+03  0.82675859746E+03  0.00000000000E+00 0.  1.
<mgrwt>
<rscale>  0 0.91102691E+02</rscale>
<asrwt>0</asrwt>
<pdfrwt beam="2">  1        1 0.17603077E+00 0.91102691E+02</pdfrwt>
<pdfrwt beam="1">  1       -1 0.27898903E-03 0.91102691E+02</pdfrwt>
<totfact> 0.13027884E+05</totfact>
</mgrwt>
</event>
<event>
 7    1  0.3892768E-009  0.8931842E+02  0.7818608E-02  0.1304511E+00
          1   -1    0    0  501    0  0.00000000000E+00  0.00000000000E+00  0.15271313799E+03  0.15271313808E+03  0.50400000000E-02 0. -1.
         -1   -1    0    0    0  501 -0.00000000000E+00 -0.00000000000E+00 -0.13060075358E+02  0.13060076331E+02  0.50400000000E-02 0.  1.
         23    2    1    2    0    0  0.00000000000E+00  0.00000000000E+00  0.13965306263E+03  0.16577321441E+03  0.89318423136E+02 0.  0.
    9000005    2    3    3    0    0  0.24725668539E+02 -0.26659464861E+02  0.11581954456E+03  0.12229767720E+03  0.14848205124E+02 0.  0.
         22    1    3    3    0    0 -0.24725668539E+02  0.26659464861E+02  0.23833518073E+02  0.43475537203E+02  0.00000000000E+00 0. -1.
         22    1    4    4    0    0  0.10663378403E+02 -0.15534738785E+02  0.80640340930E+02  0.82812440692E+02  0.00000000000E+00 0. -1.
         22    1    4    4    0    0  0.14062290137E+02 -0.11124726077E+02  0.35179203631E+02  0.39485236510E+02  0.00000000000E+00 0. -1.
<mgrwt>
<rscale>  0 0.89318423E+02</rscale>
<asrwt>0</asrwt>
<pdfrwt beam="1">  1        1 0.23494329E-01 0.89318423E+02</pdfrwt>
<pdfrwt beam="2">  1       -1 0.20092425E-02 0.89318423E+02</pdfrwt>
<totfact> 0.11891543E+05</totfact>
</mgrwt>
</event>
<event>
 7    1  0.3607059E-009  0.9046428E+02  0.7818608E-02  0.1301731E+00
         -1   -1    0    0    0  501 -0.00000000000E+00  0.00000000000E+00  0.38282997884E+03  0.38282997887E+03  0.50400000000E-02 0.  1.
          1   -1    0    0  501    0  0.00000000000E+00 -0.00000000000E+00 -0.53442677025E+01  0.53442700791E+01  0.50400000000E-02 0. -1.
         23    2    1    2    0    0  0.33306690739E-15  0.00000000000E+00  0.37748571114E+03  0.38817424895E+03  0.90464277130E+02 0.  0.
    9000005    2    3    3    0    0 -0.73872438346E+00  0.37163821402E+02  0.29776944426E+03  0.30021756336E+03  0.90690728450E+01 0.  0.
         22    1    3    3    0    0  0.73872438346E+00 -0.37163821402E+02  0.79716266881E+02  0.87956685592E+02  0.00000000000E+00 0. -1.
         22    1    4    4    0    0  0.33552713263E+01  0.15232135014E+02  0.10295628308E+03  0.10413103288E+03  0.00000000000E+00 0.  1.
         22    1    4    4    0    0 -0.40939957098E+01  0.21931686388E+02  0.19481316118E+03  0.19608653048E+03  0.00000000000E+00 0.  1.
<mgrwt>
<rscale>  0 0.90464277E+02</rscale>
<asrwt>0</asrwt>
<pdfrwt beam="2">  1        1 0.82219494E-03 0.90464277E+02</pdfrwt>
<pdfrwt beam="1">  1       -1 0.58896940E-01 0.90464277E+02</pdfrwt>
<totfact> 0.55591210E+04</totfact>
</mgrwt>
</event>
<event>
 7    1  0.3607059E-009  0.8049129E+02  0.7818608E-02  0.1327663E+00
         -1   -1    0    0    0  501 -0.00000000000E+00  0.00000000000E+00  0.70201938720E+01  0.70201956811E+01  0.50400000000E-02 0.  1.
          1   -1    0    0  501    0  0.00000000000E+00 -0.00000000000E+00 -0.23072178483E+03  0.23072178489E+03  0.50400000000E-02 0. -1.
         23    2    1    2    0    0  0.00000000000E+00  0.00000000000E+00 -0.22370159096E+03  0.23774198057E+03  0.80491288513E+02 0.  0.
    9000005    2    3    3    0    0 -0.11380014951E+02 -0.34078793239E+02 -0.15876690813E+03  0.16353024347E+03  0.15631395439E+02 0.  0.
         22    1    3    3    0    0  0.11380014951E+02  0.34078793239E+02 -0.64934682834E+02  0.74211737102E+02  0.00000000000E+00 0.  1.
         22    1    4    4    0    0 -0.31493362121E+00 -0.24469782403E+02 -0.95054458887E+02  0.98154060478E+02  0.00000000000E+00 0.  1.
         22    1    4    4    0    0 -0.11065081330E+02 -0.96090108361E+01 -0.63712449242E+02  0.65376182991E+02  0.00000000000E+00 0.  1.
<mgrwt>
<rscale>  0 0.80491289E+02</rscale>
<asrwt>0</asrwt>
<pdfrwt beam="2">  1        1 0.35495653E-01 0.80491289E+02</pdfrwt>
<pdfrwt beam="1">  1       -1 0.10800301E-02 0.80491289E+02</pdfrwt>
<totfact> 0.16953267E+05</totfact>
</mgrwt>
</event>
<event>
 7    1  0.3607059E-009  0.9027462E+02  0.7818608E-02  0.1302188E+00
         -1   -1    0    0    0  501 -0.00000000000E+00  0.00000000000E+00  0.20617668139E+02  0.20617668755E+02  0.50400000000E-02 0.  1.
          1   -1    0    0  501    0  0.00000000000E+00 -0.00000000000E+00 -0.98817035626E+02  0.98817035755E+02  0.50400000000E-02 0. -1.
         23    2    1    2    0    0 -0.71054273576E-14  0.00000000000E+00 -0.78199367487E+02  0.11943470451E+03  0.90274623046E+02 0.  0.
    9000005    2    3    3    0    0  0.36718944995E+02 -0.13343074151E+02 -0.68317256706E+02  0.79136135518E+02  0.83043260727E+01 0.  0.
         22    1    3    3    0    0 -0.36718944995E+02  0.13343074151E+02 -0.98821107806E+01  0.40298568992E+02  0.00000000000E+00 0.  1.
         22    1    4    4    0    0  0.16648550393E+02 -0.10011251810E+02 -0.37013048941E+02  0.41801497400E+02  0.00000000000E+00 0.  1.
         22    1    4    4    0    0  0.20070394601E+02 -0.33318223416E+01 -0.31304207765E+02  0.37334638118E+02  0.00000000000E+00 0.  1.
<mgrwt>
<rscale>  0 0.90274623E+02</rscale>
<asrwt>0</asrwt>
<pdfrwt beam="2">  1        1 0.15202621E-01 0.90274623E+02</pdfrwt>
<pdfrwt beam="1">  1       -1 0.31719491E-02 0.90274623E+02</pdfrwt>
<totfact> 0.10710747E+05</totfact>
</mgrwt>
</event>
<event>
 7    1  0.3607059E-009  0.9170295E+02  0.7818608E-02  0.1298779E+00
          1   -1    0    0  501    0  0.00000000000E+00  0.00000000000E+00  0.83159917857E+02  0.83159918010E+02  0.50400000000E-02 0. -1.
         -1   -1    0    0    0  501 -0.00000000000E+00 -0.00000000000E+00 -0.25280901545E+02  0.25280902047E+02  0.50400000000E-02 0.  1.
         23    2    1    2    0    0  0.00000000000E+00 -0.35527136788E-14  0.57879016312E+02  0.10844082006E+03  0.91702949382E+02 0.  0.
    9000005    2    3    3    0    0 -0.15656759136E+02 -0.31176295403E+02  0.63345036180E+02  0.73128316961E+02  0.10865616931E+02 0.  0.
         22    1    3    3    0    0  0.15656759136E+02  0.31176295403E+02 -0.54660198683E+01  0.35312503096E+02  0.00000000000E+00 0.  1.
         22    1    4    4    0    0 -0.13066648991E+02 -0.30662342104E+02  0.61348025606E+02  0.69817596528E+02  0.00000000000E+00 0. -1.
         22    1    4    4    0    0 -0.25901101449E+01 -0.51395329834E+00  0.19970105739E+01  0.33107204334E+01  0.00000000000E+00 0. -1.
<mgrwt>
<rscale>  0 0.91702949E+02</rscale>
<asrwt>0</asrwt>
<pdfrwt beam="1">  1        1 0.12793834E-01 0.91702949E+02</pdfrwt>
<pdfrwt beam="2">  1       -1 0.38893694E-02 0.91702949E+02</pdfrwt>
<totfact> 0.99776143E+04</totfact>
</mgrwt>
</event>
<event>
 7    1  0.3607059E-009  0.9128901E+02  0.7818608E-02  0.1299760E+00
          1   -1    0    0  501    0  0.00000000000E+00  0.00000000000E+00  0.48586048526E+02  0.48586048788E+02  0.50400000000E-02 0. -1.
         -1   -1    0    0    0  501 -0.00000000000E+00 -0.00000000000E+00 -0.42881049398E+02  0.42881049694E+02  0.50400000000E-02 0.  1.
         23    2    1    2    0    0  0.00000000000E+00  0.00000000000E+00  0.57049991284E+01  0.91467098482E+02  0.91289008592E+02 0.  0.
    9000005    2    3    3    0    0 -0.78562167353E+01  0.24681893673E+02  0.40263202841E+02  0.48279305525E+02  0.62329625615E+01 0.  0.
         22    1    3    3    0    0  0.78562167353E+01 -0.24681893673E+02 -0.34558203713E+02  0.43187792957E+02  0.00000000000E+00 0.  1.
         22    1    4    4    0    0 -0.44778189268E+01  0.80351917204E+01  0.10091660409E+02  0.13654917727E+02  0.00000000000E+00 0.  1.
         22    1    4    4    0    0 -0.33783978085E+01  0.16646701952E+02  0.30171542432E+02  0.34624387798E+02  0.00000000000E+00 0.  1.
<mgrwt>
<rscale>  0 0.91289009E+02</rscale>
<asrwt>0</asrwt>
<pdfrwt beam="1">  1        1 0.74747768E-02 0.91289009E+02</pdfrwt>
<pdfrwt beam="2">  1       -1 0.65970845E-02 0.91289009E+02</pdfrwt>
<totfact> 0.93039998E+04</totfact>
</mgrwt>
</event>
<event>
 7    1  0.3607059E-009  0.9063739E+02  0.7818608E-02  0.1301315E+00
         -1   -1    0    0    0  501 -0.00000000000E+00  0.00000000000E+00  0.16638961843E+02  0.16638962607E+02  0.50400000000E-02 0.  1.
          1   -1    0    0  501    0  0.00000000000E+00 -0.00000000000E+00 -0.12343221318E+03  0.12343221329E+03  0.50400000000E-02 0. -1.
         23    2    1    2    0    0  0.00000000000E+00  0.00000000000E+00 -0.10679325134E+03  0.14007117589E+03  0.90637386239E+02 0.  0.
    9000005    2    3    3    0    0  0.20260280551E+02  0.32598455938E+02 -0.89274451677E+02  0.97880576949E+02  0.11727801338E+02 0.  0.
         22    1    3    3    0    0 -0.20260280551E+02 -0.32598455938E+02 -0.17518799663E+02  0.42190598943E+02  0.00000000000E+00 0.  1.
         22    1    4    4    0    0  0.15369283138E+02  0.19045089374E+02 -0.43743606118E+02  0.50124179491E+02  0.00000000000E+00 0.  1.
         22    1    4    4    0    0  0.48909974127E+01  0.13553366564E+02 -0.45530845558E+02  0.47756397458E+02  0.00000000000E+00 0.  1.
<mgrwt>
<rscale>  0 0.90637386E+02</rscale>
<asrwt>0</asrwt>
<pdfrwt beam="2">  1        1 0.18989571E-01 0.90637386E+02</pdfrwt>
<pdfrwt beam="1">  1       -1 0.25598404E-02 0.90637386E+02</pdfrwt>
<totfact> 0.11002462E+05</totfact>
</mgrwt>
</event>
<event>
 7    1  0.3607059E-009  0.9237423E+02  0.7818608E-02  0.1297202E+00
          1   -1    0    0  501    0  0.00000000000E+00  0.00000000000E+00  0.85966287146E+02  0.85966287294E+02  0.50400000000E-02 0. -1.
         -1   -1    0    0    0  501 -0.00000000000E+00 -0.00000000000E+00 -0.24814955022E+02  0.24814955534E+02  0.50400000000E-02 0.  1.
         23    2    1    2    0    0  0.88817841970E-15  0.00000000000E+00  0.61151332124E+02  0.11078124283E+03  0.92374229859E+02 0.  0.
    9000005    2    3    3    0    0  0.38149613339E+01 -0.36385402421E+02  0.63158813179E+02  0.74141354462E+02  0.13017423706E+02 0.  0.
         22    1    3    3    0    0 -0.38149613339E+01  0.36385402421E+02 -0.20074810549E+01  0.36639888366E+02  0.00000000000E+00 0.  1.
         22    1    4    4    0    0  0.85299658342E+01 -0.19249161115E+02  0.34791791241E+02  0.40666438971E+02  0.00000000000E+00 0. -1.
         22    1    4    4    0    0 -0.47150045004E+01 -0.17136241306E+02  0.28367021938E+02  0.33474915491E+02  0.00000000000E+00 0. -1.
<mgrwt>
<rscale>  0 0.92374230E+02</rscale>
<asrwt>0</asrwt>
<pdfrwt beam="1">  1        1 0.13225582E-01 0.92374230E+02</pdfrwt>
<pdfrwt beam="2">  1       -1 0.38176855E-02 0.92374230E+02</pdfrwt>
<totfact> 0.98320699E+04</totfact>
</mgrwt>
</event>
<event>
 7    1  0.3607059E-009  0.8978395E+02  0.7818608E-02  0.1303376E+00
         -1   -1    0    0    0  501 -0.00000000000E+00  0.00000000000E+00  0.34646245146E+03  0.34646245150E+03  0.50400000000E-02 0.  1.
          1   -1    0    0  501    0  0.00000000000E+00 -0.00000000000E+00 -0.58167600366E+01  0.58167622201E+01  0.50400000000E-02 0. -1.
         23    2    1    2    0    0  0.00000000000E+00  0.00000000000E+00  0.34064569142E+03  0.35227921372E+03  0.89783948073E+02 0.  0.
    9000005    2    3    3    0    0  0.21735484987E+02  0.80222929209E+01  0.32077146170E+03  0.32175424855E+03  0.97302275323E+01 0.  0.
         22    1    3    3    0    0 -0.21735484987E+02 -0.80222929209E+01  0.19874229726E+02  0.30524965169E+02  0.00000000000E+00 0. -1.
         22    1    4    4    0    0  0.87201977947E+01  0.18810677780E+01  0.69374991929E+02  0.69946191967E+02  0.00000000000E+00 0.  1.
         22    1    4    4    0    0  0.13015287193E+02  0.61412251429E+01  0.25139646977E+03  0.25180805658E+03  0.00000000000E+00 0.  1.
<mgrwt>
<rscale>  0 0.89783948E+02</rscale>
<asrwt>0</asrwt>
<pdfrwt beam="2">  1        1 0.89488607E-03 0.89783948E+02</pdfrwt>
<pdfrwt beam="1">  1       -1 0.53301931E-01 0.89783948E+02</pdfrwt>
<totfact> 0.59388283E+04</totfact>
</mgrwt>
</event>
<event>
 7    1  0.3607059E-009  0.9119590E+02  0.7818608E-02  0.1299981E+00
          1   -1    0    0  501    0  0.00000000000E+00  0.00000000000E+00  0.18360728014E+03  0.18360728021E+03  0.50400000000E-02 0. -1.
         -1   -1    0    0    0  501 -0.00000000000E+00 -0.00000000000E+00 -0.11324023286E+02  0.11324024408E+02  0.50400000000E-02 0.  1.
         23    2    1    2    0    0 -0.88817841970E-15  0.00000000000E+00  0.17228325686E+03  0.19493130462E+03  0.91195904116E+02 0.  0.
    9000005    2    3    3    0    0 -0.74177702826E+01 -0.32898099332E+02  0.15062381677E+03  0.15485089045E+03  0.12407894115E+02 0.  0.
         22    1    3    3    0    0  0.74177702826E+01  0.32898099332E+02  0.21659440081E+02  0.40080414173E+02  0.00000000000E+00 0.  1.
         22    1    4    4    0    0  0.24657277145E+01 -0.25798884165E+01  0.90070406468E+01  0.96882618987E+01  0.00000000000E+00 0. -1.
         22    1    4    4    0    0 -0.98834979971E+01 -0.30318210916E+02  0.14161677613E+03  0.14516262855E+03  0.00000000000E+00 0. -1.
<mgrwt>
<rscale>  0 0.91195904E+02</rscale>
<asrwt>0</asrwt>
<pdfrwt beam="1">  1        1 0.28247271E-01 0.91195904E+02</pdfrwt>
<pdfrwt beam="2">  1       -1 0.17421577E-02 0.91195904E+02</pdfrwt>
<totfact> 0.11640259E+05</totfact>
</mgrwt>
</event>
<event>
 7    1  0.3607059E-009  0.8909780E+02  0.7818608E-02  0.1305051E+00
         -1   -1    0    0    0  501 -0.00000000000E+00  0.00000000000E+00  0.22348718495E+01  0.22348775325E+01  0.50400000000E-02 0.  1.
          1   -1    0    0  501    0  0.00000000000E+00 -0.00000000000E+00 -0.88801594106E+03  0.88801594108E+03  0.50400000000E-02 0. -1.
         23    2    1    2    0    0  0.00000000000E+00  0.00000000000E+00 -0.88578106921E+03  0.89025081861E+03  0.89097797158E+02 0.  0.
    9000005    2    3    3    0    0 -0.25283460896E+02  0.27925045798E+02 -0.66678728964E+03  0.66804069942E+03  0.15938158011E+02 0.  0.
         22    1    3    3    0    0  0.25283460896E+02 -0.27925045798E+02 -0.21899377957E+03  0.22221011919E+03  0.00000000000E+00 0.  1.
         22    1    4    4    0    0 -0.10751155181E+02  0.62019823470E+01 -0.12273028910E+03  0.12335629609E+03  0.00000000000E+00 0.  1.
         22    1    4    4    0    0 -0.14532305715E+02  0.21723063451E+02 -0.54405700054E+03  0.54468440333E+03  0.00000000000E+00 0.  1.
<mgrwt>
<rscale>  0 0.89097797E+02</rscale>
<asrwt>0</asrwt>
<pdfrwt beam="2">  1        1 0.13661756E+00 0.89097797E+02</pdfrwt>
<pdfrwt beam="1">  1       -1 0.34382758E-03 0.89097797E+02</pdfrwt>
<totfact> 0.14824968E+05</totfact>
</mgrwt>
</event>
<event>
 7    1  0.3607059E-009  0.9207065E+02  0.7818608E-02  0.1297913E+00
          1   -1    0    0  501    0  0.00000000000E+00  0.00000000000E+00  0.13224676686E+02  0.13224677646E+02  0.50400000000E-02 0. -1.
         -1   -1    0    0    0  501 -0.00000000000E+00 -0.00000000000E+00 -0.16024974278E+03  0.16024974286E+03  0.50400000000E-02 0.  1.
         23    2    1    2    0    0 -0.17763568394E-14  0.00000000000E+00 -0.14702506609E+03  0.17347442051E+03  0.92070649557E+02 0.  0.
    9000005    2    3    3    0    0 -0.12281817749E+02  0.46802677314E+01 -0.15631625472E+03  0.15737864033E+03  0.12669530051E+02 0.  0.
         22    1    3    3    0    0  0.12281817749E+02 -0.46802677314E+01  0.92911886233E+01  0.16095780170E+02  0.00000000000E+00 0. -1.
         22    1    4    4    0    0 -0.26798047405E+01  0.43645126779E+01 -0.10772890222E+03  0.10785057579E+03  0.00000000000E+00 0. -1.
         22    1    4    4    0    0 -0.96020130085E+01  0.31575505344E+00 -0.48587352494E+02  0.49528064544E+02  0.00000000000E+00 0. -1.
<mgrwt>
<rscale>  0 0.92070650E+02</rscale>
<asrwt>0</asrwt>
<pdfrwt beam="1">  1        1 0.20345658E-02 0.92070650E+02</pdfrwt>
<pdfrwt beam="2">  1       -1 0.24653805E-01 0.92070650E+02</pdfrwt>
<totfact> 0.71770774E+04</totfact>
</mgrwt>
</event>
<event>
 7    1  0.3607059E-009  0.9376352E+02  0.7818608E-02  0.1293985E+00
         -1   -1    0    0    0  501 -0.00000000000E+00  0.00000000000E+00  0.72349814447E+01  0.72349832002E+01  0.50400000000E-02 0.  1.
          1   -1    0    0  501    0  0.00000000000E+00 -0.00000000000E+00 -0.30378779457E+03  0.30378779461E+03  0.50400000000E-02 0. -1.
         23    2    1    2    0    0 -0.35527136788E-14  0.00000000000E+00 -0.29655281313E+03  0.31102277781E+03  0.93763518200E+02 0.  0.
    9000005    2    3    3    0    0  0.21086232289E+02 -0.12527169179E+02 -0.28011321836E+03  0.28149618919E+03  0.13233679228E+02 0.  0.
         22    1    3    3    0    0 -0.21086232289E+02  0.12527169179E+02 -0.16439594761E+02  0.29526588623E+02  0.00000000000E+00 0.  1.
         22    1    4    4    0    0  0.65646769164E+01 -0.17603367994E+01 -0.31414797766E+02  0.32141613017E+02  0.00000000000E+00 0.  1.
         22    1    4    4    0    0  0.14521555373E+02 -0.10766832379E+02 -0.24869842060E+03  0.24935457617E+03  0.00000000000E+00 0.  1.
<mgrwt>
<rscale>  0 0.93763518E+02</rscale>
<asrwt>0</asrwt>
<pdfrwt beam="2">  1        1 0.46736574E-01 0.93763518E+02</pdfrwt>
<pdfrwt beam="1">  1       -1 0.11130744E-02 0.93763518E+02</pdfrwt>
<totfact> 0.11918665E+05</totfact>
</mgrwt>
</event>
<event>
 7    1  0.3607059E-009  0.9076957E+02  0.7818608E-02  0.1300999E+00
          1   -1    0    0  501    0  0.00000000000E+00  0.00000000000E+00  0.32702750679E+02  0.32702751067E+02  0.50400000000E-02 0. -1.
         -1   -1    0    0    0  501 -0.00000000000E+00 -0.00000000000E+00 -0.62984877219E+02  0.62984877420E+02  0.50400000000E-02 0.  1.
         23    2    1    2    0    0  0.00000000000E+00  0.00000000000E+00 -0.30282126540E+02  0.95687628488E+02  0.90769571211E+02 0.  0.
    9000005    2    3    3    0    0  0.18642846245E+02  0.39440578728E+02 -0.41697284885E+01  0.44845005635E+02  0.95169810423E+01 0.  0.
         22    1    3    3    0    0 -0.18642846245E+02 -0.39440578728E+02 -0.26112398051E+02  0.50842622853E+02  0.00000000000E+00 0.  1.
         22    1    4    4    0    0  0.15069371378E+02  0.30123899900E+02 -0.71451023681E+01  0.34432365396E+02  0.00000000000E+00 0.  1.
         22    1    4    4    0    0  0.35734748670E+01  0.93166788284E+01  0.29753738796E+01  0.10412640239E+02  0.00000000000E+00 0.  1.
<mgrwt>
<rscale>  0 0.90769571E+02</rscale>
<asrwt>0</asrwt>
<pdfrwt beam="1">  1        1 0.50311925E-02 0.90769571E+02</pdfrwt>
<pdfrwt beam="2">  1       -1 0.96899811E-02 0.90769571E+02</pdfrwt>
<totfact> 0.89015170E+04</totfact>
</mgrwt>
</event>
<event>
 7    1  0.3607059E-009  0.8739347E+02  0.7818608E-02  0.1309289E+00
          1   -1    0    0  501    0  0.00000000000E+00  0.00000000000E+00  0.12773846338E+03  0.12773846348E+03  0.50400000000E-02 0. -1.
         -1   -1    0    0    0  501 -0.00000000000E+00 -0.00000000000E+00 -0.14947767024E+02  0.14947767874E+02  0.50400000000E-02 0.  1.
         23    2    1    2    0    0  0.00000000000E+00 -0.35527136788E-14  0.11279069636E+03  0.14268623136E+03  0.87393474776E+02 0.  0.
    9000005    2    3    3    0    0 -0.34367981969E+02  0.26178984536E+02  0.66853509787E+02  0.79624971251E+02  0.20607910658E+01 0.  0.
         22    1    3    3    0    0  0.34367981969E+02 -0.26178984536E+02  0.45937186571E+02  0.63061260105E+02  0.00000000000E+00 0.  1.
         22    1    4    4    0    0 -0.22731002718E+02  0.17686653217E+02  0.46244171622E+02  0.54479717286E+02  0.00000000000E+00 0.  1.
         22    1    4    4    0    0 -0.11636979251E+02  0.84923313189E+01  0.20609338166E+02  0.25145253965E+02  0.00000000000E+00 0.  1.
<mgrwt>
<rscale>  0 0.87393475E+02</rscale>
<asrwt>0</asrwt>
<pdfrwt beam="1">  1        1 0.19652071E-01 0.87393475E+02</pdfrwt>
<pdfrwt beam="2">  1       -1 0.22996566E-02 0.87393475E+02</pdfrwt>
<totfact> 0.12212710E+05</totfact>
</mgrwt>
</event>
<event>
 7    1  0.3607059E-009  0.9082922E+02  0.7818608E-02  0.1300856E+00
          1   -1    0    0  501    0  0.00000000000E+00  0.00000000000E+00  0.29162078051E+02  0.29162078487E+02  0.50400000000E-02 0. -1.
         -1   -1    0    0    0  501 -0.00000000000E+00 -0.00000000000E+00 -0.70724952360E+02  0.70724952539E+02  0.50400000000E-02 0.  1.
         23    2    1    2    0    0  0.00000000000E+00  0.00000000000E+00 -0.41562874308E+02  0.99887031026E+02  0.90829215820E+02 0.  0.
    9000005    2    3    3    0    0 -0.18389551858E+02 -0.40012580285E+02 -0.86517932504E+01  0.44911386828E+02  0.17311677535E+01 0.  0.
         22    1    3    3    0    0  0.18389551858E+02  0.40012580285E+02 -0.32911081058E+02  0.54975644198E+02  0.00000000000E+00 0.  1.
         22    1    4    4    0    0 -0.14731325093E+02 -0.32348531799E+02 -0.76642542122E+01  0.36361796451E+02  0.00000000000E+00 0. -1.
         22    1    4    4    0    0 -0.36582267654E+01 -0.76640484857E+01 -0.98753903827E+00  0.85495903767E+01  0.00000000000E+00 0. -1.
<mgrwt>
<rscale>  0 0.90829216E+02</rscale>
<asrwt>0</asrwt>
<pdfrwt beam="1">  1        1 0.44864736E-02 0.90829216E+02</pdfrwt>
<pdfrwt beam="2">  1       -1 0.10880762E-01 0.90829216E+02</pdfrwt>
<totfact> 0.87240521E+04</totfact>
</mgrwt>
</event>
<event>
 7    1  0.3607059E-009  0.9267677E+02  0.7818608E-02  0.1296496E+00
          1   -1    0    0  501    0  0.00000000000E+00  0.00000000000E+00  0.60864520872E+02  0.60864521080E+02  0.50400000000E-02 0. -1.
         -1   -1    0    0    0  501 -0.00000000000E+00 -0.00000000000E+00 -0.35279109705E+02  0.35279110065E+02  0.50400000000E-02 0.  1.
         23    2    1    2    0    0  0.71054273576E-14  0.44408920985E-15  0.25585411167E+02  0.96143631145E+02  0.92676774573E+02 0.  0.
    9000005    2    3    3    0    0 -0.37550648308E+02 -0.23445224529E+01  0.39984351561E+02  0.55858677895E+02  0.10290556471E+02 0.  0.
         22    1    3    3    0    0  0.37550648308E+02  0.23445224529E+01 -0.14398940395E+02  0.40284953250E+02  0.00000000000E+00 0.  1.
         22    1    4    4    0    0  0.66312626088E+00  0.44196857777E-01  0.11173641593E+01  0.13000740227E+01  0.00000000000E+00 0.  1.
         22    1    4    4    0    0 -0.38213774569E+02 -0.23887193107E+01  0.38866987402E+02  0.54558603872E+02  0.00000000000E+00 0.  1.
<mgrwt>
<rscale>  0 0.92676775E+02</rscale>
<asrwt>0</asrwt>
<pdfrwt beam="1">  1        1 0.93637724E-02 0.92676775E+02</pdfrwt>
<pdfrwt beam="2">  1       -1 0.54275554E-02 0.92676775E+02</pdfrwt>
<totfact> 0.92299735E+04</totfact>
</mgrwt>
</event>
<event>
 7    1  0.3607059E-009  0.9243952E+02  0.7818608E-02  0.1297049E+00
         -1   -1    0    0    0  501 -0.00000000000E+00  0.00000000000E+00  0.13693727187E+02  0.13693728115E+02  0.50400000000E-02 0.  1.
          1   -1    0    0  501    0  0.00000000000E+00 -0.00000000000E+00 -0.15600327206E+03  0.15600327214E+03  0.50400000000E-02 0. -1.
         23    2    1    2    0    0  0.00000000000E+00  0.00000000000E+00 -0.14230954487E+03  0.16969700025E+03  0.92439522575E+02 0.  0.
    9000005    2    3    3    0    0 -0.18064788982E+02 -0.42145212230E+02 -0.76891845336E+02  0.89809385899E+02  0.71284220929E+01 0.  0.
         22    1    3    3    0    0  0.18064788982E+02  0.42145212230E+02 -0.65417699534E+02  0.79887614354E+02  0.00000000000E+00 0.  1.
         22    1    4    4    0    0 -0.16867686288E+02 -0.37648580957E+02 -0.64417605617E+02  0.76495505765E+02  0.00000000000E+00 0. -1.
         22    1    4    4    0    0 -0.11971026940E+01 -0.44966312727E+01 -0.12474239718E+02  0.13313880134E+02  0.00000000000E+00 0. -1.
<mgrwt>
<rscale>  0 0.92439523E+02</rscale>
<asrwt>0</asrwt>
<pdfrwt beam="2">  1        1 0.24000502E-01 0.92439523E+02</pdfrwt>
<pdfrwt beam="1">  1       -1 0.21067274E-02 0.92439523E+02</pdfrwt>
<totfact> 0.10883079E+05</totfact>
</mgrwt>
</event>
<event>
 7    1  0.3607059E-009  0.8395964E+02  0.7818608E-02  0.1318176E+00
          1   -1    0    0  501    0  0.00000000000E+00  0.00000000000E+00  0.11922626651E+02  0.11922627716E+02  0.50400000000E-02 0. -1.
         -1   -1    0    0    0  501 -0.00000000000E+00 -0.00000000000E+00 -0.14781180927E+03  0.14781180935E+03  0.50400000000E-02 0.  1.
         23    2    1    2    0    0  0.00000000000E+00  0.00000000000E+00 -0.13588918262E+03  0.15973443707E+03  0.83959635739E+02 0.  0.
    9000005    2    3    3    0    0 -0.33426036550E+02 -0.18751728833E+02 -0.39799965577E+02  0.56283652224E+02  0.10718441774E+02 0.  0.
         22    1    3    3    0    0  0.33426036550E+02  0.18751728833E+02 -0.96089217038E+02  0.10345078484E+03  0.00000000000E+00 0.  1.
         22    1    4    4    0    0 -0.11912784599E+02 -0.30542648907E+01 -0.18341261488E+02  0.22082681990E+02  0.00000000000E+00 0.  1.
         22    1    4    4    0    0 -0.21513251951E+02 -0.15697463943E+02 -0.21458704089E+02  0.34200970234E+02  0.00000000000E+00 0.  1.
<mgrwt>
<rscale>  0 0.83959636E+02</rscale>
<asrwt>0</asrwt>
<pdfrwt beam="1">  1        1 0.18342504E-02 0.83959636E+02</pdfrwt>
<pdfrwt beam="2">  1       -1 0.22740277E-01 0.83959636E+02</pdfrwt>
<totfact> 0.92894999E+04</totfact>
</mgrwt>
</event>
<event>
 7    1  0.3607059E-009  0.9157649E+02  0.7818608E-02  0.1299078E+00
         -1   -1    0    0    0  501 -0.00000000000E+00  0.00000000000E+00  0.20714644683E+03  0.20714644689E+03  0.50400000000E-02 0.  1.
          1   -1    0    0  501    0  0.00000000000E+00 -0.00000000000E+00 -0.10121164242E+02  0.10121165497E+02  0.50400000000E-02 0. -1.
         23    2    1    2    0    0  0.00000000000E+00  0.00000000000E+00  0.19702528259E+03  0.21726761239E+03  0.91576489417E+02 0.  0.
    9000005    2    3    3    0    0  0.29581054397E+02  0.18129526593E+02  0.16789106210E+03  0.17196285196E+03  0.13419955600E+02 0.  0.
         22    1    3    3    0    0 -0.29581054397E+02 -0.18129526593E+02  0.29134220488E+02  0.45304760426E+02  0.00000000000E+00 0. -1.
         22    1    4    4    0    0  0.11533067573E+02 -0.43520706167E-01  0.56515327664E+02  0.57680116182E+02  0.00000000000E+00 0.  1.
         22    1    4    4    0    0  0.18047986824E+02  0.18173047300E+02  0.11137573444E+03  0.11428273578E+03  0.00000000000E+00 0.  1.
<mgrwt>
<rscale>  0 0.91576489E+02</rscale>
<asrwt>0</asrwt>
<pdfrwt beam="2">  1        1 0.15571025E-02 0.91576489E+02</pdfrwt>
<pdfrwt beam="1">  1       -1 0.31868681E-01 0.91576489E+02</pdfrwt>
<totfact> 0.67942159E+04</totfact>
</mgrwt>
</event>
<event>
 7    1  0.3607059E-009  0.9359936E+02  0.7818608E-02  0.1294362E+00
          1   -1    0    0  501    0  0.00000000000E+00  0.00000000000E+00  0.69819496026E+01  0.69819514216E+01  0.50400000000E-02 0. -1.
         -1   -1    0    0    0  501 -0.00000000000E+00 -0.00000000000E+00 -0.31369604414E+03  0.31369604419E+03  0.50400000000E-02 0.  1.
         23    2    1    2    0    0  0.00000000000E+00  0.35527136788E-14 -0.30671409454E+03  0.32067799561E+03  0.93599364718E+02 0.  0.
    9000005    2    3    3    0    0  0.30399937227E+02 -0.27956029280E+02 -0.22686333578E+03  0.23077894427E+03  0.92872084412E+01 0.  0.
         22    1    3    3    0    0 -0.30399937227E+02  0.27956029280E+02 -0.79850758767E+02  0.89899051341E+02  0.00000000000E+00 0. -1.
         22    1    4    4    0    0  0.91784964067E+01 -0.12945140836E+02 -0.10322864913E+03  0.10444125367E+03  0.00000000000E+00 0.  1.
         22    1    4    4    0    0  0.21221440820E+02 -0.15010888444E+02 -0.12363468664E+03  0.12633769059E+03  0.00000000000E+00 0.  1.
<mgrwt>
<rscale>  0 0.93599365E+02</rscale>
<asrwt>0</asrwt>
<pdfrwt beam="1">  1        1 0.10741465E-02 0.93599365E+02</pdfrwt>
<pdfrwt beam="2">  1       -1 0.48260919E-01 0.93599365E+02</pdfrwt>
<totfact> 0.55559878E+04</totfact>
</mgrwt>
</event>
<event>
 7    1  0.3607059E-009  0.9130333E+02  0.7818608E-02  0.1299726E+00
         -1   -1    0    0    0  501 -0.00000000000E+00  0.00000000000E+00  0.17910719224E+02  0.17910719933E+02  0.50400000000E-02 0.  1.
          1   -1    0    0  501    0  0.00000000000E+00 -0.00000000000E+00 -0.11635906007E+03  0.11635906018E+03  0.50400000000E-02 0. -1.
         23    2    1    2    0    0  0.00000000000E+00 -0.17763568394E-14 -0.98448340843E+02  0.13426978011E+03  0.91303329818E+02 0.  0.
    9000005    2    3    3    0    0 -0.27245605227E+02 -0.11422859705E+02 -0.17580340143E+01  0.33166762534E+02  0.14971263319E+02 0.  0.
         22    1    3    3    0    0  0.27245605227E+02  0.11422859705E+02 -0.96690306829E+02  0.10110301757E+03  0.00000000000E+00 0. -1.
         22    1    4    4    0    0 -0.50274558149E+01 -0.22081374601E-01 -0.60093037322E+01  0.78350195216E+01  0.00000000000E+00 0.  1.
         22    1    4    4    0    0 -0.22218149412E+02 -0.11400778331E+02  0.42512697180E+01  0.25331743013E+02  0.00000000000E+00 0.  1.
<mgrwt>
<rscale>  0 0.91303330E+02</rscale>
<asrwt>0</asrwt>
<pdfrwt beam="2">  1        1 0.17901393E-01 0.91303330E+02</pdfrwt>
<pdfrwt beam="1">  1       -1 0.27554954E-02 0.91303330E+02</pdfrwt>
<totfact> 0.10676288E+05</totfact>
</mgrwt>
</event>
<event>
 7    1  0.3607059E-009  0.8765645E+02  0.7818608E-02  0.1308628E+00
          1   -1    0    0  501    0  0.00000000000E+00  0.00000000000E+00  0.42098828183E+02  0.42098828484E+02  0.50400000000E-02 0. -1.
         -1   -1    0    0    0  501 -0.00000000000E+00 -0.00000000000E+00 -0.45628668998E+02  0.45628669276E+02  0.50400000000E-02 0.  1.
         23    2    1    2    0    0  0.00000000000E+00  0.00000000000E+00 -0.35298408150E+01  0.87727497760E+02  0.87656454908E+02 0.  0.
    9000005    2    3    3    0    0  0.55540235700E+00 -0.22789194352E+02 -0.38848351875E+02  0.45691167349E+02  0.76702333260E+01 0.  0.
         22    1    3    3    0    0 -0.55540235700E+00  0.22789194352E+02  0.35318511060E+02  0.42036330412E+02  0.00000000000E+00 0. -1.
         22    1    4    4    0    0 -0.24776281509E+01 -0.42809395505E+01 -0.11616026802E+02  0.12625258942E+02  0.00000000000E+00 0.  1.
         22    1    4    4    0    0  0.30330305079E+01 -0.18508254802E+02 -0.27232325073E+02  0.33065908406E+02  0.00000000000E+00 0.  1.
<mgrwt>
<rscale>  0 0.87656455E+02</rscale>
<asrwt>0</asrwt>
<pdfrwt beam="1">  1        1 0.64767429E-02 0.87656455E+02</pdfrwt>
<pdfrwt beam="2">  1       -1 0.70197953E-02 0.87656455E+02</pdfrwt>
<totfact> 0.10204277E+05</totfact>
</mgrwt>
</event>
<event>
 7    1  0.3607059E-009  0.9032788E+02  0.7818608E-02  0.1302060E+00
          1   -1    0    0  501    0  0.00000000000E+00  0.00000000000E+00  0.15520616242E+03  0.15520616250E+03  0.50400000000E-02 0. -1.
         -1   -1    0    0    0  501 -0.00000000000E+00 -0.00000000000E+00 -0.13142399312E+02  0.13142400279E+02  0.50400000000E-02 0.  1.
         23    2    1    2    0    0  0.00000000000E+00  0.00000000000E+00  0.14206376311E+03  0.16834856278E+03  0.90327879427E+02 0.  0.
    9000005    2    3    3    0    0 -0.16369845331E+02 -0.24529935007E+02  0.11132227716E+02  0.34136951854E+02  0.13104023822E+02 0.  0.
         22    1    3    3    0    0  0.16369845331E+02  0.24529935007E+02  0.13093153539E+03  0.13421161093E+03  0.00000000000E+00 0. -1.
         22    1    4    4    0    0  0.22691690420E+01 -0.23340311918E+01  0.15882105133E+01  0.36220494724E+01  0.00000000000E+00 0.  1.
         22    1    4    4    0    0 -0.18639014373E+02 -0.22195903815E+02  0.95440172029E+01  0.30514902381E+02  0.00000000000E+00 0.  1.
<mgrwt>
<rscale>  0 0.90327879E+02</rscale>
<asrwt>0</asrwt>
<pdfrwt beam="1">  1        1 0.23877870E-01 0.90327879E+02</pdfrwt>
<pdfrwt beam="2">  1       -1 0.20219077E-02 0.90327879E+02</pdfrwt>
<totfact> 0.11571941E+05</totfact>
</mgrwt>
</event>
<event>
 7    1  0.3607059E-009  0.9407714E+02  0.7818608E-02  0.1293268E+00
          1   -1    0    0  501    0  0.00000000000E+00  0.00000000000E+00  0.27855686749E+02  0.27855687205E+02  0.50400000000E-02 0. -1.
         -1   -1    0    0    0  501 -0.00000000000E+00 -0.00000000000E+00 -0.79431780954E+02  0.79431781114E+02  0.50400000000E-02 0.  1.
         23    2    1    2    0    0 -0.44408920985E-15  0.00000000000E+00 -0.51576094205E+02  0.10728746832E+03  0.94077135187E+02 0.  0.
    9000005    2    3    3    0    0  0.28800629520E+01 -0.21766354555E+02  0.21480505432E+02  0.31002897771E+02  0.42069708061E+01 0.  0.
         22    1    3    3    0    0 -0.28800629520E+01  0.21766354555E+02 -0.73056599637E+02  0.76284570548E+02  0.00000000000E+00 0.  1.
         22    1    4    4    0    0  0.31003746580E+01 -0.21765615072E+02  0.21535832654E+02  0.30775743867E+02  0.00000000000E+00 0.  1.
         22    1    4    4    0    0 -0.22031170598E+00 -0.73948324420E-03 -0.55327221849E-01  0.22715390401E+00  0.00000000000E+00 0.  1.
<mgrwt>
<rscale>  0 0.94077135E+02</rscale>
<asrwt>0</asrwt>
<pdfrwt beam="1">  1        1 0.42854904E-02 0.94077135E+02</pdfrwt>
<pdfrwt beam="2">  1       -1 0.12220274E-01 0.94077135E+02</pdfrwt>
<totfact> 0.78217387E+04</totfact>
</mgrwt>
</event>
<event>
 7    1  0.3607059E-009  0.9114033E+02  0.7818608E-02  0.1300113E+00
          1   -1    0    0  501    0  0.00000000000E+00  0.00000000000E+00  0.53360906838E+02  0.53360907076E+02  0.50400000000E-02 0. -1.
         -1   -1    0    0    0  501 -0.00000000000E+00 -0.00000000000E+00 -0.38916874659E+02  0.38916874986E+02  0.50400000000E-02 0.  1.
         23    2    1    2    0    0 -0.35527136788E-14  0.00000000000E+00  0.14444032179E+02  0.92277782062E+02  0.91140325854E+02 0.  0.
    9000005    2    3    3    0    0  0.28837059774E+02 -0.65389812714E+01  0.40810946321E+02  0.52660254958E+02  0.15272027377E+02 0.  0.
         22    1    3    3    0    0 -0.28837059774E+02  0.65389812714E+01 -0.26366914142E+02  0.39617527104E+02  0.00000000000E+00 0.  1.
         22    1    4    4    0    0  0.11468922230E+02 -0.10208454454E+02  0.21629075522E+02  0.26524811543E+02  0.00000000000E+00 0.  1.
         22    1    4    4    0    0  0.17368137544E+02  0.36694731821E+01  0.19181870798E+02  0.26135443415E+02  0.00000000000E+00 0.  1.
<mgrwt>
<rscale>  0 0.91140326E+02</rscale>
<asrwt>0</asrwt>
<pdfrwt beam="1">  1        1 0.82093702E-02 0.91140326E+02</pdfrwt>
<pdfrwt beam="2">  1       -1 0.59872116E-02 0.91140326E+02</pdfrwt>
<totfact> 0.94789785E+04</totfact>
</mgrwt>
</event>
<event>
 7    1  0.3607059E-009  0.9168781E+02  0.7818608E-02  0.1298815E+00
          1   -1    0    0  501    0  0.00000000000E+00  0.00000000000E+00  0.18972468085E+03  0.18972468092E+03  0.50400000000E-02 0. -1.
         -1   -1    0    0    0  501 -0.00000000000E+00 -0.00000000000E+00 -0.11077437469E+02  0.11077438616E+02  0.50400000000E-02 0.  1.
         23    2    1    2    0    0  0.17763568394E-14 -0.35527136788E-14  0.17864724338E+03  0.20080211954E+03  0.91687805304E+02 0.  0.
    9000005    2    3    3    0    0  0.12342497241E+02 -0.20755089294E+02  0.17433410684E+03  0.17627225780E+03  0.98192207016E+01 0.  0.
         22    1    3    3    0    0 -0.12342497241E+02  0.20755089294E+02  0.43131365490E+01  0.24529861733E+02  0.00000000000E+00 0.  1.
         22    1    4    4    0    0  0.13405437323E+02 -0.15676512408E+02  0.14815010589E+03  0.14957911841E+03  0.00000000000E+00 0.  1.
         22    1    4    4    0    0 -0.10629400815E+01 -0.50785768855E+01  0.26184000950E+02  0.26693139391E+02  0.00000000000E+00 0.  1.
<mgrwt>
<rscale>  0 0.91687805E+02</rscale>
<asrwt>0</asrwt>
<pdfrwt beam="1">  1        1 0.29188412E-01 0.91687805E+02</pdfrwt>
<pdfrwt beam="2">  1       -1 0.17042213E-02 0.91687805E+02</pdfrwt>
<totfact> 0.11545739E+05</totfact>
</mgrwt>
</event>
<event>
 7    1  0.3607059E-009  0.9117454E+02  0.7818608E-02  0.1300032E+00
         -1   -1    0    0    0  501 -0.00000000000E+00  0.00000000000E+00  0.28565610238E+02  0.28565610682E+02  0.50400000000E-02 0.  1.
          1   -1    0    0  501    0  0.00000000000E+00 -0.00000000000E+00 -0.72751790814E+02  0.72751790989E+02  0.50400000000E-02 0. -1.
         23    2    1    2    0    0  0.71054273576E-14 -0.88817841970E-15 -0.44186180576E+02  0.10131740167E+03  0.91174543199E+02 0.  0.
    9000005    2    3    3    0    0 -0.45099996986E+02  0.53265699264E+01 -0.23234114819E+02  0.51303692202E+02  0.54646744480E+01 0.  0.
         22    1    3    3    0    0  0.45099996986E+02 -0.53265699264E+01 -0.20952065757E+02  0.50013709469E+02  0.00000000000E+00 0. -1.
         22    1    4    4    0    0 -0.44835134605E+02  0.47446972422E+01 -0.22739690048E+02  0.50495494357E+02  0.00000000000E+00 0.  1.
         22    1    4    4    0    0 -0.26486238154E+00  0.58187268422E+00 -0.49442477148E+00  0.80819784487E+00  0.00000000000E+00 0.  1.
<mgrwt>
<rscale>  0 0.91174543E+02</rscale>
<asrwt>0</asrwt>
<pdfrwt beam="2">  1        1 0.11192583E-01 0.91174543E+02</pdfrwt>
<pdfrwt beam="1">  1       -1 0.43947093E-02 0.91174543E+02</pdfrwt>
<totfact> 0.99264637E+04</totfact>
</mgrwt>
</event>
<event>
 7    1  0.3607059E-009  0.9082570E+02  0.7818608E-02  0.1300864E+00
          1   -1    0    0  501    0  0.00000000000E+00  0.00000000000E+00  0.33323739834E+03  0.33323739838E+03  0.50400000000E-02 0. -1.
         -1   -1    0    0    0  501 -0.00000000000E+00 -0.00000000000E+00 -0.61887610830E+01  0.61887631352E+01  0.50400000000E-02 0.  1.
         23    2    1    2    0    0  0.00000000000E+00 -0.17763568394E-14  0.32704863726E+03  0.33942616151E+03  0.90825701142E+02 0.  0.
    9000005    2    3    3    0    0 -0.98816628972E+01 -0.13969307590E+02  0.32063896470E+03  0.32115397723E+03  0.61434998264E+01 0.  0.
         22    1    3    3    0    0  0.98816628972E+01  0.13969307590E+02  0.64096725538E+01  0.18272184281E+02  0.00000000000E+00 0.  1.
         22    1    4    4    0    0 -0.60385414663E+01 -0.10146454755E+02  0.26171148190E+03  0.26197769807E+03  0.00000000000E+00 0. -1.
         22    1    4    4    0    0 -0.38431214309E+01 -0.38228528350E+01  0.58927482803E+02  0.59176279164E+02  0.00000000000E+00 0. -1.
<mgrwt>
<rscale>  0 0.90825701E+02</rscale>
<asrwt>0</asrwt>
<pdfrwt beam="1">  1        1 0.51267302E-01 0.90825701E+02</pdfrwt>
<pdfrwt beam="2">  1       -1 0.95211706E-03 0.90825701E+02</pdfrwt>
<totfact> 0.13201517E+05</totfact>
</mgrwt>
</event>
<event>
 7    1  0.3607059E-009  0.9193143E+02  0.7818608E-02  0.1298241E+00
          1   -1    0    0  501    0  0.00000000000E+00  0.00000000000E+00  0.16137676675E+03  0.16137676683E+03  0.50400000000E-02 0. -1.
         -1   -1    0    0    0  501 -0.00000000000E+00 -0.00000000000E+00 -0.13092632120E+02  0.13092633090E+02  0.50400000000E-02 0.  1.
         23    2    1    2    0    0  0.35527136788E-14  0.00000000000E+00  0.14828413463E+03  0.17446939992E+03  0.91931425122E+02 0.  0.
    9000005    2    3    3    0    0  0.25136428065E+02 -0.24934218620E+02  0.21467967569E+02  0.42803552023E+02  0.10849661755E+02 0.  0.
         22    1    3    3    0    0 -0.25136428065E+02  0.24934218620E+02  0.12681616706E+03  0.13166584790E+03  0.00000000000E+00 0. -1.
         22    1    4    4    0    0  0.20614127947E+01 -0.53707629166E+01  0.77893929882E-01  0.57533107408E+01  0.00000000000E+00 0.  1.
         22    1    4    4    0    0  0.23075015270E+02 -0.19563455703E+02  0.21390073639E+02  0.37050241282E+02  0.00000000000E+00 0.  1.
<mgrwt>
<rscale>  0 0.91931425E+02</rscale>
<asrwt>0</asrwt>
<pdfrwt beam="1">  1        1 0.24827194E-01 0.91931425E+02</pdfrwt>
<pdfrwt beam="2">  1       -1 0.20142513E-02 0.91931425E+02</pdfrwt>
<totfact> 0.11116297E+05</totfact>
</mgrwt>
</event>
<event>
 7    1  0.3607059E-009  0.9149371E+02  0.7818608E-02  0.1299274E+00
         -1   -1    0    0    0  501 -0.00000000000E+00  0.00000000000E+00  0.74443936510E+01  0.74443953571E+01  0.50400000000E-02 0.  1.
          1   -1    0    0  501    0  0.00000000000E+00 -0.00000000000E+00 -0.28112089464E+03  0.28112089468E+03  0.50400000000E-02 0. -1.
         23    2    1    2    0    0  0.00000000000E+00  0.00000000000E+00 -0.27367650098E+03  0.28856529004E+03  0.91493712480E+02 0.  0.
    9000005    2    3    3    0    0 -0.13438404731E+02  0.42533555033E+02 -0.15619445707E+03  0.16290016095E+03  0.12249897706E+02 0.  0.
         22    1    3    3    0    0  0.13438404731E+02 -0.42533555033E+02 -0.11748204392E+03  0.12566512908E+03  0.00000000000E+00 0. -1.
         22    1    4    4    0    0  0.17093026301E+00  0.19395342325E+02 -0.63313355146E+02  0.66217742795E+02  0.00000000000E+00 0. -1.
         22    1    4    4    0    0 -0.13609334994E+02  0.23138212708E+02 -0.92881101923E+02  0.96682418157E+02  0.00000000000E+00 0. -1.
<mgrwt>
<rscale>  0 0.91493712E+02</rscale>
<asrwt>0</asrwt>
<pdfrwt beam="2">  1        1 0.43249360E-01 0.91493712E+02</pdfrwt>
<pdfrwt beam="1">  1       -1 0.11452917E-02 0.91493712E+02</pdfrwt>
<totfact> 0.12536469E+05</totfact>
</mgrwt>
</event>
<event>
 7    1  0.3607059E-009  0.8931667E+02  0.7818608E-02  0.1304515E+00
          1   -1    0    0  501    0  0.00000000000E+00  0.00000000000E+00  0.11151346480E+03  0.11151346491E+03  0.50400000000E-02 0. -1.
         -1   -1    0    0    0  501 -0.00000000000E+00 -0.00000000000E+00 -0.17884540093E+02  0.17884540803E+02  0.50400000000E-02 0.  1.
         23    2    1    2    0    0  0.00000000000E+00  0.00000000000E+00  0.93628924705E+02  0.12939800572E+03  0.89316674488E+02 0.  0.
    9000005    2    3    3    0    0  0.24005944850E+02  0.13368289187E+02  0.97426500623E+02  0.10165961847E+03  0.93679485756E+01 0.  0.
         22    1    3    3    0    0 -0.24005944850E+02 -0.13368289187E+02 -0.37975759178E+01  0.27738387242E+02  0.00000000000E+00 0.  1.
         22    1    4    4    0    0  0.69982399497E+00  0.34197059303E+01  0.83879767931E+01  0.90852791346E+01  0.00000000000E+00 0.  1.
         22    1    4    4    0    0  0.23306120855E+02  0.99485832567E+01  0.89038523830E+02  0.92574339339E+02  0.00000000000E+00 0.  1.
<mgrwt>
<rscale>  0 0.89316674E+02</rscale>
<asrwt>0</asrwt>
<pdfrwt beam="1">  1        1 0.17155918E-01 0.89316674E+02</pdfrwt>
<pdfrwt beam="2">  1       -1 0.27514678E-02 0.89316674E+02</pdfrwt>
<totfact> 0.11250296E+05</totfact>
</mgrwt>
</event>
<event>
 7    1  0.3607059E-009  0.9615603E+02  0.7818608E-02  0.1288593E+00
         -1   -1    0    0    0  501 -0.00000000000E+00  0.00000000000E+00  0.57589579822E+02  0.57589580043E+02  0.50400000000E-02 0.  1.
          1   -1    0    0  501    0  0.00000000000E+00 -0.00000000000E+00 -0.40137389035E+02  0.40137389351E+02  0.50400000000E-02 0. -1.
         23    2    1    2    0    0  0.00000000000E+00  0.00000000000E+00  0.17452190787E+02  0.97726969394E+02  0.96156027287E+02 0.  0.
    9000005    2    3    3    0    0  0.23049049512E+02 -0.73875290229E+01 -0.32758300022E+02  0.41987148298E+02  0.10197064938E+02 0.  0.
         22    1    3    3    0    0 -0.23049049512E+02  0.73875290229E+01  0.50210490810E+02  0.55739821096E+02  0.00000000000E+00 0.  1.
         22    1    4    4    0    0  0.24110193887E+02 -0.72781643875E+01 -0.31153292283E+02  0.40059964381E+02  0.00000000000E+00 0. -1.
         22    1    4    4    0    0 -0.10611443747E+01 -0.10936463547E+00 -0.16050077389E+01  0.19271839169E+01  0.00000000000E+00 0. -1.
<mgrwt>
<rscale>  0 0.96156027E+02</rscale>
<asrwt>0</asrwt>
<pdfrwt beam="2">  1        1 0.61749829E-02 0.96156027E+02</pdfrwt>
<pdfrwt beam="1">  1       -1 0.88599355E-02 0.96156027E+02</pdfrwt>
<totfact> 0.77998387E+04</totfact>
</mgrwt>
</event>
<event>
 7    1  0.3607059E-009  0.9180214E+02  0.7818608E-02  0.1298545E+00
         -1   -1    0    0    0  501 -0.00000000000E+00  0.00000000000E+00  0.29080345970E+01  0.29080389645E+01  0.50400000000E-02 0.  1.
          1   -1    0    0  501    0  0.00000000000E+00 -0.00000000000E+00 -0.72451219970E+03  0.72451219972E+03  0.50400000000E-02 0. -1.
         23    2    1    2    0    0 -0.71054273576E-14 -0.17763568394E-14 -0.72160416511E+03  0.72742023868E+03  0.91802138049E+02 0.  0.
    9000005    2    3    3    0    0 -0.34226800089E+02 -0.76024045287E+01 -0.59510911209E+03  0.59615612007E+03  0.42419101932E+01 0.  0.
         22    1    3    3    0    0  0.34226800089E+02  0.76024045287E+01 -0.12649505301E+03  0.13126411861E+03  0.00000000000E+00 0.  1.
         22    1    4    4    0    0 -0.30967981858E+02 -0.63799055140E+01 -0.55313480625E+03  0.55403775411E+03  0.00000000000E+00 0. -1.
         22    1    4    4    0    0 -0.32588182308E+01 -0.12224990146E+01 -0.41974305846E+02  0.42118365963E+02  0.00000000000E+00 0. -1.
<mgrwt>
<rscale>  0 0.91802138E+02</rscale>
<asrwt>0</asrwt>
<pdfrwt beam="2">  1        1 0.11146327E+00 0.91802138E+02</pdfrwt>
<pdfrwt beam="1">  1       -1 0.44739085E-03 0.91802138E+02</pdfrwt>
<totfact> 0.13954074E+05</totfact>
</mgrwt>
</event>
<event>
 7    1  0.3607059E-009  0.9003365E+02  0.7818608E-02  0.1302770E+00
          1   -1    0    0  501    0  0.00000000000E+00  0.00000000000E+00  0.31754308503E+02  0.31754308903E+02  0.50400000000E-02 0. -1.
         -1   -1    0    0    0  501 -0.00000000000E+00 -0.00000000000E+00 -0.63818563008E+02  0.63818563207E+02  0.50400000000E-02 0.  1.
         23    2    1    2    0    0  0.44408920985E-15 -0.35527136788E-14 -0.32064254505E+02  0.95572872110E+02  0.90033646301E+02 0.  0.
    9000005    2    3    3    0    0 -0.38993643813E+01  0.19193462069E+02  0.25442905349E+02  0.34822008221E+02  0.13477269576E+02 0.  0.
         22    1    3    3    0    0  0.38993643813E+01 -0.19193462069E+02 -0.57507159853E+02  0.60750863888E+02  0.00000000000E+00 0.  1.
         22    1    4    4    0    0 -0.88396987689E+01  0.11962249536E+02  0.14132661908E+02  0.20517500356E+02  0.00000000000E+00 0. -1.
         22    1    4    4    0    0  0.49403343876E+01  0.72312125327E+01  0.11310243441E+02  0.14304507865E+02  0.00000000000E+00 0. -1.
<mgrwt>
<rscale>  0 0.90033646E+02</rscale>
<asrwt>0</asrwt>
<pdfrwt beam="1">  1        1 0.48852783E-02 0.90033646E+02</pdfrwt>
<pdfrwt beam="2">  1       -1 0.98182405E-02 0.90033646E+02</pdfrwt>
<totfact> 0.90685895E+04</totfact>
</mgrwt>
</event>
<event>
 7    1  0.3607059E-009  0.9223203E+02  0.7818608E-02  0.1297535E+00
          1   -1    0    0  501    0  0.00000000000E+00  0.00000000000E+00  0.55945858213E+01  0.55945880915E+01  0.50400000000E-02 0. -1.
         -1   -1    0    0    0  501 -0.00000000000E+00 -0.00000000000E+00 -0.38013297506E+03  0.38013297509E+03  0.50400000000E-02 0.  1.
         23    2    1    2    0    0  0.00000000000E+00  0.00000000000E+00 -0.37453838924E+03  0.38572756319E+03  0.92232033411E+02 0.  0.
    9000005    2    3    3    0    0  0.45676336357E+02  0.17281573037E+01 -0.17308715436E+03  0.17915574936E+03  0.69502011094E+01 0.  0.
         22    1    3    3    0    0 -0.45676336357E+02 -0.17281573037E+01 -0.20145123488E+03  0.20657181382E+03  0.00000000000E+00 0.  1.
         22    1    4    4    0    0  0.37286352357E+02 -0.13130131610E+01 -0.14008591532E+03  0.14496916826E+03  0.00000000000E+00 0. -1.
         22    1    4    4    0    0  0.83899839999E+01  0.30411704646E+01 -0.33001239038E+02  0.34186581101E+02  0.00000000000E+00 0. -1.
<mgrwt>
<rscale>  0 0.92232033E+02</rscale>
<asrwt>0</asrwt>
<pdfrwt beam="1">  1        1 0.86070599E-03 0.92232033E+02</pdfrwt>
<pdfrwt beam="2">  1       -1 0.58481976E-01 0.92232033E+02</pdfrwt>
<totfact> 0.53024073E+04</totfact>
</mgrwt>
</event>
<event>
 7    1  0.3607059E-009  0.9388706E+02  0.7818608E-02  0.1293703E+00
          1   -1    0    0  501    0  0.00000000000E+00  0.00000000000E+00  0.65669219734E+02  0.65669219927E+02  0.50400000000E-02 0. -1.
         -1   -1    0    0    0  501 -0.00000000000E+00 -0.00000000000E+00 -0.33557499831E+02  0.33557500209E+02  0.50400000000E-02 0.  1.
         23    2    1    2    0    0  0.00000000000E+00  0.00000000000E+00  0.32111719903E+02  0.99226720136E+02  0.93887056796E+02 0.  0.
    9000005    2    3    3    0    0 -0.15607790930E+02 -0.35749358943E+02  0.43607458960E+02  0.58560126733E+02  0.24613336967E+01 0.  0.
         22    1    3    3    0    0  0.15607790930E+02  0.35749358943E+02 -0.11495739056E+02  0.40666593403E+02  0.00000000000E+00 0.  1.
         22    1    4    4    0    0 -0.77133019749E+01 -0.17549793450E+02  0.19589592293E+02  0.27408801574E+02  0.00000000000E+00 0.  1.
         22    1    4    4    0    0 -0.78944889552E+01 -0.18199565493E+02  0.24017866667E+02  0.31151325160E+02  0.00000000000E+00 0.  1.
<mgrwt>
<rscale>  0 0.93887057E+02</rscale>
<asrwt>0</asrwt>
<pdfrwt beam="1">  1        1 0.10102957E-01 0.93887057E+02</pdfrwt>
<pdfrwt beam="2">  1       -1 0.51626924E-02 0.93887057E+02</pdfrwt>
<totfact> 0.90082104E+04</totfact>
</mgrwt>
</event>
<event>
 7    1  0.3607059E-009  0.1108638E+03  0.7818608E-02  0.1258979E+00
         -1   -1    0    0    0  501 -0.00000000000E+00  0.00000000000E+00  0.22504376411E+01  0.22504432848E+01  0.50400000000E-02 0.  1.
          1   -1    0    0  501    0  0.00000000000E+00 -0.00000000000E+00 -0.13653761374E+04  0.13653761374E+04  0.50400000000E-02 0. -1.
         23    2    1    2    0    0  0.00000000000E+00  0.00000000000E+00 -0.13631256998E+04  0.13676265807E+04  0.11086383936E+03 0.  0.
    9000005    2    3    3    0    0  0.32053643627E+02 -0.23092571367E+02 -0.11577129181E+04  0.11584493501E+04  0.12041309447E+02 0.  0.
         22    1    3    3    0    0 -0.32053643627E+02  0.23092571367E+02 -0.20541278164E+03  0.20917723055E+03  0.00000000000E+00 0.  1.
         22    1    4    4    0    0  0.18763453923E+02 -0.10276286713E+02 -0.76991785156E+03  0.77021501376E+03  0.00000000000E+00 0.  1.
         22    1    4    4    0    0  0.13290189704E+02 -0.12816284654E+02 -0.38779506657E+03  0.38823433639E+03  0.00000000000E+00 0.  1.
<mgrwt>
<rscale>  0 0.11086384E+03</rscale>
<asrwt>0</asrwt>
<pdfrwt beam="2">  1        1 0.21005721E+00 0.11086384E+03</pdfrwt>
<pdfrwt beam="1">  1       -1 0.34622270E-03 0.11086384E+03</pdfrwt>
<totfact> 0.70256841E+04</totfact>
</mgrwt>
</event>
<event>
 7    1  0.3607059E-009  0.9115368E+02  0.7818608E-02  0.1300082E+00
          1   -1    0    0  501    0  0.00000000000E+00  0.00000000000E+00  0.37072422870E+03  0.37072422874E+03  0.50400000000E-02 0. -1.
         -1   -1    0    0    0  501 -0.00000000000E+00 -0.00000000000E+00 -0.56032155666E+01  0.56032178333E+01  0.50400000000E-02 0.  1.
         23    2    1    2    0    0  0.00000000000E+00  0.00000000000E+00  0.36512101314E+03  0.37632744657E+03  0.91153676879E+02 0.  0.
    9000005    2    3    3    0    0  0.18544481785E+02  0.98470573588E+01  0.34948091309E+03  0.35014586769E+03  0.49353521664E+01 0.  0.
         22    1    3    3    0    0 -0.18544481785E+02 -0.98470573588E+01  0.15640100044E+02  0.26181578881E+02  0.00000000000E+00 0.  1.
         22    1    4    4    0    0  0.17736557543E+02  0.10400534047E+02  0.33694907297E+03  0.33757582016E+03  0.00000000000E+00 0. -1.
         22    1    4    4    0    0  0.80792424255E+00 -0.55347668791E+00  0.12531840119E+02  0.12570047525E+02  0.00000000000E+00 0. -1.
<mgrwt>
<rscale>  0 0.91153677E+02</rscale>
<asrwt>0</asrwt>
<pdfrwt beam="1">  1        1 0.57034517E-01 0.91153677E+02</pdfrwt>
<pdfrwt beam="2">  1       -1 0.86203303E-03 0.91153677E+02</pdfrwt>
<totfact> 0.13326012E+05</totfact>
</mgrwt>
</event>
<event>
 7    1  0.3607059E-009  0.8724503E+02  0.7818608E-02  0.1309664E+00
          1   -1    0    0  501    0  0.00000000000E+00  0.00000000000E+00  0.50866034286E+02  0.50866034536E+02  0.50400000000E-02 0. -1.
         -1   -1    0    0    0  501 -0.00000000000E+00 -0.00000000000E+00 -0.37410499320E+02  0.37410499660E+02  0.50400000000E-02 0.  1.
         23    2    1    2    0    0  0.00000000000E+00  0.00000000000E+00  0.13455534966E+02  0.88276534196E+02  0.87245028903E+02 0.  0.
    9000005    2    3    3    0    0 -0.65002315813E+01  0.14492273181E+02 -0.33806727405E+02  0.38416726364E+02  0.89817066358E+01 0.  0.
         22    1    3    3    0    0  0.65002315813E+01 -0.14492273181E+02  0.47262262371E+02  0.49859807832E+02  0.00000000000E+00 0. -1.
         22    1    4    4    0    0 -0.36260990847E+01  0.14495408030E+02 -0.30930717228E+02  0.34350760061E+02  0.00000000000E+00 0. -1.
         22    1    4    4    0    0 -0.28741324966E+01 -0.31348490263E-02 -0.28760101772E+01  0.40659663027E+01  0.00000000000E+00 0. -1.
<mgrwt>
<rscale>  0 0.87245029E+02</rscale>
<asrwt>0</asrwt>
<pdfrwt beam="1">  1        1 0.78255437E-02 0.87245029E+02</pdfrwt>
<pdfrwt beam="2">  1       -1 0.57554615E-02 0.87245029E+02</pdfrwt>
<totfact> 0.10626515E+05</totfact>
</mgrwt>
</event>
<event>
 7    1  0.3607059E-009  0.9128476E+02  0.7818608E-02  0.1299770E+00
          1   -1    0    0  501    0  0.00000000000E+00  0.00000000000E+00  0.12475382895E+03  0.12475382906E+03  0.50400000000E-02 0. -1.
         -1   -1    0    0    0  501 -0.00000000000E+00 -0.00000000000E+00 -0.16698701920E+02  0.16698702680E+02  0.50400000000E-02 0.  1.
         23    2    1    2    0    0  0.22204460493E-15  0.00000000000E+00  0.10805512703E+03  0.14145253174E+03  0.91284764645E+02 0.  0.
    9000005    2    3    3    0    0 -0.10668236887E+01  0.22298778356E+02 -0.57646977057E+01  0.25464057598E+02  0.10807999850E+02 0.  0.
         22    1    3    3    0    0  0.10668236887E+01 -0.22298778356E+02  0.11381982474E+03  0.11598847414E+03  0.00000000000E+00 0. -1.
         22    1    4    4    0    0 -0.29275689561E+01  0.11403338097E+02  0.20192902944E+01  0.11945053916E+02  0.00000000000E+00 0. -1.
         22    1    4    4    0    0  0.18607452674E+01  0.10895440259E+02 -0.77839880001E+01  0.13519003683E+02  0.00000000000E+00 0. -1.
<mgrwt>
<rscale>  0 0.91284765E+02</rscale>
<asrwt>0</asrwt>
<pdfrwt beam="1">  1        1 0.19192896E-01 0.91284765E+02</pdfrwt>
<pdfrwt beam="2">  1       -1 0.25690312E-02 0.91284765E+02</pdfrwt>
<totfact> 0.10812611E+05</totfact>
</mgrwt>
</event>
<event>
 7    1  0.3607059E-009  0.9226975E+02  0.7818608E-02  0.1297446E+00
         -1   -1    0    0    0  501 -0.00000000000E+00  0.00000000000E+00  0.36058410013E+02  0.36058410365E+02  0.50400000000E-02 0.  1.
          1   -1    0    0  501    0  0.00000000000E+00 -0.00000000000E+00 -0.59027186290E+02  0.59027186505E+02  0.50400000000E-02 0. -1.
         23    2    1    2    0    0  0.00000000000E+00  0.00000000000E+00 -0.22968776277E+02  0.95085596871E+02  0.92269746117E+02 0.  0.
    9000005    2    3    3    0    0 -0.14510155713E+02 -0.31351938877E+02 -0.42612918887E+02  0.55344169757E+02  0.73230854020E+01 0.  0.
         22    1    3    3    0    0  0.14510155713E+02  0.31351938877E+02  0.19644142610E+02  0.39741427114E+02  0.00000000000E+00 0.  1.
         22    1    4    4    0    0 -0.58829202782E+01 -0.17856174004E+02 -0.18351844347E+02  0.26272455005E+02  0.00000000000E+00 0. -1.
         22    1    4    4    0    0 -0.86272354346E+01 -0.13495764873E+02 -0.24261074540E+02  0.29071714752E+02  0.00000000000E+00 0. -1.
<mgrwt>
<rscale>  0 0.92269746E+02</rscale>
<asrwt>0</asrwt>
<pdfrwt beam="2">  1        1 0.90811056E-02 0.92269746E+02</pdfrwt>
<pdfrwt beam="1">  1       -1 0.55474477E-02 0.92269746E+02</pdfrwt>
<totfact> 0.93000221E+04</totfact>
</mgrwt>
</event>
<event>
 7    1  0.3607059E-009  0.9047246E+02  0.7818608E-02  0.1301712E+00
          1   -1    0    0  501    0  0.00000000000E+00  0.00000000000E+00  0.27946640800E+03  0.27946640804E+03  0.50400000000E-02 0. -1.
         -1   -1    0    0    0  501 -0.00000000000E+00 -0.00000000000E+00 -0.73222260766E+01  0.73222278112E+01  0.50400000000E-02 0.  1.
         23    2    1    2    0    0  0.71054273576E-14  0.00000000000E+00  0.27214418192E+03  0.28678863585E+03  0.90472459355E+02 0.  0.
    9000005    2    3    3    0    0  0.39803948431E+02  0.12705870090E+02  0.18965219167E+03  0.19431852230E+03  0.67779685507E+01 0.  0.
         22    1    3    3    0    0 -0.39803948431E+02 -0.12705870090E+02  0.82491990253E+02  0.92470113557E+02  0.00000000000E+00 0.  1.
         22    1    4    4    0    0  0.15585269744E+02  0.28809250968E+01  0.59980234986E+02  0.62038930933E+02  0.00000000000E+00 0.  1.
         22    1    4    4    0    0  0.24218678687E+02  0.98249449934E+01  0.12967195668E+03  0.13227959136E+03  0.00000000000E+00 0.  1.
<mgrwt>
<rscale>  0 0.90472459E+02</rscale>
<asrwt>0</asrwt>
<pdfrwt beam="1">  1        1 0.42994837E-01 0.90472459E+02</pdfrwt>
<pdfrwt beam="2">  1       -1 0.11264963E-02 0.90472459E+02</pdfrwt>
<totfact> 0.12902570E+05</totfact>
</mgrwt>
</event>
<event>
 7    1  0.3607059E-009  0.9306260E+02  0.7818608E-02  0.1295600E+00
         -1   -1    0    0    0  501 -0.00000000000E+00  0.00000000000E+00  0.47676357179E+03  0.47676357182E+03  0.50400000000E-02 0.  1.
          1   -1    0    0  501    0  0.00000000000E+00 -0.00000000000E+00 -0.45413732550E+01  0.45413760517E+01  0.50400000000E-02 0. -1.
         23    2    1    2    0    0  0.00000000000E+00  0.35527136788E-14  0.47222219854E+03  0.48130494787E+03  0.93062602872E+02 0.  0.
    9000005    2    3    3    0    0  0.17198424260E+02  0.28629581807E+02  0.40040797236E+03  0.40210443126E+03  0.15684085888E+02 0.  0.
         22    1    3    3    0    0 -0.17198424260E+02 -0.28629581807E+02  0.71814226175E+02  0.79200516618E+02  0.00000000000E+00 0. -1.
         22    1    4    4    0    0  0.44248243670E+01  0.31413826408E+01  0.14657157436E+03  0.14667199380E+03  0.00000000000E+00 0. -1.
         22    1    4    4    0    0  0.12773599893E+02  0.25488199166E+02  0.25383639800E+03  0.25543243745E+03  0.00000000000E+00 0. -1.
<mgrwt>
<rscale>  0 0.93062603E+02</rscale>
<asrwt>0</asrwt>
<pdfrwt beam="2">  1        1 0.69867332E-03 0.93062603E+02</pdfrwt>
<pdfrwt beam="1">  1       -1 0.73348211E-01 0.93062603E+02</pdfrwt>
<totfact> 0.45880080E+04</totfact>
</mgrwt>
</event>
<event>
 7    1  0.3607059E-009  0.9083256E+02  0.7818608E-02  0.1300848E+00
          1   -1    0    0  501    0  0.00000000000E+00  0.00000000000E+00  0.38087731479E+02  0.38087731812E+02  0.50400000000E-02 0. -1.
         -1   -1    0    0    0  501 -0.00000000000E+00 -0.00000000000E+00 -0.54154930368E+02  0.54154930603E+02  0.50400000000E-02 0.  1.
         23    2    1    2    0    0  0.71054273576E-14  0.17763568394E-14 -0.16067198890E+02  0.92242662415E+02  0.90832559632E+02 0.  0.
    9000005    2    3    3    0    0  0.32056299012E+02  0.14871237360E+02 -0.36014976334E+02  0.51663433345E+02  0.11102784230E+02 0.  0.
         22    1    3    3    0    0 -0.32056299012E+02 -0.14871237360E+02  0.19947777445E+02  0.40579229070E+02  0.00000000000E+00 0. -1.
         22    1    4    4    0    0  0.23770990160E+02  0.15626543110E+02 -0.25087509268E+02  0.37929301919E+02  0.00000000000E+00 0. -1.
         22    1    4    4    0    0  0.82853088517E+01 -0.75530575030E+00 -0.10927467066E+02  0.13734131426E+02  0.00000000000E+00 0. -1.
<mgrwt>
<rscale>  0 0.90832560E+02</rscale>
<asrwt>0</asrwt>
<pdfrwt beam="1">  1        1 0.58596510E-02 0.90832560E+02</pdfrwt>
<pdfrwt beam="2">  1       -1 0.83315278E-02 0.90832560E+02</pdfrwt>
<totfact> 0.90957753E+04</totfact>
</mgrwt>
</event>
<event>
 7    1  0.3607059E-009  0.9301548E+02  0.7818608E-02  0.1295709E+00
          1   -1    0    0  501    0  0.00000000000E+00  0.00000000000E+00  0.37528925400E+01  0.37528959243E+01  0.50400000000E-02 0. -1.
         -1   -1    0    0    0  501 -0.00000000000E+00 -0.00000000000E+00 -0.57634717249E+03  0.57634717252E+03  0.50400000000E-02 0.  1.
         23    2    1    2    0    0  0.35527136788E-14 -0.71054273576E-14 -0.57259427995E+03  0.58010006844E+03  0.93015482413E+02 0.  0.
    9000005    2    3    3    0    0 -0.19960866639E+02  0.41710115735E+02 -0.29399015803E+03  0.29768472412E+03  0.69146227256E+01 0.  0.
         22    1    3    3    0    0  0.19960866639E+02 -0.41710115735E+02 -0.27860412193E+03  0.28241534432E+03  0.00000000000E+00 0.  1.
         22    1    4    4    0    0 -0.18559737595E+02  0.38898358928E+02 -0.28266611782E+03  0.28593299975E+03  0.00000000000E+00 0. -1.
         22    1    4    4    0    0 -0.14011290437E+01  0.28117568071E+01 -0.11324040211E+02  0.11751724369E+02  0.00000000000E+00 0. -1.
<mgrwt>
<rscale>  0 0.93015482E+02</rscale>
<asrwt>0</asrwt>
<pdfrwt beam="1">  1        1 0.57736880E-03 0.93015482E+02</pdfrwt>
<pdfrwt beam="2">  1       -1 0.88668726E-01 0.93015482E+02</pdfrwt>
<totfact> 0.40645372E+04</totfact>
</mgrwt>
</event>
<event>
 7    1  0.3607059E-009  0.9242025E+02  0.7818608E-02  0.1297094E+00
          1   -1    0    0  501    0  0.00000000000E+00  0.00000000000E+00  0.31570665473E+03  0.31570665477E+03  0.50400000000E-02 0. -1.
         -1   -1    0    0    0  501 -0.00000000000E+00 -0.00000000000E+00 -0.67637961583E+01  0.67637980361E+01  0.50400000000E-02 0.  1.
         23    2    1    2    0    0  0.00000000000E+00  0.00000000000E+00  0.30894285858E+03  0.32247045281E+03  0.92420252492E+02 0.  0.
    9000005    2    3    3    0    0 -0.33316037500E+02  0.21593009998E+02  0.78787143593E+02  0.88915599351E+02  0.11061346067E+02 0.  0.
         22    1    3    3    0    0  0.33316037500E+02 -0.21593009998E+02  0.23015571498E+03  0.23355485346E+03  0.00000000000E+00 0. -1.
         22    1    4    4    0    0 -0.13617641196E+02  0.12965594877E+02  0.27617003538E+02  0.33410263194E+02  0.00000000000E+00 0. -1.
         22    1    4    4    0    0 -0.19698396304E+02  0.86274151214E+01  0.51170140055E+02  0.55505336156E+02  0.00000000000E+00 0. -1.
<mgrwt>
<rscale>  0 0.92420252E+02</rscale>
<asrwt>0</asrwt>
<pdfrwt beam="1">  1        1 0.48570255E-01 0.92420252E+02</pdfrwt>
<pdfrwt beam="2">  1       -1 0.10405842E-02 0.92420252E+02</pdfrwt>
<totfact> 0.12477570E+05</totfact>
</mgrwt>
</event>
<event>
 7    1  0.3607059E-009  0.8981579E+02  0.7818608E-02  0.1303298E+00
         -1   -1    0    0    0  501 -0.00000000000E+00  0.00000000000E+00  0.10906217367E+02  0.10906218531E+02  0.50400000000E-02 0.  1.
          1   -1    0    0  501    0  0.00000000000E+00 -0.00000000000E+00 -0.18491459219E+03  0.18491459226E+03  0.50400000000E-02 0. -1.
         23    2    1    2    0    0  0.00000000000E+00  0.35527136788E-14 -0.17400837482E+03  0.19582081079E+03  0.89815786084E+02 0.  0.
    9000005    2    3    3    0    0  0.33118385123E+02 -0.27853254226E+02 -0.65547635185E+02  0.79045970833E+02  0.88961689796E+01 0.  0.
         22    1    3    3    0    0 -0.33118385123E+02  0.27853254226E+02 -0.10846073964E+03  0.11677483996E+03  0.00000000000E+00 0.  1.
         22    1    4    4    0    0  0.19594560211E+02 -0.10684935150E+02 -0.32505263922E+02  0.39429770627E+02  0.00000000000E+00 0.  1.
         22    1    4    4    0    0  0.13523824912E+02 -0.17168319076E+02 -0.33042371263E+02  0.39616200206E+02  0.00000000000E+00 0.  1.
<mgrwt>
<rscale>  0 0.89815786E+02</rscale>
<asrwt>0</asrwt>
<pdfrwt beam="2">  1        1 0.28448397E-01 0.89815786E+02</pdfrwt>
<pdfrwt beam="1">  1       -1 0.16778798E-02 0.89815786E+02</pdfrwt>
<totfact> 0.12142707E+05</totfact>
</mgrwt>
</event>
<event>
 6    1  0.3607059E-009  0.1305841E+03  0.7818608E-02  0.1226592E+00
         -1   -1    0    0    0  501 -0.00000000000E+00  0.00000000000E+00  0.44035475322E+02  0.44035475610E+02  0.50400000000E-02 0.  1.
          1   -1    0    0  501    0  0.00000000000E+00 -0.00000000000E+00 -0.96809451831E+02  0.96809451963E+02  0.50400000000E-02 0. -1.
    9000005    2    1    2    0    0  0.24806344296E+02 -0.21340734733E+02 -0.86893242891E+02  0.93570134980E+02  0.11582436009E+02 0.  0.
         22    1    1    2    0    0 -0.24806344296E+02  0.21340734733E+02  0.34119266381E+02  0.47274792593E+02  0.00000000000E+00 0.  1.
         22    1    3    3    0    0  0.18490282379E+02 -0.90470829785E+01 -0.57917083007E+02  0.61466484826E+02  0.00000000000E+00 0. -1.
         22    1    3    3    0    0  0.63160619173E+01 -0.12293651754E+02 -0.28976159884E+02  0.32103650154E+02  0.00000000000E+00 0. -1.
<mgrwt>
<rscale>  0 0.13058408E+03</rscale>
<asrwt>0</asrwt>
<pdfrwt beam="2">  1        1 0.14893762E-01 0.13058408E+03</pdfrwt>
<pdfrwt beam="1">  1       -1 0.67746886E-02 0.13058408E+03</pdfrwt>
<totfact> 0.38012638E+04</totfact>
</mgrwt>
</event>
<event>
 7    1  0.3607059E-009  0.9314538E+02  0.7818608E-02  0.1295409E+00
          1   -1    0    0  501    0  0.00000000000E+00  0.00000000000E+00  0.35755321303E+02  0.35755321658E+02  0.50400000000E-02 0. -1.
         -1   -1    0    0    0  501 -0.00000000000E+00 -0.00000000000E+00 -0.60662730638E+02  0.60662730847E+02  0.50400000000E-02 0.  1.
         23    2    1    2    0    0  0.31918911958E-15  0.00000000000E+00 -0.24907409335E+02  0.96418052505E+02  0.93145379966E+02 0.  0.
    9000005    2    3    3    0    0  0.11830566774E+00  0.25948679028E+02 -0.51380894280E+02  0.59347938604E+02  0.14451075392E+02 0.  0.
         22    1    3    3    0    0 -0.11830566774E+00 -0.25948679028E+02  0.26473484945E+02  0.37070113901E+02  0.00000000000E+00 0. -1.
         22    1    4    4    0    0 -0.47591364173E+01  0.75449180315E+01 -0.26865418539E+02  0.28307700027E+02  0.00000000000E+00 0. -1.
         22    1    4    4    0    0  0.48774420851E+01  0.18403760996E+02 -0.24515475741E+02  0.31040238577E+02  0.00000000000E+00 0. -1.
<mgrwt>
<rscale>  0 0.93145380E+02</rscale>
<asrwt>0</asrwt>
<pdfrwt beam="1">  1        1 0.55008187E-02 0.93145380E+02</pdfrwt>
<pdfrwt beam="2">  1       -1 0.93327278E-02 0.93145380E+02</pdfrwt>
<totfact> 0.83855099E+04</totfact>
</mgrwt>
</event>
<event>
 7    1  0.6386705E-009  0.9304398E+02  0.7818608E-02  0.1295643E+00
          1   -1    0    0  501    0  0.00000000000E+00  0.00000000000E+00  0.39932265254E+03  0.39932265258E+03  0.50400000000E-02 0.  1.
         -1   -1    0    0    0  501 -0.00000000000E+00 -0.00000000000E+00 -0.54199159549E+01  0.54199182983E+01  0.50400000000E-02 0. -1.
         23    2    1    2    0    0  0.00000000000E+00 -0.17763568394E-14  0.39390273659E+03  0.40474257087E+03  0.93043983069E+02 0.  0.
    9000005    2    3    3    0    0 -0.24153879567E+02  0.76405485096E+01  0.36535351505E+03  0.36657391973E+03  0.15857483649E+02 0.  0.
         22    1    3    3    0    0  0.24153879567E+02 -0.76405485096E+01  0.28549221542E+02  0.38168651146E+02  0.00000000000E+00 0. -1.
         22    1    4    4    0    0 -0.14303332643E+02 -0.31773432663E+01  0.14612764817E+03  0.14686037721E+03  0.00000000000E+00 0. -1.
         22    1    4    4    0    0 -0.98505469241E+01  0.10817891776E+02  0.21922586688E+03  0.21971354252E+03  0.00000000000E+00 0. -1.
<mgrwt>
<rscale>  0 0.93043983E+02</rscale>
<asrwt>0</asrwt>
<pdfrwt beam="1">  1        1 0.61434267E-01 0.93043983E+02</pdfrwt>
<pdfrwt beam="2">  1       -1 0.83383324E-03 0.93043983E+02</pdfrwt>
<totfact> 0.12777682E+05</totfact>
</mgrwt>
</event>
<event>
 7    1  0.3607059E-009  0.9179644E+02  0.7818608E-02  0.1298559E+00
         -1   -1    0    0    0  501 -0.00000000000E+00  0.00000000000E+00  0.36596065240E+02  0.36596065587E+02  0.50400000000E-02 0.  1.
          1   -1    0    0  501    0  0.00000000000E+00 -0.00000000000E+00 -0.57564837412E+02  0.57564837633E+02  0.50400000000E-02 0. -1.
         23    2    1    2    0    0  0.00000000000E+00  0.00000000000E+00 -0.20968772172E+02  0.94160903220E+02  0.91796439413E+02 0.  0.
    9000005    2    3    3    0    0 -0.34491499222E+02 -0.99074714581E+01  0.16271856015E+02  0.42443537694E+02  0.15775268130E+02 0.  0.
         22    1    3    3    0    0  0.34491499222E+02  0.99074714581E+01 -0.37240628187E+02  0.51717365526E+02  0.00000000000E+00 0. -1.
         22    1    4    4    0    0 -0.27977559957E+02 -0.92150021110E+01  0.19311446664E+02  0.35222039937E+02  0.00000000000E+00 0. -1.
         22    1    4    4    0    0 -0.65139392646E+01 -0.69246934715E+00 -0.30395906495E+01  0.72214977572E+01  0.00000000000E+00 0. -1.
<mgrwt>
<rscale>  0 0.91796439E+02</rscale>
<asrwt>0</asrwt>
<pdfrwt beam="2">  1        1 0.88561289E-02 0.91796439E+02</pdfrwt>
<pdfrwt beam="1">  1       -1 0.56301639E-02 0.91796439E+02</pdfrwt>
<totfact> 0.93982089E+04</totfact>
</mgrwt>
</event>
<event>
 6    1  0.4223139E-009  0.1446325E+03  0.7818608E-02  0.1207228E+00
         -1   -1    0    0    0  501 -0.00000000000E+00  0.00000000000E+00  0.11033032096E+02  0.11033033247E+02  0.50400000000E-02 0.  1.
          1   -1    0    0  501    0  0.00000000000E+00 -0.00000000000E+00 -0.47399873046E+03  0.47399873048E+03  0.50400000000E-02 0. -1.
    9000005    2    1    2    0    0 -0.10624019000E+02  0.70658928406E+02 -0.23708077372E+03  0.24811499961E+03  0.15754549150E+02 0.  0.
         22    1    1    2    0    0  0.10624019000E+02 -0.70658928406E+02 -0.22588492464E+03  0.23691676412E+03  0.00000000000E+00 0.  1.
         22    1    3    3    0    0 -0.11199623764E+01  0.53760816845E+02 -0.17247906546E+03  0.18066684191E+03  0.00000000000E+00 0.  1.
         22    1    3    3    0    0 -0.95040566238E+01  0.16898111560E+02 -0.64601708262E+02  0.67448157699E+02  0.00000000000E+00 0.  1.
<mgrwt>
<rscale>  0 0.14463255E+03</rscale>
<asrwt>0</asrwt>
<pdfrwt beam="2">  1        1 0.72922866E-01 0.14463255E+03</pdfrwt>
<pdfrwt beam="1">  1       -1 0.16973900E-02 0.14463255E+03</pdfrwt>
<totfact> 0.39564524E+04</totfact>
</mgrwt>
</event>
<event>
 7    1  0.3607059E-009  0.8927657E+02  0.7818608E-02  0.1304613E+00
         -1   -1    0    0    0  501 -0.00000000000E+00  0.00000000000E+00  0.67497204153E+03  0.67497204155E+03  0.50400000000E-02 0.  1.
          1   -1    0    0  501    0  0.00000000000E+00 -0.00000000000E+00 -0.29520851210E+01  0.29520894233E+01  0.50400000000E-02 0. -1.
         23    2    1    2    0    0 -0.17763568394E-14  0.00000000000E+00  0.67201995641E+03  0.67792413097E+03  0.89276567712E+02 0.  0.
    9000005    2    3    3    0    0 -0.14579161915E+02 -0.14730795563E+02  0.63515812408E+03  0.63563532651E+03  0.13299527222E+02 0.  0.
         22    1    3    3    0    0  0.14579161915E+02  0.14730795563E+02  0.36861832330E+02  0.42288804462E+02  0.00000000000E+00 0. -1.
         22    1    4    4    0    0 -0.10123452727E+02 -0.97160840150E+01  0.56072168157E+03  0.56089721943E+03  0.00000000000E+00 0.  1.
         22    1    4    4    0    0 -0.44557091881E+01 -0.50147115484E+01  0.74436442506E+02  0.74738107075E+02  0.00000000000E+00 0.  1.
<mgrwt>
<rscale>  0 0.89276568E+02</rscale>
<asrwt>0</asrwt>
<pdfrwt beam="2">  1        1 0.45416684E-03 0.89276568E+02</pdfrwt>
<pdfrwt beam="1">  1       -1 0.10384195E+00 0.89276568E+02</pdfrwt>
<totfact> 0.40142606E+04</totfact>
</mgrwt>
</event>
<event>
 7    1  0.3607059E-009  0.9558016E+02  0.7818608E-02  0.1289875E+00
          1   -1    0    0  501    0  0.00000000000E+00  0.00000000000E+00  0.11334874970E+02  0.11334876091E+02  0.50400000000E-02 0. -1.
         -1   -1    0    0    0  501 -0.00000000000E+00 -0.00000000000E+00 -0.20149242793E+03  0.20149242800E+03  0.50400000000E-02 0.  1.
         23    2    1    2    0    0  0.00000000000E+00 -0.35527136788E-14 -0.19015755296E+03  0.21282730409E+03  0.95580157021E+02 0.  0.
    9000005    2    3    3    0    0  0.34676799531E+02  0.25320940596E+02 -0.56123887326E+02  0.72084084064E+02  0.14233551502E+02 0.  0.
         22    1    3    3    0    0 -0.34676799531E+02 -0.25320940596E+02 -0.13403366564E+03  0.14074322002E+03  0.00000000000E+00 0.  1.
         22    1    4    4    0    0  0.23909202117E+02  0.87234087372E+01 -0.31560572981E+02  0.40544020184E+02  0.00000000000E+00 0.  1.
         22    1    4    4    0    0  0.10767597415E+02  0.16597531859E+02 -0.24563314345E+02  0.31540063879E+02  0.00000000000E+00 0.  1.
<mgrwt>
<rscale>  0 0.95580157E+02</rscale>
<asrwt>0</asrwt>
<pdfrwt beam="1">  1        1 0.17438272E-02 0.95580157E+02</pdfrwt>
<pdfrwt beam="2">  1       -1 0.30998832E-01 0.95580157E+02</pdfrwt>
<totfact> 0.61249799E+04</totfact>
</mgrwt>
</event>
<event>
 7    1  0.3607059E-009  0.8835258E+02  0.7818608E-02  0.1306891E+00
          1   -1    0    0  501    0  0.00000000000E+00  0.00000000000E+00  0.17502630601E+03  0.17502630608E+03  0.50400000000E-02 0. -1.
         -1   -1    0    0    0  501 -0.00000000000E+00 -0.00000000000E+00 -0.11150006813E+02  0.11150007952E+02  0.50400000000E-02 0.  1.
         23    2    1    2    0    0  0.00000000000E+00  0.35527136788E-14  0.16387629919E+03  0.18617631403E+03  0.88352580430E+02 0.  0.
    9000005    2    3    3    0    0 -0.14896878262E+02  0.22583380455E+02  0.15539542291E+03  0.15782404221E+03  0.53632811257E+01 0.  0.
         22    1    3    3    0    0  0.14896878262E+02 -0.22583380455E+02  0.84808762853E+01  0.28352271819E+02  0.00000000000E+00 0.  1.
         22    1    4    4    0    0 -0.12329984950E+02  0.19263791372E+02  0.11818909278E+03  0.12038182521E+03  0.00000000000E+00 0.  1.
         22    1    4    4    0    0 -0.25668933122E+01  0.33195890830E+01  0.37206330125E+02  0.37442217006E+02  0.00000000000E+00 0.  1.
<mgrwt>
<rscale>  0 0.88352580E+02</rscale>
<asrwt>0</asrwt>
<pdfrwt beam="1">  1        1 0.26927124E-01 0.88352580E+02</pdfrwt>
<pdfrwt beam="2">  1       -1 0.17153857E-02 0.88352580E+02</pdfrwt>
<totfact> 0.12557084E+05</totfact>
</mgrwt>
</event>
<event>
 7    1  0.3607059E-009  0.9269141E+02  0.7818608E-02  0.1296462E+00
          1   -1    0    0  501    0  0.00000000000E+00  0.00000000000E+00  0.89609630035E+01  0.89609644209E+01  0.50400000000E-02 0. -1.
         -1   -1    0    0    0  501 -0.00000000000E+00 -0.00000000000E+00 -0.23969794118E+03  0.23969794123E+03  0.50400000000E-02 0.  1.
         23    2    1    2    0    0  0.00000000000E+00  0.17763568394E-14 -0.23073697817E+03  0.24865890565E+03  0.92691414181E+02 0.  0.
    9000005    2    3    3    0    0 -0.33072294430E+02 -0.93172873229E+01 -0.39410478463E+02  0.54271616988E+02  0.14547649155E+02 0.  0.
         22    1    3    3    0    0  0.33072294430E+02  0.93172873229E+01 -0.19132649971E+03  0.19438728866E+03  0.00000000000E+00 0.  1.
         22    1    4    4    0    0 -0.53624506375E+01  0.38812366912E+01 -0.70645738489E+01  0.96813262913E+01  0.00000000000E+00 0. -1.
         22    1    4    4    0    0 -0.27709843793E+02 -0.13198524014E+02 -0.32345904614E+02  0.44590290697E+02  0.00000000000E+00 0. -1.
<mgrwt>
<rscale>  0 0.92691414E+02</rscale>
<asrwt>0</asrwt>
<pdfrwt beam="1">  1        1 0.13786100E-02 0.92691414E+02</pdfrwt>
<pdfrwt beam="2">  1       -1 0.36876602E-01 0.92691414E+02</pdfrwt>
<totfact> 0.62911895E+04</totfact>
</mgrwt>
</event>
<event>
 7    1  0.3607059E-009  0.8891305E+02  0.7818608E-02  0.1305505E+00
          1   -1    0    0  501    0  0.00000000000E+00  0.00000000000E+00  0.43651419601E+03  0.43651419604E+03  0.50400000000E-02 0. -1.
         -1   -1    0    0    0  501 -0.00000000000E+00 -0.00000000000E+00 -0.45276464386E+01  0.45276492437E+01  0.50400000000E-02 0.  1.
         23    2    1    2    0    0  0.00000000000E+00  0.00000000000E+00  0.43198654958E+03  0.44104184529E+03  0.88913048986E+02 0.  0.
    9000005    2    3    3    0    0 -0.11868243302E+02  0.20418980739E+02  0.40247988119E+03  0.40324722328E+03  0.77767825447E+01 0.  0.
         22    1    3    3    0    0  0.11868243302E+02 -0.20418980739E+02  0.29506668390E+02  0.37794622011E+02  0.00000000000E+00 0.  1.
         22    1    4    4    0    0 -0.11160026430E+02  0.20330193275E+02  0.35243024251E+03  0.35319249537E+03  0.00000000000E+00 0. -1.
         22    1    4    4    0    0 -0.70821687173E+00  0.88787463943E-01  0.50049638673E+02  0.50054727905E+02  0.00000000000E+00 0. -1.
<mgrwt>
<rscale>  0 0.88913049E+02</rscale>
<asrwt>0</asrwt>
<pdfrwt beam="1">  1        1 0.67156029E-01 0.88913049E+02</pdfrwt>
<pdfrwt beam="2">  1       -1 0.69656122E-03 0.88913049E+02</pdfrwt>
<totfact> 0.14616624E+05</totfact>
</mgrwt>
</event>
<event>
 7    1  0.3607059E-009  0.9121123E+02  0.7818608E-02  0.1299945E+00
         -1   -1    0    0    0  501 -0.00000000000E+00  0.00000000000E+00  0.39657702794E+02  0.39657703114E+02  0.50400000000E-02 0.  1.
          1   -1    0    0  501    0  0.00000000000E+00 -0.00000000000E+00 -0.52445604060E+02  0.52445604302E+02  0.50400000000E-02 0. -1.
         23    2    1    2    0    0  0.00000000000E+00  0.00000000000E+00 -0.12787901266E+02  0.92103307416E+02  0.91211231864E+02 0.  0.
    9000005    2    3    3    0    0  0.27794237469E+01 -0.22843768152E+02 -0.44951515746E+02  0.52555095874E+02  0.14554600464E+02 0.  0.
         22    1    3    3    0    0 -0.27794237469E+01  0.22843768152E+02  0.32163614480E+02  0.39548211542E+02  0.00000000000E+00 0.  1.
         22    1    4    4    0    0 -0.31281906218E+01 -0.14935506064E+02 -0.36495378859E+02  0.39557143425E+02  0.00000000000E+00 0.  1.
         22    1    4    4    0    0  0.59076143687E+01 -0.79082620883E+01 -0.84561368876E+01  0.12997952448E+02  0.00000000000E+00 0.  1.
<mgrwt>
<rscale>  0 0.91211232E+02</rscale>
<asrwt>0</asrwt>
<pdfrwt beam="2">  1        1 0.80685545E-02 0.91211232E+02</pdfrwt>
<pdfrwt beam="1">  1       -1 0.61011851E-02 0.91211232E+02</pdfrwt>
<totfact> 0.94339030E+04</totfact>
</mgrwt>
</event>
<event>
 7    1  0.3607059E-009  0.9259002E+02  0.7818608E-02  0.1296698E+00
          1   -1    0    0  501    0  0.00000000000E+00  0.00000000000E+00  0.88233360545E+01  0.88233374939E+01  0.50400000000E-02 0. -1.
         -1   -1    0    0    0  501 -0.00000000000E+00 -0.00000000000E+00 -0.24290447074E+03  0.24290447079E+03  0.50400000000E-02 0.  1.
         23    2    1    2    0    0  0.00000000000E+00  0.00000000000E+00 -0.23408113469E+03  0.25172780829E+03  0.92590020245E+02 0.  0.
    9000005    2    3    3    0    0 -0.34293958919E+02  0.86508145084E+01 -0.37440543532E+02  0.51931826597E+02  0.66489174883E+01 0.  0.
         22    1    3    3    0    0  0.34293958919E+02 -0.86508145084E+01 -0.19664059115E+03  0.19979598169E+03  0.00000000000E+00 0.  1.
         22    1    4    4    0    0  0.22092757563E+00 -0.24618770537E+00 -0.49730027926E+00  0.59726455420E+00  0.00000000000E+00 0.  1.
         22    1    4    4    0    0 -0.34514886494E+02  0.88970022138E+01 -0.36943243253E+02  0.51334562043E+02  0.00000000000E+00 0.  1.
<mgrwt>
<rscale>  0 0.92590020E+02</rscale>
<asrwt>0</asrwt>
<pdfrwt beam="1">  1        1 0.13574366E-02 0.92590020E+02</pdfrwt>
<pdfrwt beam="2">  1       -1 0.37369914E-01 0.92590020E+02</pdfrwt>
<totfact> 0.62816142E+04</totfact>
</mgrwt>
</event>
<event>
 7    1  0.3607059E-009  0.8989283E+02  0.7818608E-02  0.1303111E+00
          1   -1    0    0  501    0  0.00000000000E+00  0.00000000000E+00  0.23222684433E+02  0.23222684980E+02  0.50400000000E-02 0. -1.
         -1   -1    0    0    0  501 -0.00000000000E+00 -0.00000000000E+00 -0.86991680494E+02  0.86991680640E+02  0.50400000000E-02 0.  1.
         23    2    1    2    0    0 -0.35527136788E-14  0.00000000000E+00 -0.63768996060E+02  0.11021436562E+03  0.89892833588E+02 0.  0.
    9000005    2    3    3    0    0  0.18843699389E+02 -0.35100164583E+02 -0.76855764747E+01  0.41421513427E+02  0.83406911250E+01 0.  0.
         22    1    3    3    0    0 -0.18843699389E+02  0.35100164583E+02 -0.56083419586E+02  0.68792852193E+02  0.00000000000E+00 0.  1.
         22    1    4    4    0    0  0.21253282001E+01 -0.10960563758E+02 -0.42139973533E+00  0.11172670030E+02  0.00000000000E+00 0. -1.
         22    1    4    4    0    0  0.16718371189E+02 -0.24139600825E+02 -0.72641767393E+01  0.30248843398E+02  0.00000000000E+00 0. -1.
<mgrwt>
<rscale>  0 0.89892834E+02</rscale>
<asrwt>0</asrwt>
<pdfrwt beam="1">  1        1 0.35727208E-02 0.89892834E+02</pdfrwt>
<pdfrwt beam="2">  1       -1 0.13383335E-01 0.89892834E+02</pdfrwt>
<totfact> 0.86529505E+04</totfact>
</mgrwt>
</event>
<event>
 7    1  0.3607059E-009  0.9414716E+02  0.7818608E-02  0.1293109E+00
         -1   -1    0    0    0  501 -0.00000000000E+00  0.00000000000E+00  0.62241532324E+02  0.62241532528E+02  0.50400000000E-02 0.  1.
          1   -1    0    0  501    0  0.00000000000E+00 -0.00000000000E+00 -0.35601982036E+02  0.35601982392E+02  0.50400000000E-02 0. -1.
         23    2    1    2    0    0 -0.17763568394E-14  0.00000000000E+00  0.26639550288E+02  0.97843514920E+02  0.94147160193E+02 0.  0.
    9000005    2    3    3    0    0  0.14338262399E+02 -0.27300618018E+02 -0.21732138250E+02  0.40478632241E+02  0.14673933434E+02 0.  0.
         22    1    3    3    0    0 -0.14338262399E+02  0.27300618018E+02  0.48371688538E+02  0.57364882679E+02  0.00000000000E+00 0.  1.
         22    1    4    4    0    0 -0.22324832467E+01 -0.53969147147E-01 -0.18366883095E+01  0.28914214605E+01  0.00000000000E+00 0.  1.
         22    1    4    4    0    0  0.16570745646E+02 -0.27246648871E+02 -0.19895449940E+02  0.37587210781E+02  0.00000000000E+00 0.  1.
<mgrwt>
<rscale>  0 0.94147160E+02</rscale>
<asrwt>0</asrwt>
<pdfrwt beam="2">  1        1 0.54772281E-02 0.94147160E+02</pdfrwt>
<pdfrwt beam="1">  1       -1 0.95756204E-02 0.94147160E+02</pdfrwt>
<totfact> 0.81274207E+04</totfact>
</mgrwt>
</event>
<event>
 7    1  0.3607059E-009  0.9167688E+02  0.7818608E-02  0.1298841E+00
          1   -1    0    0  501    0  0.00000000000E+00  0.00000000000E+00  0.29718026259E+03  0.29718026263E+03  0.50400000000E-02 0. -1.
         -1   -1    0    0    0  501 -0.00000000000E+00 -0.00000000000E+00 -0.70703295715E+01  0.70703313679E+01  0.50400000000E-02 0.  1.
         23    2    1    2    0    0  0.00000000000E+00 -0.71054273576E-14  0.29010993302E+03  0.30425059400E+03  0.91676882112E+02 0.  0.
    9000005    2    3    3    0    0  0.30012152645E+02  0.31399016070E+02  0.99111000770E+02  0.10837507323E+03  0.59614182686E+01 0.  0.
         22    1    3    3    0    0 -0.30012152645E+02 -0.31399016070E+02  0.19099893225E+03  0.19587552077E+03  0.00000000000E+00 0.  1.
         22    1    4    4    0    0  0.23067435254E+02  0.20459402624E+02  0.67341326144E+02  0.74064484956E+02  0.00000000000E+00 0.  1.
         22    1    4    4    0    0  0.69447173903E+01  0.10939613446E+02  0.31769674626E+02  0.34310588276E+02  0.00000000000E+00 0.  1.
<mgrwt>
<rscale>  0 0.91676882E+02</rscale>
<asrwt>0</asrwt>
<pdfrwt beam="1">  1        1 0.45720052E-01 0.91676882E+02</pdfrwt>
<pdfrwt beam="2">  1       -1 0.10877429E-02 0.91676882E+02</pdfrwt>
<totfact> 0.12603895E+05</totfact>
</mgrwt>
</event>
<event>
 7    1  0.3607059E-009  0.8794021E+02  0.7818608E-02  0.1307918E+00
         -1   -1    0    0    0  501 -0.00000000000E+00  0.00000000000E+00  0.13569778150E+01  0.13569871746E+01  0.50400000000E-02 0.  1.
          1   -1    0    0  501    0  0.00000000000E+00 -0.00000000000E+00 -0.14247569067E+04  0.14247569067E+04  0.50400000000E-02 0. -1.
         23    2    1    2    0    0  0.17763568394E-14 -0.17763568394E-14 -0.14233999288E+04  0.14261138938E+04  0.87940211379E+02 0.  0.
    9000005    2    3    3    0    0  0.83956148518E+01  0.10731976856E+02 -0.13883993481E+04  0.13885545764E+04  0.15665251288E+02 0.  0.
         22    1    3    3    0    0 -0.83956148518E+01 -0.10731976856E+02 -0.35000580732E+02  0.37559317453E+02  0.00000000000E+00 0.  1.
         22    1    4    4    0    0 -0.25539117764E+01  0.93543142912E+01 -0.61257298022E+03  0.61264972191E+03  0.00000000000E+00 0.  1.
         22    1    4    4    0    0  0.10949526628E+02  0.13776625644E+01 -0.77582636790E+03  0.77590485448E+03  0.00000000000E+00 0.  1.
<mgrwt>
<rscale>  0 0.87940211E+02</rscale>
<asrwt>0</asrwt>
<pdfrwt beam="2">  1        1 0.21919217E+00 0.87940211E+02</pdfrwt>
<pdfrwt beam="1">  1       -1 0.20876768E-03 0.87940211E+02</pdfrwt>
<totfact> 0.12651851E+05</totfact>
</mgrwt>
</event>
<event>
 7    1  0.3607059E-009  0.9225292E+02  0.7818608E-02  0.1297486E+00
          1   -1    0    0  501    0  0.00000000000E+00  0.00000000000E+00  0.29442757408E+02  0.29442757839E+02  0.50400000000E-02 0. -1.
         -1   -1    0    0    0  501 -0.00000000000E+00 -0.00000000000E+00 -0.72263968860E+02  0.72263969035E+02  0.50400000000E-02 0.  1.
         23    2    1    2    0    0  0.88817841970E-15  0.00000000000E+00 -0.42821211452E+02  0.10170672687E+03  0.92252924839E+02 0.  0.
    9000005    2    3    3    0    0  0.45122228105E+01 -0.40993962719E+02 -0.42714728094E+02  0.60465043194E+02  0.11428399635E+02 0.  0.
         22    1    3    3    0    0 -0.45122228105E+01  0.40993962719E+02 -0.10648335739E+00  0.41241683680E+02  0.00000000000E+00 0.  1.
         22    1    4    4    0    0 -0.17287189842E+01 -0.13474776868E+02 -0.20307309265E+02  0.24432455680E+02  0.00000000000E+00 0.  1.
         22    1    4    4    0    0  0.62409417946E+01 -0.27519185851E+02 -0.22407418829E+02  0.36032587514E+02  0.00000000000E+00 0.  1.
<mgrwt>
<rscale>  0 0.92252925E+02</rscale>
<asrwt>0</asrwt>
<pdfrwt beam="1">  1        1 0.45296551E-02 0.92252925E+02</pdfrwt>
<pdfrwt beam="2">  1       -1 0.11117534E-01 0.92252925E+02</pdfrwt>
<totfact> 0.83550252E+04</totfact>
</mgrwt>
</event>
<event>
 7    1  0.3607059E-009  0.9081055E+02  0.7818608E-02  0.1300901E+00
          1   -1    0    0  501    0  0.00000000000E+00  0.00000000000E+00  0.21671351557E+03  0.21671351563E+03  0.50400000000E-02 0. -1.
         -1   -1    0    0    0  501 -0.00000000000E+00 -0.00000000000E+00 -0.95132001435E+01  0.95132014786E+01  0.50400000000E-02 0.  1.
         23    2    1    2    0    0 -0.17763568394E-14  0.00000000000E+00  0.20720031543E+03  0.22622671711E+03  0.90810554564E+02 0.  0.
    9000005    2    3    3    0    0  0.11838772840E+02 -0.15407650873E+01  0.21249876074E+03  0.21316516964E+03  0.11880056027E+02 0.  0.
         22    1    3    3    0    0 -0.11838772840E+02  0.15407650873E+01 -0.52984453176E+01  0.13061547465E+02  0.00000000000E+00 0.  1.
         22    1    4    4    0    0 -0.37145756212E+00 -0.14104562227E+01  0.32717991080E+01  0.35821832560E+01  0.00000000000E+00 0.  1.
         22    1    4    4    0    0  0.12210230402E+02 -0.13030886456E+00  0.20922696164E+03  0.20958298639E+03  0.00000000000E+00 0.  1.
<mgrwt>
<rscale>  0 0.90810555E+02</rscale>
<asrwt>0</asrwt>
<pdfrwt beam="1">  1        1 0.33340538E-01 0.90810555E+02</pdfrwt>
<pdfrwt beam="2">  1       -1 0.14635695E-02 0.90810555E+02</pdfrwt>
<totfact> 0.12157260E+05</totfact>
</mgrwt>
</event>
<event>
 7    1  0.3607059E-009  0.9211067E+02  0.7818608E-02  0.1297819E+00
         -1   -1    0    0    0  501 -0.00000000000E+00  0.00000000000E+00  0.99840725294E+02  0.99840725421E+02  0.50400000000E-02 0.  1.
          1   -1    0    0  501    0  0.00000000000E+00 -0.00000000000E+00 -0.21244776696E+02  0.21244777294E+02  0.50400000000E-02 0. -1.
         23    2    1    2    0    0  0.22204460493E-15  0.35527136788E-14  0.78595948598E+02  0.12108550272E+03  0.92110671649E+02 0.  0.
    9000005    2    3    3    0    0  0.12508995664E+01  0.17712039160E+02  0.94894542280E+02  0.96983112026E+02  0.92449328228E+01 0.  0.
         22    1    3    3    0    0 -0.12508995664E+01 -0.17712039160E+02 -0.16298593681E+02  0.24102390689E+02  0.00000000000E+00 0. -1.
         22    1    4    4    0    0  0.34780711466E+01  0.17121779758E+02  0.87877651960E+02  0.89597622931E+02  0.00000000000E+00 0. -1.
         22    1    4    4    0    0 -0.22271715802E+01  0.59025940193E+00  0.70168903197E+01  0.73854890947E+01  0.00000000000E+00 0. -1.
<mgrwt>
<rscale>  0 0.92110672E+02</rscale>
<asrwt>0</asrwt>
<pdfrwt beam="2">  1        1 0.32684273E-02 0.92110672E+02</pdfrwt>
<pdfrwt beam="1">  1       -1 0.15360111E-01 0.92110672E+02</pdfrwt>
<totfact> 0.79284259E+04</totfact>
</mgrwt>
</event>
<event>
 7    1  0.3607059E-009  0.8678306E+02  0.7818608E-02  0.1310834E+00
          1   -1    0    0  501    0  0.00000000000E+00  0.00000000000E+00  0.26237966213E+03  0.26237966218E+03  0.50400000000E-02 0. -1.
         -1   -1    0    0    0  501 -0.00000000000E+00 -0.00000000000E+00 -0.71759547297E+01  0.71759564996E+01  0.50400000000E-02 0.  1.
         23    2    1    2    0    0  0.00000000000E+00  0.00000000000E+00  0.25520370741E+03  0.26955561868E+03  0.86783058774E+02 0.  0.
    9000005    2    3    3    0    0  0.33812599390E+01  0.40902674588E+02  0.17009874842E+03  0.17507114509E+03  0.56444592171E+01 0.  0.
         22    1    3    3    0    0 -0.33812599390E+01 -0.40902674588E+02  0.85104958981E+02  0.94484473594E+02  0.00000000000E+00 0.  1.
         22    1    4    4    0    0  0.51391179520E+00  0.21367779151E+02  0.99056182725E+02  0.10133594341E+03  0.00000000000E+00 0.  1.
         22    1    4    4    0    0  0.28673481438E+01  0.19534895437E+02  0.71042565699E+02  0.73735201677E+02  0.00000000000E+00 0.  1.
<mgrwt>
<rscale>  0 0.86783059E+02</rscale>
<asrwt>0</asrwt>
<pdfrwt beam="1">  1        1 0.40366099E-01 0.86783059E+02</pdfrwt>
<pdfrwt beam="2">  1       -1 0.11039932E-02 0.86783059E+02</pdfrwt>
<totfact> 0.14237774E+05</totfact>
</mgrwt>
</event>
<event>
 7    1  0.3607059E-009  0.1005834E+03  0.7818608E-02  0.1279074E+00
          1   -1    0    0  501    0  0.00000000000E+00  0.00000000000E+00  0.45458891461E+02  0.45458891740E+02  0.50400000000E-02 0. -1.
         -1   -1    0    0    0  501 -0.00000000000E+00 -0.00000000000E+00 -0.55638304861E+02  0.55638305090E+02  0.50400000000E-02 0.  1.
         23    2    1    2    0    0  0.53429483060E-15  0.00000000000E+00 -0.10179413401E+02  0.10109719683E+03  0.10058341190E+03 0.  0.
    9000005    2    3    3    0    0 -0.29084696645E-01  0.28670637046E+02 -0.45432643914E+02  0.55657164522E+02  0.14546083840E+02 0.  0.
         22    1    3    3    0    0  0.29084696645E-01 -0.28670637046E+02  0.35253230513E+02  0.45440032308E+02  0.00000000000E+00 0. -1.
         22    1    4    4    0    0  0.65770139074E+01  0.16530323104E+02 -0.20445054714E+02  0.27101825698E+02  0.00000000000E+00 0.  1.
         22    1    4    4    0    0 -0.66060986040E+01  0.12140313942E+02 -0.24987589199E+02  0.28555338824E+02  0.00000000000E+00 0.  1.
<mgrwt>
<rscale>  0 0.10058341E+03</rscale>
<asrwt>0</asrwt>
<pdfrwt beam="1">  1        1 0.69936757E-02 0.10058341E+03</pdfrwt>
<pdfrwt beam="2">  1       -1 0.85597392E-02 0.10058341E+03</pdfrwt>
<totfact> 0.69992091E+04</totfact>
</mgrwt>
</event>
<event>
 7    1  0.3607059E-009  0.9786484E+02  0.7818608E-02  0.1284851E+00
         -1   -1    0    0    0  501 -0.00000000000E+00  0.00000000000E+00  0.10182912680E+03  0.10182912693E+03  0.50400000000E-02 0.  1.
          1   -1    0    0  501    0  0.00000000000E+00 -0.00000000000E+00 -0.23513720794E+02  0.23513721335E+02  0.50400000000E-02 0. -1.
         23    2    1    2    0    0  0.00000000000E+00  0.00000000000E+00  0.78315406010E+02  0.12534284826E+03  0.97864839408E+02 0.  0.
    9000005    2    3    3    0    0  0.28704886988E+02  0.16089024571E+02 -0.44555439738E+01  0.36270644912E+02  0.14590427053E+02 0.  0.
         22    1    3    3    0    0 -0.28704886988E+02 -0.16089024571E+02  0.82770949984E+02  0.89072203351E+02  0.00000000000E+00 0.  1.
         22    1    4    4    0    0  0.11038912263E+02  0.40404865424E+01  0.51438632894E+01  0.12831307220E+02  0.00000000000E+00 0.  1.
         22    1    4    4    0    0  0.17665974726E+02  0.12048538028E+02 -0.95994072633E+01  0.23439337692E+02  0.00000000000E+00 0.  1.
<mgrwt>
<rscale>  0 0.97864839E+02</rscale>
<asrwt>0</asrwt>
<pdfrwt beam="2">  1        1 0.36174956E-02 0.97864839E+02</pdfrwt>
<pdfrwt beam="1">  1       -1 0.15666019E-01 0.97864839E+02</pdfrwt>
<totfact> 0.67554036E+04</totfact>
</mgrwt>
</event>
<event>
 7    1  0.3607059E-009  0.9131840E+02  0.7818608E-02  0.1299690E+00
          1   -1    0    0  501    0  0.00000000000E+00  0.00000000000E+00  0.26308707276E+03  0.26308707281E+03  0.50400000000E-02 0. -1.
         -1   -1    0    0    0  501 -0.00000000000E+00 -0.00000000000E+00 -0.79242286635E+01  0.79242302662E+01  0.50400000000E-02 0.  1.
         23    2    1    2    0    0 -0.35527136788E-14  0.00000000000E+00  0.25516284410E+03  0.27101130308E+03  0.91318395664E+02 0.  0.
    9000005    2    3    3    0    0  0.26744718074E+02 -0.36275163102E+02  0.13323249101E+03  0.14101830939E+03  0.10202917228E+02 0.  0.
         22    1    3    3    0    0 -0.26744718074E+02  0.36275163102E+02  0.12193035309E+03  0.12999299368E+03  0.00000000000E+00 0. -1.
         22    1    4    4    0    0  0.60726023463E+01 -0.11050959648E+02  0.51458536162E+02  0.52980950844E+02  0.00000000000E+00 0.  1.
         22    1    4    4    0    0  0.20672115727E+02 -0.25224203454E+02  0.81773954850E+02  0.88037358549E+02  0.00000000000E+00 0.  1.
<mgrwt>
<rscale>  0 0.91318396E+02</rscale>
<asrwt>0</asrwt>
<pdfrwt beam="1">  1        1 0.40474937E-01 0.91318396E+02</pdfrwt>
<pdfrwt beam="2">  1       -1 0.12191121E-02 0.91318396E+02</pdfrwt>
<totfact> 0.12439138E+05</totfact>
</mgrwt>
</event>
<event>
 7    1  0.4755995E-009  0.9346879E+02  0.7818608E-02  0.1294662E+00
          1   -1    0    0  501    0  0.00000000000E+00  0.00000000000E+00  0.13476406001E+04  0.13476406001E+04  0.50400000000E-02 0. -1.
         -1   -1    0    0    0  501 -0.00000000000E+00 -0.00000000000E+00 -0.16206831730E+01  0.16206910097E+01  0.50400000000E-02 0.  1.
         23    2    1    2    0    0 -0.17763568394E-14  0.35527136788E-14  0.13460199170E+04  0.13492612912E+04  0.93468791307E+02 0.  0.
    9000005    2    3    3    0    0 -0.13289340715E+02 -0.24924782986E+02  0.12063572394E+04  0.12067708884E+04  0.14154030051E+02 0.  0.
         22    1    3    3    0    0  0.13289340715E+02  0.24924782986E+02  0.13966267758E+03  0.14249040281E+03  0.00000000000E+00 0.  1.
         22    1    4    4    0    0 -0.14740146814E+02 -0.25779430047E+02  0.11018960669E+04  0.11022961458E+04  0.00000000000E+00 0. -1.
         22    1    4    4    0    0  0.14508060991E+01  0.85464706049E+00  0.10446117253E+03  0.10447474252E+03  0.00000000000E+00 0. -1.
<mgrwt>
<rscale>  0 0.93468791E+02</rscale>
<asrwt>0</asrwt>
<pdfrwt beam="1">  1        1 0.20732952E+00 0.93468791E+02</pdfrwt>
<pdfrwt beam="2">  1       -1 0.24933625E-03 0.93468791E+02</pdfrwt>
<totfact> 0.11182617E+05</totfact>
</mgrwt>
</event>
<event>
 7    1  0.3607059E-009  0.9356015E+02  0.7818608E-02  0.1294452E+00
         -1   -1    0    0    0  501 -0.00000000000E+00  0.00000000000E+00  0.27809620793E+03  0.27809620797E+03  0.50400000000E-02 0.  1.
          1   -1    0    0  501    0  0.00000000000E+00 -0.00000000000E+00 -0.78691306836E+01  0.78691322976E+01  0.50400000000E-02 0. -1.
         23    2    1    2    0    0  0.00000000000E+00  0.00000000000E+00  0.27022707724E+03  0.28596534027E+03  0.93560154769E+02 0.  0.
    9000005    2    3    3    0    0 -0.45108977982E+02 -0.50099705184E+01  0.14843559890E+03  0.15599194339E+03  0.15506117599E+02 0.  0.
         22    1    3    3    0    0  0.45108977982E+02  0.50099705184E+01  0.12179147835E+03  0.12997339688E+03  0.00000000000E+00 0. -1.
         22    1    4    4    0    0  0.54284139879E-01  0.22170279674E+01  0.63416988517E+01  0.67182813354E+01  0.00000000000E+00 0.  1.
         22    1    4    4    0    0 -0.45163262122E+02 -0.72269984858E+01  0.14209390005E+03  0.14927366205E+03  0.00000000000E+00 0.  1.
<mgrwt>
<rscale>  0 0.93560155E+02</rscale>
<asrwt>0</asrwt>
<pdfrwt beam="2">  1        1 0.12106357E-02 0.93560155E+02</pdfrwt>
<pdfrwt beam="1">  1       -1 0.42784029E-01 0.93560155E+02</pdfrwt>
<totfact> 0.58292191E+04</totfact>
</mgrwt>
</event>
<event>
 7    1  0.3607059E-009  0.9146879E+02  0.7818608E-02  0.1299333E+00
          1   -1    0    0  501    0  0.00000000000E+00  0.00000000000E+00  0.30243610880E+03  0.30243610884E+03  0.50400000000E-02 0. -1.
         -1   -1    0    0    0  501 -0.00000000000E+00 -0.00000000000E+00 -0.69159557370E+01  0.69159575735E+01  0.50400000000E-02 0.  1.
         23    2    1    2    0    0  0.00000000000E+00  0.00000000000E+00  0.29552015306E+03  0.30935206642E+03  0.91468793198E+02 0.  0.
    9000005    2    3    3    0    0  0.28922936124E+02 -0.26922040076E+02  0.22294105572E+03  0.22671395265E+03  0.11626242901E+02 0.  0.
         22    1    3    3    0    0 -0.28922936124E+02  0.26922040076E+02  0.72579097344E+02  0.82638113768E+02  0.00000000000E+00 0.  1.
         22    1    4    4    0    0  0.67880786428E+01 -0.12646611903E+02  0.96211696903E+02  0.97276438181E+02  0.00000000000E+00 0.  1.
         22    1    4    4    0    0  0.22134857481E+02 -0.14275428173E+02  0.12672935882E+03  0.12943751447E+03  0.00000000000E+00 0.  1.
<mgrwt>
<rscale>  0 0.91468793E+02</rscale>
<asrwt>0</asrwt>
<pdfrwt beam="1">  1        1 0.46528629E-01 0.91468793E+02</pdfrwt>
<pdfrwt beam="2">  1       -1 0.10639934E-02 0.91468793E+02</pdfrwt>
<totfact> 0.12723016E+05</totfact>
</mgrwt>
</event>
<event>
 7    1  0.3607059E-009  0.7195204E+02  0.7818608E-02  0.1353578E+00
          1   -1    0    0  501    0  0.00000000000E+00  0.00000000000E+00  0.51634018047E+03  0.51634018050E+03  0.50400000000E-02 0. -1.
         -1   -1    0    0    0  501 -0.00000000000E+00 -0.00000000000E+00 -0.25066277062E+01  0.25066327731E+01  0.50400000000E-02 0.  1.
         23    2    1    2    0    0  0.00000000000E+00  0.00000000000E+00  0.51383355276E+03  0.51884681327E+03  0.71952037443E+02 0.  0.
    9000005    2    3    3    0    0  0.74111003931E+00  0.27789076649E+02  0.41991988919E+03  0.42090520704E+03  0.74631058493E+01 0.  0.
         22    1    3    3    0    0 -0.74111003931E+00 -0.27789076649E+02  0.93913663571E+02  0.97941606227E+02  0.00000000000E+00 0.  1.
         22    1    4    4    0    0  0.30494482885E+00  0.19269782949E+02  0.23511418354E+03  0.23590272747E+03  0.00000000000E+00 0.  1.
         22    1    4    4    0    0  0.43616521046E+00  0.85192936994E+01  0.18480570565E+03  0.18500247957E+03  0.00000000000E+00 0.  1.
<mgrwt>
<rscale>  0 0.71952037E+02</rscale>
<asrwt>0</asrwt>
<pdfrwt beam="1">  1        1 0.79436924E-01 0.71952037E+02</pdfrwt>
<pdfrwt beam="2">  1       -1 0.38563556E-03 0.71952037E+02</pdfrwt>
<totfact> 0.25980709E+05</totfact>
</mgrwt>
</event>
<event>
 7    1  0.3607059E-009  0.8823715E+02  0.7818608E-02  0.1307178E+00
         -1   -1    0    0    0  501 -0.00000000000E+00  0.00000000000E+00  0.10159089880E+04  0.10159089880E+04  0.50400000000E-02 0.  1.
          1   -1    0    0  501    0  0.00000000000E+00 -0.00000000000E+00 -0.19159642065E+01  0.19159708354E+01  0.50400000000E-02 0. -1.
         23    2    1    2    0    0  0.00000000000E+00 -0.35527136788E-14  0.10139930238E+04  0.10178249588E+04  0.88237149499E+02 0.  0.
    9000005    2    3    3    0    0 -0.14480085459E+02 -0.31992627203E+02  0.80778415193E+03  0.80864728340E+03  0.12727598822E+02 0.  0.
         22    1    3    3    0    0  0.14480085459E+02  0.31992627203E+02  0.20620887186E+03  0.20917767545E+03  0.00000000000E+00 0. -1.
         22    1    4    4    0    0 -0.12529419650E+02 -0.32843939150E+02  0.77196868164E+03  0.77276863039E+03  0.00000000000E+00 0.  1.
         22    1    4    4    0    0 -0.19506658085E+01  0.85131194639E+00  0.35815470290E+02  0.35878653001E+02  0.00000000000E+00 0.  1.
<mgrwt>
<rscale>  0 0.88237149E+02</rscale>
<asrwt>0</asrwt>
<pdfrwt beam="2">  1        1 0.29476355E-03 0.88237149E+02</pdfrwt>
<pdfrwt beam="1">  1       -1 0.15629406E+00 0.88237149E+02</pdfrwt>
<totfact> 0.27419530E+04</totfact>
</mgrwt>
</event>
<event>
 7    1  0.3736282E-009  0.9557852E+02  0.7818608E-02  0.1289878E+00
          1   -1    0    0  501    0  0.00000000000E+00  0.00000000000E+00  0.15893433329E+03  0.15893433337E+03  0.50400000000E-02 0. -1.
         -1   -1    0    0    0  501 -0.00000000000E+00 -0.00000000000E+00 -0.14369541498E+02  0.14369542382E+02  0.50400000000E-02 0.  1.
         23    2    1    2    0    0  0.00000000000E+00  0.00000000000E+00  0.14456479179E+03  0.17330387575E+03  0.95578524391E+02 0.  0.
    9000005    2    3    3    0    0  0.21950472423E+02  0.26037649096E+02  0.16225471095E+02  0.40522989903E+02  0.14800823908E+02 0.  0.
         22    1    3    3    0    0 -0.21950472423E+02 -0.26037649096E+02  0.12833932069E+03  0.13278088585E+03  0.00000000000E+00 0. -1.
         22    1    4    4    0    0  0.22785761183E+02  0.24547372608E+02  0.18030519996E+02  0.38037666411E+02  0.00000000000E+00 0.  1.
         22    1    4    4    0    0 -0.83528875981E+00  0.14902764872E+01 -0.18050489014E+01  0.24853234915E+01  0.00000000000E+00 0.  1.
<mgrwt>
<rscale>  0 0.95578524E+02</rscale>
<asrwt>0</asrwt>
<pdfrwt beam="1">  1        1 0.24451436E-01 0.95578524E+02</pdfrwt>
<pdfrwt beam="2">  1       -1 0.22106987E-02 0.95578524E+02</pdfrwt>
<totfact> 0.99774291E+04</totfact>
</mgrwt>
</event>
<event>
 7    1  0.3607059E-009  0.9061528E+02  0.7818608E-02  0.1301369E+00
          1   -1    0    0  501    0  0.00000000000E+00  0.00000000000E+00  0.33991217164E+03  0.33991217167E+03  0.50400000000E-02 0. -1.
         -1   -1    0    0    0  501 -0.00000000000E+00 -0.00000000000E+00 -0.60391537005E+01  0.60391558036E+01  0.50400000000E-02 0.  1.
         23    2    1    2    0    0  0.00000000000E+00  0.00000000000E+00  0.33387301794E+03  0.34595132748E+03  0.90615279493E+02 0.  0.
    9000005    2    3    3    0    0  0.21152067077E+02  0.72730268496E+01  0.31645808907E+03  0.31760372425E+03  0.15036510860E+02 0.  0.
         22    1    3    3    0    0 -0.21152067077E+02 -0.72730268496E+01  0.17414928861E+02  0.28347603222E+02  0.00000000000E+00 0.  1.
         22    1    4    4    0    0  0.10908333239E+02  0.98454975846E+01  0.12618213818E+03  0.12703486747E+03  0.00000000000E+00 0. -1.
         22    1    4    4    0    0  0.10243733838E+02 -0.25724707350E+01  0.19027595089E+03  0.19056885678E+03  0.00000000000E+00 0. -1.
<mgrwt>
<rscale>  0 0.90615279E+02</rscale>
<asrwt>0</asrwt>
<pdfrwt beam="1">  1        1 0.52294194E-01 0.90615279E+02</pdfrwt>
<pdfrwt beam="2">  1       -1 0.92910050E-03 0.90615279E+02</pdfrwt>
<totfact> 0.13331200E+05</totfact>
</mgrwt>
</event>
<event>
 7    1  0.3607059E-009  0.8973869E+02  0.7818608E-02  0.1303486E+00
         -1   -1    0    0    0  501 -0.00000000000E+00  0.00000000000E+00  0.16362791735E+01  0.16362869355E+01  0.50400000000E-02 0.  1.
          1   -1    0    0  501    0  0.00000000000E+00 -0.00000000000E+00 -0.12303848909E+04  0.12303848909E+04  0.50400000000E-02 0. -1.
         23    2    1    2    0    0 -0.35527136788E-14  0.00000000000E+00 -0.12287486117E+04  0.12320211778E+04  0.89738686422E+02 0.  0.
    9000005    2    3    3    0    0 -0.21187153731E+02 -0.13435809606E+01 -0.11550062283E+04  0.11552837045E+04  0.13796735728E+02 0.  0.
         22    1    3    3    0    0  0.21187153731E+02  0.13435809606E+01 -0.73742383450E+02  0.76737473309E+02  0.00000000000E+00 0.  1.
         22    1    4    4    0    0  0.10965876907E+01 -0.13006269272E+01 -0.24051886473E+03  0.24052488110E+03  0.00000000000E+00 0. -1.
         22    1    4    4    0    0 -0.22283741422E+02 -0.42954033364E-01 -0.91448736352E+03  0.91475882342E+03  0.00000000000E+00 0. -1.
<mgrwt>
<rscale>  0 0.89738686E+02</rscale>
<asrwt>0</asrwt>
<pdfrwt beam="2">  1        1 0.18928924E+00 0.89738686E+02</pdfrwt>
<pdfrwt beam="1">  1       -1 0.25173684E-03 0.89738686E+02</pdfrwt>
<totfact> 0.13116041E+05</totfact>
</mgrwt>
</event>
<event>
 7    1  0.3607059E-009  0.9332995E+02  0.7818608E-02  0.1294982E+00
         -1   -1    0    0    0  501 -0.00000000000E+00  0.00000000000E+00  0.12261025674E+03  0.12261025685E+03  0.50400000000E-02 0.  1.
          1   -1    0    0  501    0  0.00000000000E+00 -0.00000000000E+00 -0.17760502383E+02  0.17760503098E+02  0.50400000000E-02 0. -1.
         23    2    1    2    0    0  0.00000000000E+00  0.71054273576E-14  0.10484975436E+03  0.14037075995E+03  0.93329948346E+02 0.  0.
    9000005    2    3    3    0    0 -0.68167075338E+01 -0.37387728253E+02  0.16346079831E+02  0.44052484781E+02  0.15136623270E+02 0.  0.
         22    1    3    3    0    0  0.68167075338E+01  0.37387728253E+02  0.88503674530E+02  0.96318275165E+02  0.00000000000E+00 0.  1.
         22    1    4    4    0    0  0.99164466977E+00 -0.18295536048E+02  0.10125301367E+01  0.18350346474E+02  0.00000000000E+00 0. -1.
         22    1    4    4    0    0 -0.78083522035E+01 -0.19092192205E+02  0.15333549694E+02  0.25702138307E+02  0.00000000000E+00 0. -1.
<mgrwt>
<rscale>  0 0.93329948E+02</rscale>
<asrwt>0</asrwt>
<pdfrwt beam="2">  1        1 0.27323851E-02 0.93329948E+02</pdfrwt>
<pdfrwt beam="1">  1       -1 0.18863116E-01 0.93329948E+02</pdfrwt>
<totfact> 0.73597588E+04</totfact>
</mgrwt>
</event>
<event>
 7    1  0.3607059E-009  0.8620027E+02  0.7818608E-02  0.1312323E+00
          1   -1    0    0  501    0  0.00000000000E+00  0.00000000000E+00  0.25818702636E+03  0.25818702641E+03  0.50400000000E-02 0. -1.
         -1   -1    0    0    0  501 -0.00000000000E+00 -0.00000000000E+00 -0.71948673610E+01  0.71948691263E+01  0.50400000000E-02 0.  1.
         23    2    1    2    0    0 -0.35527136788E-14  0.00000000000E+00  0.25099215900E+03  0.26538189554E+03  0.86200270296E+02 0.  0.
    9000005    2    3    3    0    0  0.30698639156E+02 -0.17333777432E+02  0.52961274839E+02  0.64237426640E+02  0.88704037499E+01 0.  0.
         22    1    3    3    0    0 -0.30698639156E+02  0.17333777432E+02  0.19803088416E+03  0.20114446890E+03  0.00000000000E+00 0.  1.
         22    1    4    4    0    0  0.98128448484E+01 -0.42769757751E+01  0.23590132173E+02  0.25905188317E+02  0.00000000000E+00 0. -1.
         22    1    4    4    0    0  0.20885794307E+02 -0.13056801657E+02  0.29371142667E+02  0.38332238324E+02  0.00000000000E+00 0. -1.
<mgrwt>
<rscale>  0 0.86200270E+02</rscale>
<asrwt>0</asrwt>
<pdfrwt beam="1">  1        1 0.39721081E-01 0.86200270E+02</pdfrwt>
<pdfrwt beam="2">  1       -1 0.11069028E-02 0.86200270E+02</pdfrwt>
<totfact> 0.14449479E+05</totfact>
</mgrwt>
</event>
<event>
 7    1  0.3607059E-009  0.9638386E+02  0.7818608E-02  0.1288089E+00
          1   -1    0    0  501    0  0.00000000000E+00  0.00000000000E+00  0.40970567054E+02  0.40970567364E+02  0.50400000000E-02 0. -1.
         -1   -1    0    0    0  501 -0.00000000000E+00 -0.00000000000E+00 -0.56686108130E+02  0.56686108354E+02  0.50400000000E-02 0.  1.
         23    2    1    2    0    0  0.00000000000E+00  0.00000000000E+00 -0.15715541076E+02  0.97656675718E+02  0.96383857990E+02 0.  0.
    9000005    2    3    3    0    0  0.64218970761E+01 -0.34946372882E+02  0.25044435412E+02  0.43583896772E+02  0.31372875429E+01 0.  0.
         22    1    3    3    0    0 -0.64218970761E+01  0.34946372882E+02 -0.40759976487E+02  0.54072778945E+02  0.00000000000E+00 0.  1.
         22    1    4    4    0    0  0.12222008673E+00 -0.66077355198E+01  0.39569317685E+01  0.77028835815E+01  0.00000000000E+00 0. -1.
         22    1    4    4    0    0  0.62996769894E+01 -0.28338637362E+02  0.21087503643E+02  0.35881013191E+02  0.00000000000E+00 0. -1.
<mgrwt>
<rscale>  0 0.96383858E+02</rscale>
<asrwt>0</asrwt>
<pdfrwt beam="1">  1        1 0.63031642E-02 0.96383858E+02</pdfrwt>
<pdfrwt beam="2">  1       -1 0.87209398E-02 0.96383858E+02</pdfrwt>
<totfact> 0.77728484E+04</totfact>
</mgrwt>
</event>
<event>
 7    1  0.3607059E-009  0.8982605E+02  0.7818608E-02  0.1303273E+00
          1   -1    0    0  501    0  0.00000000000E+00  0.00000000000E+00  0.20643484572E+03  0.20643484578E+03  0.50400000000E-02 0. -1.
         -1   -1    0    0    0  501 -0.00000000000E+00 -0.00000000000E+00 -0.97715081013E+01  0.97715094010E+01  0.50400000000E-02 0.  1.
         23    2    1    2    0    0  0.00000000000E+00 -0.71054273576E-14  0.19666333761E+03  0.21620635518E+03  0.89826052222E+02 0.  0.
    9000005    2    3    3    0    0 -0.74779297796E+01 -0.32125126196E+02  0.25612931894E+02  0.42004792430E+02  0.45207455092E+01 0.  0.
         22    1    3    3    0    0  0.74779297796E+01  0.32125126196E+02  0.17105040572E+03  0.17420156275E+03  0.00000000000E+00 0. -1.
         22    1    4    4    0    0 -0.54041790740E+01 -0.18700041029E+02  0.17544100908E+02  0.26204811822E+02  0.00000000000E+00 0.  1.
         22    1    4    4    0    0 -0.20737507056E+01 -0.13425085167E+02  0.80688309866E+01  0.15799980608E+02  0.00000000000E+00 0.  1.
<mgrwt>
<rscale>  0 0.89826052E+02</rscale>
<asrwt>0</asrwt>
<pdfrwt beam="1">  1        1 0.31759208E-01 0.89826052E+02</pdfrwt>
<pdfrwt beam="2">  1       -1 0.15033090E-02 0.89826052E+02</pdfrwt>
<totfact> 0.12399229E+05</totfact>
</mgrwt>
</event>
<event>
 7    1  0.3607059E-009  0.9179673E+02  0.7818608E-02  0.1298558E+00
          1   -1    0    0  501    0  0.00000000000E+00  0.00000000000E+00  0.52633729732E+03  0.52633729734E+03  0.50400000000E-02 0. -1.
         -1   -1    0    0    0  501 -0.00000000000E+00 -0.00000000000E+00 -0.40024883381E+01  0.40024915113E+01  0.50400000000E-02 0.  1.
         23    2    1    2    0    0 -0.88817841970E-15  0.17763568394E-14  0.52233480898E+03  0.53033978885E+03  0.91796726353E+02 0.  0.
    9000005    2    3    3    0    0 -0.55869060293E+01  0.15423623603E+02  0.50839063762E+03  0.50880977262E+03  0.12539641588E+02 0.  0.
         22    1    3    3    0    0  0.55869060293E+01 -0.15423623603E+02  0.13944171358E+02  0.21530016230E+02  0.00000000000E+00 0.  1.
         22    1    4    4    0    0 -0.65423407256E+01  0.16478786344E+02  0.38211410026E+03  0.38252521255E+03  0.00000000000E+00 0.  1.
         22    1    4    4    0    0  0.95543469625E+00 -0.10551627418E+01  0.12627653736E+03  0.12628456007E+03  0.00000000000E+00 0.  1.
<mgrwt>
<rscale>  0 0.91796726E+02</rscale>
<asrwt>0</asrwt>
<pdfrwt beam="1">  1        1 0.80975011E-01 0.91796726E+02</pdfrwt>
<pdfrwt beam="2">  1       -1 0.61576736E-03 0.91796726E+02</pdfrwt>
<totfact> 0.13756793E+05</totfact>
</mgrwt>
</event>
<event>
 7    1  0.3607059E-009  0.9060448E+02  0.7818608E-02  0.1301394E+00
         -1   -1    0    0    0  501 -0.00000000000E+00  0.00000000000E+00  0.30352394474E+01  0.30352436319E+01  0.50400000000E-02 0.  1.
          1   -1    0    0  501    0  0.00000000000E+00 -0.00000000000E+00 -0.67615480176E+03  0.67615480178E+03  0.50400000000E-02 0. -1.
         23    2    1    2    0    0  0.35527136788E-14  0.00000000000E+00 -0.67311956231E+03  0.67919004541E+03  0.90604484530E+02 0.  0.
    9000005    2    3    3    0    0  0.22051194797E+02 -0.35913721338E+02 -0.44359128832E+03  0.44582492562E+03  0.14511466476E+02 0.  0.
         22    1    3    3    0    0 -0.22051194797E+02  0.35913721338E+02 -0.22952827399E+03  0.23336511979E+03  0.00000000000E+00 0.  1.
         22    1    4    4    0    0  0.45500194351E+01 -0.18251111976E+02 -0.14818457785E+03  0.14937360838E+03  0.00000000000E+00 0.  1.
         22    1    4    4    0    0  0.17501175362E+02 -0.17662609362E+02 -0.29540671047E+03  0.29645131725E+03  0.00000000000E+00 0.  1.
<mgrwt>
<rscale>  0 0.90604485E+02</rscale>
<asrwt>0</asrwt>
<pdfrwt beam="2">  1        1 0.10402370E+00 0.90604485E+02</pdfrwt>
<pdfrwt beam="1">  1       -1 0.46696078E-03 0.90604485E+02</pdfrwt>
<totfact> 0.14456502E+05</totfact>
</mgrwt>
</event>
<event>
 7    1  0.3607059E-009  0.8805048E+02  0.7818608E-02  0.1307643E+00
          1   -1    0    0  501    0  0.00000000000E+00  0.00000000000E+00  0.34173304014E+03  0.34173304018E+03  0.50400000000E-02 0. -1.
         -1   -1    0    0    0  501 -0.00000000000E+00 -0.00000000000E+00 -0.56717408412E+01  0.56717430805E+01  0.50400000000E-02 0.  1.
         23    2    1    2    0    0  0.00000000000E+00 -0.17763568394E-14  0.33606129930E+03  0.34740478326E+03  0.88050477250E+02 0.  0.
    9000005    2    3    3    0    0  0.39867620244E+02 -0.15381005060E+02  0.14271733759E+03  0.14939496029E+03  0.11163030596E+02 0.  0.
         22    1    3    3    0    0 -0.39867620244E+02  0.15381005060E+02  0.19334396171E+03  0.19800982297E+03  0.00000000000E+00 0. -1.
         22    1    4    4    0    0 -0.21459546778E+00 -0.14663365798E+01  0.25787686217E+01  0.29742632339E+01  0.00000000000E+00 0.  1.
         22    1    4    4    0    0  0.40082215712E+02 -0.13914668480E+02  0.14013856896E+03  0.14642069706E+03  0.00000000000E+00 0.  1.
<mgrwt>
<rscale>  0 0.88050477E+02</rscale>
<asrwt>0</asrwt>
<pdfrwt beam="1">  1        1 0.52574324E-01 0.88050477E+02</pdfrwt>
<pdfrwt beam="2">  1       -1 0.87257552E-03 0.88050477E+02</pdfrwt>
<totfact> 0.14400284E+05</totfact>
</mgrwt>
</event>
<event>
 7    1  0.3607059E-009  0.9273230E+02  0.7818608E-02  0.1296367E+00
         -1   -1    0    0    0  501 -0.00000000000E+00  0.00000000000E+00  0.12969412694E+04  0.12969412694E+04  0.50400000000E-02 0.  1.
          1   -1    0    0  501    0  0.00000000000E+00 -0.00000000000E+00 -0.16576039322E+01  0.16576115943E+01  0.50400000000E-02 0. -1.
         23    2    1    2    0    0  0.00000000000E+00  0.00000000000E+00  0.12952836655E+04  0.12985988810E+04  0.92732301370E+02 0.  0.
    9000005    2    3    3    0    0  0.29073271201E+02 -0.10051933975E+02  0.11289307221E+04  0.11294256022E+04  0.13088898292E+02 0.  0.
         22    1    3    3    0    0 -0.29073271201E+02  0.10051933975E+02  0.16635294341E+03  0.16917327879E+03  0.00000000000E+00 0. -1.
         22    1    4    4    0    0  0.10154446330E+02 -0.10344921121E+02  0.50585911710E+03  0.50606677082E+03  0.00000000000E+00 0. -1.
         22    1    4    4    0    0  0.18918824871E+02  0.29298714576E+00  0.62307160496E+03  0.62335883140E+03  0.00000000000E+00 0. -1.
<mgrwt>
<rscale>  0 0.92732301E+02</rscale>
<asrwt>0</asrwt>
<pdfrwt beam="2">  1        1 0.25501626E-03 0.92732301E+02</pdfrwt>
<pdfrwt beam="1">  1       -1 0.19952967E+00 0.92732301E+02</pdfrwt>
<totfact> 0.17047994E+04</totfact>
</mgrwt>
</event>
<event>
 7    1  0.3607059E-009  0.9239124E+02  0.7818608E-02  0.1297162E+00
         -1   -1    0    0    0  501 -0.00000000000E+00  0.00000000000E+00  0.41550998225E+02  0.41550998531E+02  0.50400000000E-02 0.  1.
          1   -1    0    0  501    0  0.00000000000E+00 -0.00000000000E+00 -0.51359428208E+02  0.51359428456E+02  0.50400000000E-02 0. -1.
         23    2    1    2    0    0  0.00000000000E+00  0.00000000000E+00 -0.98084299831E+01  0.92910426987E+02  0.92391244954E+02 0.  0.
    9000005    2    3    3    0    0 -0.91015738102E+01 -0.99900950644E+01  0.37920030296E+02  0.43305522332E+02  0.15962422171E+02 0.  0.
         22    1    3    3    0    0  0.91015738102E+01  0.99900950644E+01 -0.47728460279E+02  0.49604904655E+02  0.00000000000E+00 0. -1.
         22    1    4    4    0    0 -0.31974252469E+01  0.36503265328E-01  0.27502278426E+02  0.27687545563E+02  0.00000000000E+00 0. -1.
         22    1    4    4    0    0 -0.59041485633E+01 -0.10026598330E+02  0.10417751870E+02  0.15617976769E+02  0.00000000000E+00 0. -1.
<mgrwt>
<rscale>  0 0.92391245E+02</rscale>
<asrwt>0</asrwt>
<pdfrwt beam="2">  1        1 0.79014505E-02 0.92391245E+02</pdfrwt>
<pdfrwt beam="1">  1       -1 0.63924613E-02 0.92391245E+02</pdfrwt>
<totfact> 0.90721157E+04</totfact>
</mgrwt>
</event>
<event>
 7    1  0.3607059E-009  0.9052722E+02  0.7818608E-02  0.1301580E+00
         -1   -1    0    0    0  501 -0.00000000000E+00  0.00000000000E+00  0.29461841422E+02  0.29461841853E+02  0.50400000000E-02 0.  1.
          1   -1    0    0  501    0  0.00000000000E+00 -0.00000000000E+00 -0.69540606447E+02  0.69540606630E+02  0.50400000000E-02 0. -1.
         23    2    1    2    0    0  0.00000000000E+00  0.00000000000E+00 -0.40078765025E+02  0.99002448483E+02  0.90527219109E+02 0.  0.
    9000005    2    3    3    0    0  0.11524499694E+02  0.97409220789E+01  0.26166965960E+02  0.31059851168E+02  0.72321912924E+01 0.  0.
         22    1    3    3    0    0 -0.11524499694E+02 -0.97409220789E+01 -0.66245730985E+02  0.67942597315E+02  0.00000000000E+00 0. -1.
         22    1    4    4    0    0  0.43214023459E+01  0.10952513874E+00  0.42630384329E+01  0.60712445735E+01  0.00000000000E+00 0.  1.
         22    1    4    4    0    0  0.72030973479E+01  0.96313969402E+01  0.21903927527E+02  0.24988606595E+02  0.00000000000E+00 0.  1.
<mgrwt>
<rscale>  0 0.90527219E+02</rscale>
<asrwt>0</asrwt>
<pdfrwt beam="2">  1        1 0.10698555E-01 0.90527219E+02</pdfrwt>
<pdfrwt beam="1">  1       -1 0.45325911E-02 0.90527219E+02</pdfrwt>
<totfact> 0.10052813E+05</totfact>
</mgrwt>
</event>
<event>
 7    1  0.3607059E-009  0.8654128E+02  0.7818608E-02  0.1311450E+00
         -1   -1    0    0    0  501 -0.00000000000E+00  0.00000000000E+00  0.60167208088E+01  0.60167229197E+01  0.50400000000E-02 0.  1.
          1   -1    0    0  501    0  0.00000000000E+00 -0.00000000000E+00 -0.31119077954E+03  0.31119077958E+03  0.50400000000E-02 0. -1.
         23    2    1    2    0    0  0.00000000000E+00  0.00000000000E+00 -0.30517405873E+03  0.31720750250E+03  0.86541282174E+02 0.  0.
    9000005    2    3    3    0    0  0.38692654373E+02  0.18147883089E+02 -0.13124492824E+03  0.13810471191E+03  0.46057681925E+01 0.  0.
         22    1    3    3    0    0 -0.38692654373E+02 -0.18147883089E+02 -0.17392913049E+03  0.17910279059E+03  0.00000000000E+00 0. -1.
         22    1    4    4    0    0  0.34763045177E+02  0.16874481280E+02 -0.12213020950E+03  0.12809764049E+03  0.00000000000E+00 0.  1.
         22    1    4    4    0    0  0.39296091966E+01  0.12734018089E+01 -0.91147187439E+01  0.10007071419E+02  0.00000000000E+00 0.  1.
<mgrwt>
<rscale>  0 0.86541282E+02</rscale>
<asrwt>0</asrwt>
<pdfrwt beam="2">  1        1 0.47875492E-01 0.86541282E+02</pdfrwt>
<pdfrwt beam="1">  1       -1 0.92564976E-03 0.86541282E+02</pdfrwt>
<totfact> 0.14818290E+05</totfact>
</mgrwt>
</event>
<event>
 7    1  0.3607059E-009  0.9023637E+02  0.7818608E-02  0.1302280E+00
         -1   -1    0    0    0  501 -0.00000000000E+00  0.00000000000E+00  0.88928127417E+02  0.88928127560E+02  0.50400000000E-02 0.  1.
          1   -1    0    0  501    0  0.00000000000E+00 -0.00000000000E+00 -0.22890962736E+02  0.22890963291E+02  0.50400000000E-02 0. -1.
         23    2    1    2    0    0  0.00000000000E+00 -0.88817841970E-15  0.66037164681E+02  0.11181909085E+03  0.90236367168E+02 0.  0.
    9000005    2    3    3    0    0 -0.36500444319E+02  0.46818829901E+01  0.27151269229E+01  0.38580556392E+02  0.11264322150E+02 0.  0.
         22    1    3    3    0    0  0.36500444319E+02 -0.46818829901E+01  0.63322037758E+02  0.73238534459E+02  0.00000000000E+00 0.  1.
         22    1    4    4    0    0 -0.15992516241E+02 -0.33410883860E+01  0.26983615760E+01  0.16559124449E+02  0.00000000000E+00 0. -1.
         22    1    4    4    0    0 -0.20507928079E+02  0.80229713761E+01  0.16765346949E-01  0.22021431944E+02  0.00000000000E+00 0. -1.
<mgrwt>
<rscale>  0 0.90236367E+02</rscale>
<asrwt>0</asrwt>
<pdfrwt beam="2">  1        1 0.35216866E-02 0.90236367E+02</pdfrwt>
<pdfrwt beam="1">  1       -1 0.13681251E-01 0.90236367E+02</pdfrwt>
<totfact> 0.85358462E+04</totfact>
</mgrwt>
</event>
<event>
 7    1  0.3607059E-009  0.7737031E+02  0.7818608E-02  0.1336684E+00
         -1   -1    0    0    0  501 -0.00000000000E+00  0.00000000000E+00  0.78462649320E+02  0.78462649481E+02  0.50400000000E-02 0.  1.
          1   -1    0    0  501    0  0.00000000000E+00 -0.00000000000E+00 -0.19073293574E+02  0.19073294240E+02  0.50400000000E-02 0. -1.
         23    2    1    2    0    0 -0.88817841970E-15  0.00000000000E+00  0.59389355745E+02  0.97535943721E+02  0.77370309174E+02 0.  0.
    9000005    2    3    3    0    0 -0.78591271652E+01 -0.23394758563E+02  0.66916587811E+02  0.71734009093E+02  0.76718790557E+01 0.  0.
         22    1    3    3    0    0  0.78591271652E+01  0.23394758563E+02 -0.75272320657E+01  0.25801934629E+02  0.00000000000E+00 0. -1.
         22    1    4    4    0    0 -0.12696227197E+01 -0.62745456540E+01  0.27827805847E+02  0.28554660622E+02  0.00000000000E+00 0.  1.
         22    1    4    4    0    0 -0.65895044455E+01 -0.17120212909E+02  0.39088781964E+02  0.43179348470E+02  0.00000000000E+00 0.  1.
<mgrwt>
<rscale>  0 0.77370309E+02</rscale>
<asrwt>0</asrwt>
<pdfrwt beam="2">  1        1 0.29343529E-02 0.77370309E+02</pdfrwt>
<pdfrwt beam="1">  1       -1 0.12071177E-01 0.77370309E+02</pdfrwt>
<totfact> 0.12912260E+05</totfact>
</mgrwt>
</event>
<event>
 7    1  0.3607059E-009  0.9310194E+02  0.7818608E-02  0.1295509E+00
         -1   -1    0    0    0  501 -0.00000000000E+00  0.00000000000E+00  0.58997251746E+01  0.58997273274E+01  0.50400000000E-02 0.  1.
          1   -1    0    0  501    0  0.00000000000E+00 -0.00000000000E+00 -0.36730396014E+03  0.36730396018E+03  0.50400000000E-02 0. -1.
         23    2    1    2    0    0 -0.71054273576E-14  0.00000000000E+00 -0.36140423497E+03  0.37320368751E+03  0.93101940443E+02 0.  0.
    9000005    2    3    3    0    0 -0.37289375523E+02 -0.52637668421E+01 -0.28619639570E+03  0.28909409319E+03  0.15773808596E+02 0.  0.
         22    1    3    3    0    0  0.37289375523E+02  0.52637668421E+01 -0.75207839266E+02  0.84109594312E+02  0.00000000000E+00 0.  1.
         22    1    4    4    0    0 -0.39882917049E+01 -0.56692659773E+01 -0.70768470639E+02  0.71107126816E+02  0.00000000000E+00 0. -1.
         22    1    4    4    0    0 -0.33301083818E+02  0.40549913516E+00 -0.21542792506E+03  0.21798696638E+03  0.00000000000E+00 0. -1.
<mgrwt>
<rscale>  0 0.93101940E+02</rscale>
<asrwt>0</asrwt>
<pdfrwt beam="2">  1        1 0.56508284E-01 0.93101940E+02</pdfrwt>
<pdfrwt beam="1">  1       -1 0.90765048E-03 0.93101940E+02</pdfrwt>
<totfact> 0.12576416E+05</totfact>
</mgrwt>
</event>
<event>
 7    1  0.3607059E-009  0.9313035E+02  0.7818608E-02  0.1295443E+00
         -1   -1    0    0    0  501 -0.00000000000E+00  0.00000000000E+00  0.18850375443E+02  0.18850376117E+02  0.50400000000E-02 0.  1.
          1   -1    0    0  501    0  0.00000000000E+00 -0.00000000000E+00 -0.11502769794E+03  0.11502769805E+03  0.50400000000E-02 0. -1.
         23    2    1    2    0    0  0.16653345369E-15  0.00000000000E+00 -0.96177322497E+02  0.13387807417E+03  0.93130346182E+02 0.  0.
    9000005    2    3    3    0    0  0.40529037752E+00  0.23970854608E+02 -0.10527130762E+03  0.10823696077E+03  0.76436469187E+01 0.  0.
         22    1    3    3    0    0 -0.40529037752E+00 -0.23970854608E+02  0.90939851201E+01  0.25641113398E+02  0.00000000000E+00 0.  1.
         22    1    4    4    0    0  0.22995853890E+01  0.33239973243E+01 -0.11176092197E+02  0.11884531458E+02  0.00000000000E+00 0. -1.
         22    1    4    4    0    0 -0.18942950114E+01  0.20646857284E+02 -0.94095215419E+02  0.96352429311E+02  0.00000000000E+00 0. -1.
<mgrwt>
<rscale>  0 0.93130346E+02</rscale>
<asrwt>0</asrwt>
<pdfrwt beam="2">  1        1 0.17696569E-01 0.93130346E+02</pdfrwt>
<pdfrwt beam="1">  1       -1 0.29000579E-02 0.93130346E+02</pdfrwt>
<totfact> 0.10095870E+05</totfact>
</mgrwt>
</event>
<event>
 7    1  0.3607059E-009  0.1111238E+03  0.7818608E-02  0.1258503E+00
         -1   -1    0    0    0  501 -0.00000000000E+00  0.00000000000E+00  0.63942320090E+01  0.63942339953E+01  0.50400000000E-02 0.  1.
          1   -1    0    0  501    0  0.00000000000E+00 -0.00000000000E+00 -0.48279813065E+03  0.48279813067E+03  0.50400000000E-02 0. -1.
         23    2    1    2    0    0  0.00000000000E+00  0.00000000000E+00 -0.47640389864E+03  0.48919236467E+03  0.11112378239E+03 0.  0.
    9000005    2    3    3    0    0 -0.15475596535E+02 -0.34340203957E+02 -0.41755627132E+03  0.41932257909E+03  0.77098586118E+01 0.  0.
         22    1    3    3    0    0  0.15475596535E+02  0.34340203957E+02 -0.58847627319E+02  0.69869785580E+02  0.00000000000E+00 0.  1.
         22    1    4    4    0    0 -0.13902235523E+02 -0.23354075351E+02 -0.27781345103E+03  0.27913974737E+03  0.00000000000E+00 0. -1.
         22    1    4    4    0    0 -0.15733610129E+01 -0.10986128605E+02 -0.13974282029E+03  0.14018283172E+03  0.00000000000E+00 0. -1.
<mgrwt>
<rscale>  0 0.11112378E+03</rscale>
<asrwt>0</asrwt>
<pdfrwt beam="2">  1        1 0.74276608E-01 0.11112378E+03</pdfrwt>
<pdfrwt beam="1">  1       -1 0.98372853E-03 0.11112378E+03</pdfrwt>
<totfact> 0.81652582E+04</totfact>
</mgrwt>
</event>
<event>
 7    1  0.3607059E-009  0.9062434E+02  0.7818608E-02  0.1301347E+00
         -1   -1    0    0    0  501 -0.00000000000E+00  0.00000000000E+00  0.10312893074E+02  0.10312894305E+02  0.50400000000E-02 0.  1.
          1   -1    0    0  501    0  0.00000000000E+00 -0.00000000000E+00 -0.19908985802E+03  0.19908985809E+03  0.50400000000E-02 0. -1.
         23    2    1    2    0    0 -0.35527136788E-14  0.35527136788E-14 -0.18877696495E+03  0.20940275239E+03  0.90624335660E+02 0.  0.
    9000005    2    3    3    0    0  0.23108130712E+02 -0.31835932691E+02 -0.14283209171E+03  0.14891768240E+03  0.15098257951E+02 0.  0.
         22    1    3    3    0    0 -0.23108130712E+02  0.31835932691E+02 -0.45944873242E+02  0.60485069997E+02  0.00000000000E+00 0. -1.
         22    1    4    4    0    0  0.44333357064E+01 -0.99408944771E+00 -0.33189303342E+02  0.33498843796E+02  0.00000000000E+00 0. -1.
         22    1    4    4    0    0  0.18674795006E+02 -0.30841843243E+02 -0.10964278837E+03  0.11541883860E+03  0.00000000000E+00 0. -1.
<mgrwt>
<rscale>  0 0.90624336E+02</rscale>
<asrwt>0</asrwt>
<pdfrwt beam="2">  1        1 0.30629206E-01 0.90624336E+02</pdfrwt>
<pdfrwt beam="1">  1       -1 0.15865992E-02 0.90624336E+02</pdfrwt>
<totfact> 0.12024430E+05</totfact>
</mgrwt>
</event>
<event>
 7    1  0.3607059E-009  0.1120477E+03  0.7818608E-02  0.1256824E+00
         -1   -1    0    0    0  501 -0.00000000000E+00  0.00000000000E+00  0.12924017291E+02  0.12924018273E+02  0.50400000000E-02 0.  1.
          1   -1    0    0  501    0  0.00000000000E+00 -0.00000000000E+00 -0.24285556669E+03  0.24285556674E+03  0.50400000000E-02 0. -1.
         23    2    1    2    0    0  0.00000000000E+00  0.00000000000E+00 -0.22993154940E+03  0.25577958501E+03  0.11204766263E+03 0.  0.
    9000005    2    3    3    0    0 -0.42011224889E+02 -0.25196981350E+02 -0.56333557346E+02  0.75401943023E+02  0.10590205029E+02 0.  0.
         22    1    3    3    0    0  0.42011224889E+02  0.25196981350E+02 -0.17359799205E+03  0.18037764199E+03  0.00000000000E+00 0. -1.
         22    1    4    4    0    0 -0.89161803342E+01 -0.14591962865E+01 -0.70028360973E+01  0.11430977166E+02  0.00000000000E+00 0.  1.
         22    1    4    4    0    0 -0.33095044555E+02 -0.23737785063E+02 -0.49330721249E+02  0.63970965857E+02  0.00000000000E+00 0.  1.
<mgrwt>
<rscale>  0 0.11204766E+03</rscale>
<asrwt>0</asrwt>
<pdfrwt beam="2">  1        1 0.37362392E-01 0.11204766E+03</pdfrwt>
<pdfrwt beam="1">  1       -1 0.19883106E-02 0.11204766E+03</pdfrwt>
<totfact> 0.70434047E+04</totfact>
</mgrwt>
</event>
<event>
 7    1  0.3607059E-009  0.8645380E+02  0.7818608E-02  0.1311674E+00
         -1   -1    0    0    0  501 -0.00000000000E+00  0.00000000000E+00  0.18700496061E+03  0.18700496068E+03  0.50400000000E-02 0.  1.
          1   -1    0    0  501    0  0.00000000000E+00 -0.00000000000E+00 -0.99920602607E+01  0.99920615318E+01  0.50400000000E-02 0. -1.
         23    2    1    2    0    0  0.00000000000E+00 -0.35527136788E-14  0.17701290035E+03  0.19699702221E+03  0.86453801937E+02 0.  0.
    9000005    2    3    3    0    0  0.19971892814E+02  0.31252155079E+02  0.44121904519E+02  0.59027494877E+02  0.12725132354E+02 0.  0.
         22    1    3    3    0    0 -0.19971892814E+02 -0.31252155079E+02  0.13289099583E+03  0.13796952733E+03  0.00000000000E+00 0.  1.
         22    1    4    4    0    0  0.57790521665E+01  0.14656804128E+02  0.10488128486E+02  0.18926705744E+02  0.00000000000E+00 0. -1.
         22    1    4    4    0    0  0.14192840648E+02  0.16595350951E+02  0.33633776033E+02  0.40100789133E+02  0.00000000000E+00 0. -1.
<mgrwt>
<rscale>  0 0.86453802E+02</rscale>
<asrwt>0</asrwt>
<pdfrwt beam="2">  1        1 0.15372402E-02 0.86453802E+02</pdfrwt>
<pdfrwt beam="1">  1       -1 0.28769992E-01 0.86453802E+02</pdfrwt>
<totfact> 0.81220341E+04</totfact>
</mgrwt>
</event>
<event>
 7    1  0.3607059E-009  0.9264192E+02  0.7818608E-02  0.1296577E+00
         -1   -1    0    0    0  501 -0.00000000000E+00  0.00000000000E+00  0.27165096178E+03  0.27165096182E+03  0.50400000000E-02 0.  1.
          1   -1    0    0  501    0  0.00000000000E+00 -0.00000000000E+00 -0.78984848635E+01  0.78984864715E+01  0.50400000000E-02 0. -1.
         23    2    1    2    0    0  0.00000000000E+00  0.00000000000E+00  0.26375247691E+03  0.27954944829E+03  0.92641917964E+02 0.  0.
    9000005    2    3    3    0    0 -0.11354417169E+02  0.19468948136E+02  0.25364473392E+03  0.25484865480E+03  0.10208970446E+02 0.  0.
         22    1    3    3    0    0  0.11354417169E+02 -0.19468948136E+02  0.10107742991E+02  0.24700793492E+02  0.00000000000E+00 0. -1.
         22    1    4    4    0    0 -0.22677066903E+00  0.69359664904E+01  0.45012670061E+02  0.45544478503E+02  0.00000000000E+00 0. -1.
         22    1    4    4    0    0 -0.11127646500E+02  0.12532981646E+02  0.20863206386E+03  0.20930417630E+03  0.00000000000E+00 0. -1.
<mgrwt>
<rscale>  0 0.92641918E+02</rscale>
<asrwt>0</asrwt>
<pdfrwt beam="2">  1        1 0.12151517E-02 0.92641918E+02</pdfrwt>
<pdfrwt beam="1">  1       -1 0.41792453E-01 0.92641918E+02</pdfrwt>
<totfact> 0.60334406E+04</totfact>
</mgrwt>
</event>
<event>
 7    1  0.3607059E-009  0.9279481E+02  0.7818608E-02  0.1296221E+00
          1   -1    0    0  501    0  0.00000000000E+00  0.00000000000E+00  0.73336157169E+02  0.73336157342E+02  0.50400000000E-02 0. -1.
         -1   -1    0    0    0  501 -0.00000000000E+00 -0.00000000000E+00 -0.29354130612E+02  0.29354131044E+02  0.50400000000E-02 0.  1.
         23    2    1    2    0    0  0.00000000000E+00  0.00000000000E+00  0.43982026557E+02  0.10269028839E+03  0.92794809493E+02 0.  0.
    9000005    2    3    3    0    0 -0.25751331623E+02 -0.16569204728E+02  0.59325533816E+02  0.68439845459E+02  0.15060672566E+02 0.  0.
         22    1    3    3    0    0  0.25751331623E+02  0.16569204728E+02 -0.15343507259E+02  0.34250442927E+02  0.00000000000E+00 0.  1.
         22    1    4    4    0    0 -0.13493956239E+02 -0.30512271188E+01  0.14493461941E+02  0.20036398902E+02  0.00000000000E+00 0. -1.
         22    1    4    4    0    0 -0.12257375384E+02 -0.13517977609E+02  0.44832071876E+02  0.48403446557E+02  0.00000000000E+00 0. -1.
<mgrwt>
<rscale>  0 0.92794809E+02</rscale>
<asrwt>0</asrwt>
<pdfrwt beam="1">  1        1 0.11282486E-01 0.92794809E+02</pdfrwt>
<pdfrwt beam="2">  1       -1 0.45160202E-02 0.92794809E+02</pdfrwt>
<totfact> 0.94672758E+04</totfact>
</mgrwt>
</event>
<event>
 7    1  0.3607059E-009  0.9043766E+02  0.7818608E-02  0.1301795E+00
         -1   -1    0    0    0  501 -0.00000000000E+00  0.00000000000E+00  0.11108091774E+02  0.11108092917E+02  0.50400000000E-02 0.  1.
          1   -1    0    0  501    0  0.00000000000E+00 -0.00000000000E+00 -0.18407684072E+03  0.18407684079E+03  0.50400000000E-02 0. -1.
         23    2    1    2    0    0 -0.17763568394E-14  0.00000000000E+00 -0.17296874895E+03  0.19518493371E+03  0.90437659380E+02 0.  0.
    9000005    2    3    3    0    0  0.13955952012E+02 -0.42728411507E+02 -0.87858096911E+02  0.98933654046E+02  0.69524789515E+01 0.  0.
         22    1    3    3    0    0 -0.13955952012E+02  0.42728411507E+02 -0.85110652037E+02  0.96251279663E+02  0.00000000000E+00 0. -1.
         22    1    4    4    0    0  0.98026209790E+01 -0.37737952419E+02 -0.75050406481E+02  0.84574274717E+02  0.00000000000E+00 0.  1.
         22    1    4    4    0    0  0.41533310329E+01 -0.49904590883E+01 -0.12807690430E+02  0.14359379329E+02  0.00000000000E+00 0.  1.
<mgrwt>
<rscale>  0 0.90437659E+02</rscale>
<asrwt>0</asrwt>
<pdfrwt beam="2">  1        1 0.28319512E-01 0.90437659E+02</pdfrwt>
<pdfrwt beam="1">  1       -1 0.17089374E-02 0.90437659E+02</pdfrwt>
<totfact> 0.11909846E+05</totfact>
</mgrwt>
</event>
<event>
 7    1  0.3607059E-009  0.9161837E+02  0.7818608E-02  0.1298979E+00
         -1   -1    0    0    0  501 -0.00000000000E+00  0.00000000000E+00  0.47263003070E+03  0.47263003073E+03  0.50400000000E-02 0.  1.
          1   -1    0    0  501    0  0.00000000000E+00 -0.00000000000E+00 -0.44400072621E+01  0.44400101227E+01  0.50400000000E-02 0. -1.
         23    2    1    2    0    0  0.00000000000E+00  0.00000000000E+00  0.46819002344E+03  0.47707004085E+03  0.91618370590E+02 0.  0.
    9000005    2    3    3    0    0 -0.85832115556E+01 -0.54059035072E+01  0.46668929679E+03  0.46681589565E+03  0.39096518374E+01 0.  0.
         22    1    3    3    0    0  0.85832115556E+01  0.54059035072E+01  0.15007266469E+01  0.10254145201E+02  0.00000000000E+00 0. -1.
         22    1    4    4    0    0 -0.89473824523E+01 -0.54662623227E+01  0.45490979075E+03  0.45503060710E+03  0.00000000000E+00 0.  1.
         22    1    4    4    0    0  0.36417089677E+00  0.60358815503E-01  0.11779506044E+02  0.11785288552E+02  0.00000000000E+00 0.  1.
<mgrwt>
<rscale>  0 0.91618371E+02</rscale>
<asrwt>0</asrwt>
<pdfrwt beam="2">  1        1 0.68307835E-03 0.91618371E+02</pdfrwt>
<pdfrwt beam="1">  1       -1 0.72712303E-01 0.91618371E+02</pdfrwt>
<totfact> 0.48049369E+04</totfact>
</mgrwt>
</event>
<event>
 7    1  0.3607059E-009  0.8756088E+02  0.7818608E-02  0.1308868E+00
          1   -1    0    0  501    0  0.00000000000E+00  0.00000000000E+00  0.12885146491E+02  0.12885147477E+02  0.50400000000E-02 0. -1.
         -1   -1    0    0    0  501 -0.00000000000E+00 -0.00000000000E+00 -0.14875475286E+03  0.14875475295E+03  0.50400000000E-02 0.  1.
         23    2    1    2    0    0  0.22204460493E-15  0.00000000000E+00 -0.13586960637E+03  0.16163990043E+03  0.87560878673E+02 0.  0.
    9000005    2    3    3    0    0  0.61967092484E+00  0.38610666187E+02 -0.35179003950E+02  0.53798512491E+02  0.12866627061E+02 0.  0.
         22    1    3    3    0    0 -0.61967092484E+00 -0.38610666187E+02 -0.10069060242E+03  0.10784138794E+03  0.00000000000E+00 0.  1.
         22    1    4    4    0    0 -0.31077781830E+01  0.20708048560E+02 -0.25858181850E+02  0.33273519937E+02  0.00000000000E+00 0. -1.
         22    1    4    4    0    0  0.37274491078E+01  0.17902617627E+02 -0.93208221001E+01  0.20524992555E+02  0.00000000000E+00 0. -1.
<mgrwt>
<rscale>  0 0.87560879E+02</rscale>
<asrwt>0</asrwt>
<pdfrwt beam="1">  1        1 0.19823304E-02 0.87560879E+02</pdfrwt>
<pdfrwt beam="2">  1       -1 0.22885345E-01 0.87560879E+02</pdfrwt>
<totfact> 0.83215881E+04</totfact>
</mgrwt>
</event>
<event>
 7    1  0.3607059E-009  0.9002295E+02  0.7818608E-02  0.1302796E+00
         -1   -1    0    0    0  501 -0.00000000000E+00  0.00000000000E+00  0.56450753390E+01  0.56450775889E+01  0.50400000000E-02 0.  1.
          1   -1    0    0  501    0  0.00000000000E+00 -0.00000000000E+00 -0.35890266905E+03  0.35890266908E+03  0.50400000000E-02 0. -1.
         23    2    1    2    0    0  0.00000000000E+00  0.00000000000E+00 -0.35325759371E+03  0.36454774667E+03  0.90022953133E+02 0.  0.
    9000005    2    3    3    0    0 -0.21718078161E+02 -0.35018947713E+02 -0.11123693880E+03  0.11904418454E+03  0.99929825807E+01 0.  0.
         22    1    3    3    0    0  0.21718078161E+02  0.35018947713E+02 -0.24202065491E+03  0.24550356213E+03  0.00000000000E+00 0. -1.
         22    1    4    4    0    0 -0.83586737305E+01 -0.16071987299E+02 -0.62531561526E+02  0.65102783267E+02  0.00000000000E+00 0. -1.
         22    1    4    4    0    0 -0.13359404431E+02 -0.18946960414E+02 -0.48705377274E+02  0.53941401271E+02  0.00000000000E+00 0. -1.
<mgrwt>
<rscale>  0 0.90022953E+02</rscale>
<asrwt>0</asrwt>
<pdfrwt beam="2">  1        1 0.55215778E-01 0.90022953E+02</pdfrwt>
<pdfrwt beam="1">  1       -1 0.86847358E-03 0.90022953E+02</pdfrwt>
<totfact> 0.13697612E+05</totfact>
</mgrwt>
</event>
<event>
 7    1  0.3607059E-009  0.9170358E+02  0.7818608E-02  0.1298778E+00
         -1   -1    0    0    0  501 -0.00000000000E+00  0.00000000000E+00  0.13026139426E+02  0.13026140401E+02  0.50400000000E-02 0.  1.
          1   -1    0    0  501    0  0.00000000000E+00 -0.00000000000E+00 -0.16139753031E+03  0.16139753039E+03  0.50400000000E-02 0. -1.
         23    2    1    2    0    0  0.00000000000E+00  0.00000000000E+00 -0.14837139089E+03  0.17442367079E+03  0.91703583894E+02 0.  0.
    9000005    2    3    3    0    0  0.24072596709E+02  0.22235695773E+02 -0.13423690428E+03  0.13873473987E+03  0.12404253184E+02 0.  0.
         22    1    3    3    0    0 -0.24072596709E+02 -0.22235695773E+02 -0.14134486607E+02  0.35688930923E+02  0.00000000000E+00 0.  1.
         22    1    4    4    0    0  0.16184915761E+02  0.21306981562E+02 -0.94669636930E+02  0.98378245146E+02  0.00000000000E+00 0.  1.
         22    1    4    4    0    0  0.78876809475E+01  0.92871421078E+00 -0.39567267351E+02  0.40356494724E+02  0.00000000000E+00 0.  1.
<mgrwt>
<rscale>  0 0.91703584E+02</rscale>
<asrwt>0</asrwt>
<pdfrwt beam="2">  1        1 0.24830388E-01 0.91703584E+02</pdfrwt>
<pdfrwt beam="1">  1       -1 0.20040216E-02 0.91703584E+02</pdfrwt>
<totfact> 0.11191231E+05</totfact>
</mgrwt>
</event>
<event>
 7    1  0.3607059E-009  0.9136343E+02  0.7818608E-02  0.1299583E+00
         -1   -1    0    0    0  501 -0.00000000000E+00  0.00000000000E+00  0.21643445116E+02  0.21643445702E+02  0.50400000000E-02 0.  1.
          1   -1    0    0  501    0  0.00000000000E+00 -0.00000000000E+00 -0.96418066208E+02  0.96418066340E+02  0.50400000000E-02 0. -1.
         23    2    1    2    0    0 -0.35527136788E-14  0.17763568394E-14 -0.74774621092E+02  0.11806151204E+03  0.91363431778E+02 0.  0.
    9000005    2    3    3    0    0  0.28395496007E+02 -0.13137499812E+02 -0.79048683441E+02  0.86483581398E+02  0.15868755556E+02 0.  0.
         22    1    3    3    0    0 -0.28395496007E+02  0.13137499812E+02  0.42740623487E+01  0.31577930644E+02  0.00000000000E+00 0.  1.
         22    1    4    4    0    0  0.85447084072E+01 -0.19229445778E+01 -0.42602901851E+02  0.43493873174E+02  0.00000000000E+00 0.  1.
         22    1    4    4    0    0  0.19850787600E+02 -0.11214555234E+02 -0.36445781590E+02  0.42989708224E+02  0.00000000000E+00 0.  1.
<mgrwt>
<rscale>  0 0.91363432E+02</rscale>
<asrwt>0</asrwt>
<pdfrwt beam="2">  1        1 0.14833548E-01 0.91363432E+02</pdfrwt>
<pdfrwt beam="1">  1       -1 0.33297609E-02 0.91363432E+02</pdfrwt>
<totfact> 0.10324470E+05</totfact>
</mgrwt>
</event>
<event>
 7    1  0.3607059E-009  0.9234637E+02  0.7818608E-02  0.1297267E+00
          1   -1    0    0  501    0  0.00000000000E+00  0.00000000000E+00  0.48328234393E+03  0.48328234396E+03  0.50400000000E-02 0. -1.
         -1   -1    0    0    0  501 -0.00000000000E+00 -0.00000000000E+00 -0.44114217312E+01  0.44114246103E+01  0.50400000000E-02 0.  1.
         23    2    1    2    0    0  0.00000000000E+00  0.00000000000E+00  0.47887092220E+03  0.48769376857E+03  0.92346368479E+02 0.  0.
    9000005    2    3    3    0    0  0.43922459312E+01  0.19651258018E+02  0.45803095169E+03  0.45871501537E+03  0.14887876058E+02 0.  0.
         22    1    3    3    0    0 -0.43922459312E+01 -0.19651258018E+02  0.20839970506E+02  0.28978753194E+02  0.00000000000E+00 0.  1.
         22    1    4    4    0    0  0.96830319024E+01  0.12180508807E+02  0.32256616847E+03  0.32294126238E+03  0.00000000000E+00 0. -1.
         22    1    4    4    0    0 -0.52907859711E+01  0.74707492105E+01  0.13546478322E+03  0.13577375300E+03  0.00000000000E+00 0. -1.
<mgrwt>
<rscale>  0 0.92346368E+02</rscale>
<asrwt>0</asrwt>
<pdfrwt beam="1">  1        1 0.74351097E-01 0.92346368E+02</pdfrwt>
<pdfrwt beam="2">  1       -1 0.67868079E-03 0.92346368E+02</pdfrwt>
<totfact> 0.13407470E+05</totfact>
</mgrwt>
</event>
<event>
 7    1  0.3607059E-009  0.9708423E+02  0.7818608E-02  0.1286550E+00
          1   -1    0    0  501    0  0.00000000000E+00  0.00000000000E+00  0.64843772946E+03  0.64843772948E+03  0.50400000000E-02 0. -1.
         -1   -1    0    0    0  501 -0.00000000000E+00 -0.00000000000E+00 -0.36338658685E+01  0.36338693636E+01  0.50400000000E-02 0.  1.
         23    2    1    2    0    0 -0.88817841970E-15  0.00000000000E+00  0.64480386359E+03  0.65207159885E+03  0.97084228974E+02 0.  0.
    9000005    2    3    3    0    0 -0.50008743235E+01 -0.36087333361E+02  0.53625112371E+03  0.53756831632E+03  0.93339518018E+01 0.  0.
         22    1    3    3    0    0  0.50008743235E+01  0.36087333361E+02  0.10855273988E+03  0.11450328252E+03  0.00000000000E+00 0.  1.
         22    1    4    4    0    0 -0.54339837126E+01 -0.14921751694E+02  0.27666345226E+03  0.27711884214E+03  0.00000000000E+00 0. -1.
         22    1    4    4    0    0  0.43310938905E+00 -0.21165581668E+02  0.25958767146E+03  0.26044947419E+03  0.00000000000E+00 0. -1.
<mgrwt>
<rscale>  0 0.97084229E+02</rscale>
<asrwt>0</asrwt>
<pdfrwt beam="1">  1        1 0.99759751E-01 0.97084229E+02</pdfrwt>
<pdfrwt beam="2">  1       -1 0.55905600E-03 0.97084229E+02</pdfrwt>
<totfact> 0.12026699E+05</totfact>
</mgrwt>
</event>
<event>
 7    1  0.3607059E-009  0.9677604E+02  0.7818608E-02  0.1287225E+00
         -1   -1    0    0    0  501 -0.00000000000E+00  0.00000000000E+00  0.41208674933E+02  0.41208675241E+02  0.50400000000E-02 0.  1.
          1   -1    0    0  501    0  0.00000000000E+00 -0.00000000000E+00 -0.56818145649E+02  0.56818145873E+02  0.50400000000E-02 0. -1.
         23    2    1    2    0    0 -0.44408920985E-15  0.00000000000E+00 -0.15609470716E+02  0.98026821114E+02  0.96776040846E+02 0.  0.
    9000005    2    3    3    0    0 -0.28377638360E+01  0.45794079808E+02  0.54133897617E+01  0.47557906803E+02  0.11282688584E+02 0.  0.
         22    1    3    3    0    0  0.28377638360E+01 -0.45794079808E+02 -0.21022860478E+02  0.50468914311E+02  0.00000000000E+00 0.  1.
         22    1    4    4    0    0 -0.60895457442E+01  0.22129599671E+02 -0.47077652465E+00  0.22956989774E+02  0.00000000000E+00 0.  1.
         22    1    4    4    0    0  0.32517819083E+01  0.23664480138E+02  0.58841662864E+01  0.24600917029E+02  0.00000000000E+00 0.  1.
<mgrwt>
<rscale>  0 0.96776041E+02</rscale>
<asrwt>0</asrwt>
<pdfrwt beam="2">  1        1 0.87412532E-02 0.96776041E+02</pdfrwt>
<pdfrwt beam="1">  1       -1 0.63397962E-02 0.96776041E+02</pdfrwt>
<totfact> 0.80915640E+04</totfact>
</mgrwt>
</event>
<event>
 7    1  0.3607059E-009  0.9159237E+02  0.7818608E-02  0.1299041E+00
          1   -1    0    0  501    0  0.00000000000E+00  0.00000000000E+00  0.61392731028E+01  0.61392751716E+01  0.50400000000E-02 0. -1.
         -1   -1    0    0    0  501 -0.00000000000E+00 -0.00000000000E+00 -0.34161862752E+03  0.34161862756E+03  0.50400000000E-02 0.  1.
         23    2    1    2    0    0  0.00000000000E+00  0.00000000000E+00 -0.33547935442E+03  0.34775790273E+03  0.91592366877E+02 0.  0.
    9000005    2    3    3    0    0 -0.43631222232E+02 -0.12139456613E+02 -0.14378517539E+03  0.15078656412E+03  0.33706523161E+01 0.  0.
         22    1    3    3    0    0  0.43631222232E+02  0.12139456613E+02 -0.19169417903E+03  0.19697133861E+03  0.00000000000E+00 0.  1.
         22    1    4    4    0    0 -0.21092657978E+02 -0.74363142552E+01 -0.73331465866E+02  0.76666178178E+02  0.00000000000E+00 0.  1.
         22    1    4    4    0    0 -0.22538564253E+02 -0.47031423581E+01 -0.70453709525E+02  0.74120385944E+02  0.00000000000E+00 0.  1.
<mgrwt>
<rscale>  0 0.91592367E+02</rscale>
<asrwt>0</asrwt>
<pdfrwt beam="1">  1        1 0.94450398E-03 0.91592367E+02</pdfrwt>
<pdfrwt beam="2">  1       -1 0.52556697E-01 0.91592367E+02</pdfrwt>
<totfact> 0.56721158E+04</totfact>
</mgrwt>
</event>
<event>
 7    1  0.3607059E-009  0.8949126E+02  0.7818608E-02  0.1304088E+00
         -1   -1    0    0    0  501 -0.00000000000E+00  0.00000000000E+00  0.15427759901E+02  0.15427760725E+02  0.50400000000E-02 0.  1.
          1   -1    0    0  501    0  0.00000000000E+00 -0.00000000000E+00 -0.12977719550E+03  0.12977719560E+03  0.50400000000E-02 0. -1.
         23    2    1    2    0    0  0.00000000000E+00  0.00000000000E+00 -0.11434943560E+03  0.14520495633E+03  0.89491261692E+02 0.  0.
    9000005    2    3    3    0    0 -0.20212554041E+02  0.38689062524E+02 -0.44908271381E+02  0.63183823755E+02  0.83696980878E+01 0.  0.
         22    1    3    3    0    0  0.20212554041E+02 -0.38689062524E+02 -0.69441164221E+02  0.82021132571E+02  0.00000000000E+00 0.  1.
         22    1    4    4    0    0 -0.16785504334E+02  0.36017993115E+02 -0.37748363062E+02  0.54808648018E+02  0.00000000000E+00 0. -1.
         22    1    4    4    0    0 -0.34270497076E+01  0.26710694089E+01 -0.71599083194E+01  0.83751757372E+01  0.00000000000E+00 0. -1.
<mgrwt>
<rscale>  0 0.89491262E+02</rscale>
<asrwt>0</asrwt>
<pdfrwt beam="2">  1        1 0.19965722E-01 0.89491262E+02</pdfrwt>
<pdfrwt beam="1">  1       -1 0.23735017E-02 0.89491262E+02</pdfrwt>
<totfact> 0.11488210E+05</totfact>
</mgrwt>
</event>
<event>
 7    1  0.3607059E-009  0.8999747E+02  0.7818608E-02  0.1302858E+00
         -1   -1    0    0    0  501 -0.00000000000E+00  0.00000000000E+00  0.51532306415E+01  0.51532331062E+01  0.50400000000E-02 0.  1.
          1   -1    0    0  501    0  0.00000000000E+00 -0.00000000000E+00 -0.39293517504E+03  0.39293517507E+03  0.50400000000E-02 0. -1.
         23    2    1    2    0    0  0.00000000000E+00  0.00000000000E+00 -0.38778194439E+03  0.39808840817E+03  0.89997468434E+02 0.  0.
    9000005    2    3    3    0    0 -0.10304939149E+02 -0.21120248097E+02 -0.36331862272E+03  0.36416628032E+03  0.80250520438E+01 0.  0.
         22    1    3    3    0    0  0.10304939149E+02  0.21120248097E+02 -0.24463321678E+02  0.33922127853E+02  0.00000000000E+00 0.  1.
         22    1    4    4    0    0 -0.70127442565E+01 -0.13407156892E+02 -0.17209404826E+03  0.17275789963E+03  0.00000000000E+00 0. -1.
         22    1    4    4    0    0 -0.32921948928E+01 -0.77130912048E+01 -0.19122457446E+03  0.19140838069E+03  0.00000000000E+00 0. -1.
<mgrwt>
<rscale>  0 0.89997468E+02</rscale>
<asrwt>0</asrwt>
<pdfrwt beam="2">  1        1 0.60451542E-01 0.89997468E+02</pdfrwt>
<pdfrwt beam="1">  1       -1 0.79280522E-03 0.89997468E+02</pdfrwt>
<totfact> 0.13922208E+05</totfact>
</mgrwt>
</event>
<event>
 7    1  0.3607059E-009  0.9086978E+02  0.7818608E-02  0.1300759E+00
         -1   -1    0    0    0  501 -0.00000000000E+00  0.00000000000E+00  0.97191474075E+01  0.97191487143E+01  0.50400000000E-02 0.  1.
          1   -1    0    0  501    0  0.00000000000E+00 -0.00000000000E+00 -0.21239815227E+03  0.21239815233E+03  0.50400000000E-02 0. -1.
         23    2    1    2    0    0 -0.17763568394E-14  0.00000000000E+00 -0.20267900486E+03  0.22211730104E+03  0.90869777214E+02 0.  0.
    9000005    2    3    3    0    0  0.91417632429E+01  0.22265915545E+02 -0.19487036636E+03  0.19681280212E+03  0.13471323785E+02 0.  0.
         22    1    3    3    0    0 -0.91417632429E+01 -0.22265915545E+02 -0.78086385005E+01  0.25304498918E+02  0.00000000000E+00 0.  1.
         22    1    4    4    0    0  0.10851722901E+02  0.11379985932E+02 -0.13728270514E+03  0.13818033543E+03  0.00000000000E+00 0. -1.
         22    1    4    4    0    0 -0.17099596577E+01  0.10885929613E+02 -0.57587661223E+02  0.58632466694E+02  0.00000000000E+00 0. -1.
<mgrwt>
<rscale>  0 0.90869777E+02</rscale>
<asrwt>0</asrwt>
<pdfrwt beam="2">  1        1 0.32676635E-01 0.90869777E+02</pdfrwt>
<pdfrwt beam="1">  1       -1 0.14952537E-02 0.90869777E+02</pdfrwt>
<totfact> 0.12088618E+05</totfact>
</mgrwt>
</event>
<event>
 7    1  0.3607059E-009  0.8954207E+02  0.7818608E-02  0.1303964E+00
          1   -1    0    0  501    0  0.00000000000E+00  0.00000000000E+00  0.84961649347E+03  0.84961649348E+03  0.50400000000E-02 0. -1.
         -1   -1    0    0    0  501 -0.00000000000E+00 -0.00000000000E+00 -0.23592331634E+01  0.23592385468E+01  0.50400000000E-02 0.  1.
         23    2    1    2    0    0 -0.44408920985E-15  0.00000000000E+00  0.84725726030E+03  0.85197573203E+03  0.89542072953E+02 0.  0.
    9000005    2    3    3    0    0 -0.49308912357E+00 -0.11635673200E+02  0.83449448299E+03  0.83469798587E+03  0.14284727516E+02 0.  0.
         22    1    3    3    0    0  0.49308912357E+00  0.11635673200E+02  0.12762777313E+02  0.17277746162E+02  0.00000000000E+00 0.  1.
         22    1    4    4    0    0  0.37120174480E+01 -0.11531978069E+02  0.75091701567E+03  0.75101473355E+03  0.00000000000E+00 0. -1.
         22    1    4    4    0    0 -0.42051065715E+01 -0.10369513086E+00  0.83577467321E+02  0.83683252313E+02  0.00000000000E+00 0. -1.
<mgrwt>
<rscale>  0 0.89542073E+02</rscale>
<asrwt>0</asrwt>
<pdfrwt beam="1">  1        1 0.13071039E+00 0.89542073E+02</pdfrwt>
<pdfrwt beam="2">  1       -1 0.36295892E-03 0.89542073E+02</pdfrwt>
<totfact> 0.14725817E+05</totfact>
</mgrwt>
</event>
<event>
 7    1  0.3607059E-009  0.9119380E+02  0.7818608E-02  0.1299986E+00
          1   -1    0    0  501    0  0.00000000000E+00  0.00000000000E+00  0.11196789477E+04  0.11196789477E+04  0.50400000000E-02 0. -1.
         -1   -1    0    0    0  501 -0.00000000000E+00 -0.00000000000E+00 -0.18568478570E+01  0.18568546970E+01  0.50400000000E-02 0.  1.
         23    2    1    2    0    0 -0.35527136788E-14  0.00000000000E+00  0.11178220998E+04  0.11215358024E+04  0.91193800152E+02 0.  0.
    9000005    2    3    3    0    0 -0.26142195516E+02  0.46842041267E+01  0.10140588997E+04  0.10144276427E+04  0.65294890284E+01 0.  0.
         22    1    3    3    0    0  0.26142195516E+02 -0.46842041267E+01  0.10376320019E+03  0.10710815967E+03  0.00000000000E+00 0.  1.
         22    1    4    4    0    0 -0.19972669647E+02  0.61591385100E+01  0.81350513691E+03  0.81377358663E+03  0.00000000000E+00 0. -1.
         22    1    4    4    0    0 -0.61695258690E+01 -0.14749343833E+01  0.20055376275E+03  0.20065405611E+03  0.00000000000E+00 0. -1.
<mgrwt>
<rscale>  0 0.91193800E+02</rscale>
<asrwt>0</asrwt>
<pdfrwt beam="1">  1        1 0.17225813E+00 0.91193800E+02</pdfrwt>
<pdfrwt beam="2">  1       -1 0.28566971E-03 0.91193800E+02</pdfrwt>
<totfact> 0.13106077E+05</totfact>
</mgrwt>
</event>
<event>
 7    1  0.3607059E-009  0.9136189E+02  0.7818608E-02  0.1299587E+00
          1   -1    0    0  501    0  0.00000000000E+00  0.00000000000E+00  0.63891806664E+02  0.63891806863E+02  0.50400000000E-02 0. -1.
         -1   -1    0    0    0  501 -0.00000000000E+00 -0.00000000000E+00 -0.32660662838E+02  0.32660663227E+02  0.50400000000E-02 0.  1.
         23    2    1    2    0    0  0.00000000000E+00  0.00000000000E+00  0.31231143826E+02  0.96552470090E+02  0.91361891047E+02 0.  0.
    9000005    2    3    3    0    0 -0.36771621674E+02  0.21258226456E+02  0.31540836910E+02  0.54077062353E+02  0.11199996749E+02 0.  0.
         22    1    3    3    0    0  0.36771621674E+02 -0.21258226456E+02 -0.30969308352E+00  0.42475407737E+02  0.00000000000E+00 0.  1.
         22    1    4    4    0    0 -0.21533968213E+02  0.70726772644E+01  0.12605206830E+02  0.25935030170E+02  0.00000000000E+00 0.  1.
         22    1    4    4    0    0 -0.15237653460E+02  0.14185549192E+02  0.18935630080E+02  0.28142032183E+02  0.00000000000E+00 0.  1.
<mgrwt>
<rscale>  0 0.91361891E+02</rscale>
<asrwt>0</asrwt>
<pdfrwt beam="1">  1        1 0.98295088E-02 0.91361891E+02</pdfrwt>
<pdfrwt beam="2">  1       -1 0.50247174E-02 0.91361891E+02</pdfrwt>
<totfact> 0.96750362E+04</totfact>
</mgrwt>
</event>
<event>
 7    1  0.3607059E-009  0.9150984E+02  0.7818608E-02  0.1299236E+00
          1   -1    0    0  501    0  0.00000000000E+00  0.00000000000E+00  0.37681994697E+03  0.37681994701E+03  0.50400000000E-02 0. -1.
         -1   -1    0    0    0  501 -0.00000000000E+00 -0.00000000000E+00 -0.55557366108E+01  0.55557388969E+01  0.50400000000E-02 0.  1.
         23    2    1    2    0    0  0.00000000000E+00  0.00000000000E+00  0.37126421036E+03  0.38237568590E+03  0.91509842500E+02 0.  0.
    9000005    2    3    3    0    0 -0.25545876107E+02  0.34752466412E+02  0.14007921911E+03  0.14720165271E+03  0.13631332532E+02 0.  0.
         22    1    3    3    0    0  0.25545876107E+02 -0.34752466412E+02  0.23118499125E+03  0.23517403319E+03  0.00000000000E+00 0. -1.
         22    1    4    4    0    0 -0.89162794849E+01  0.53172873857E+01  0.48059669450E+02  0.49168134118E+02  0.00000000000E+00 0.  1.
         22    1    4    4    0    0 -0.16629596622E+02  0.29435179026E+02  0.92019549662E+02  0.98033518595E+02  0.00000000000E+00 0.  1.
<mgrwt>
<rscale>  0 0.91509842E+02</rscale>
<asrwt>0</asrwt>
<pdfrwt beam="1">  1        1 0.57972313E-01 0.91509842E+02</pdfrwt>
<pdfrwt beam="2">  1       -1 0.85472870E-03 0.91509842E+02</pdfrwt>
<totfact> 0.13225733E+05</totfact>
</mgrwt>
</event>
<event>
 7    1  0.3607059E-009  0.8996260E+02  0.7818608E-02  0.1302942E+00
          1   -1    0    0  501    0  0.00000000000E+00  0.00000000000E+00  0.17842948471E+03  0.17842948478E+03  0.50400000000E-02 0. -1.
         -1   -1    0    0    0  501 -0.00000000000E+00 -0.00000000000E+00 -0.11339590794E+02  0.11339591914E+02  0.50400000000E-02 0.  1.
         23    2    1    2    0    0  0.00000000000E+00 -0.35527136788E-14  0.16708989392E+03  0.18976907670E+03  0.89962602347E+02 0.  0.
    9000005    2    3    3    0    0 -0.36418188953E+02  0.22146991700E+02  0.10614301795E+03  0.11539639745E+03  0.15271363958E+02 0.  0.
         22    1    3    3    0    0  0.36418188953E+02 -0.22146991700E+02  0.60946875965E+02  0.74372679244E+02  0.00000000000E+00 0.  1.
         22    1    4    4    0    0 -0.14642368095E+02  0.15980541757E+01  0.26613056708E+02  0.30417223869E+02  0.00000000000E+00 0. -1.
         22    1    4    4    0    0 -0.21775820858E+02  0.20548937524E+02  0.79529961246E+02  0.84979173585E+02  0.00000000000E+00 0. -1.
<mgrwt>
<rscale>  0 0.89962602E+02</rscale>
<asrwt>0</asrwt>
<pdfrwt beam="1">  1        1 0.27450689E-01 0.89962602E+02</pdfrwt>
<pdfrwt beam="2">  1       -1 0.17445526E-02 0.89962602E+02</pdfrwt>
<totfact> 0.12007584E+05</totfact>
</mgrwt>
</event>
<event>
 7    1  0.3607059E-009  0.9252920E+02  0.7818608E-02  0.1296840E+00
          1   -1    0    0  501    0  0.00000000000E+00  0.00000000000E+00  0.33107715404E+03  0.33107715408E+03  0.50400000000E-02 0. -1.
         -1   -1    0    0    0  501 -0.00000000000E+00 -0.00000000000E+00 -0.64649976297E+01  0.64649995943E+01  0.50400000000E-02 0.  1.
         23    2    1    2    0    0  0.00000000000E+00  0.00000000000E+00  0.32461215641E+03  0.33754215368E+03  0.92529203048E+02 0.  0.
    9000005    2    3    3    0    0 -0.34482964223E+02 -0.65567174419E+01  0.26993726604E+03  0.27256978261E+03  0.14003336275E+02 0.  0.
         22    1    3    3    0    0  0.34482964223E+02  0.65567174419E+01  0.54674890373E+02  0.64972371070E+02  0.00000000000E+00 0.  1.
         22    1    4    4    0    0 -0.26869840800E+02 -0.10540266397E+02  0.22201318621E+03  0.22388153209E+03  0.00000000000E+00 0. -1.
         22    1    4    4    0    0 -0.76131234231E+01  0.39835489553E+01  0.47924079835E+02  0.48688250519E+02  0.00000000000E+00 0. -1.
<mgrwt>
<rscale>  0 0.92529203E+02</rscale>
<asrwt>0</asrwt>
<pdfrwt beam="1">  1        1 0.50934964E-01 0.92529203E+02</pdfrwt>
<pdfrwt beam="2">  1       -1 0.99461484E-03 0.92529203E+02</pdfrwt>
<totfact> 0.12548995E+05</totfact>
</mgrwt>
</event>
<event>
 7    1  0.3607059E-009  0.9975078E+02  0.7818608E-02  0.1280821E+00
         -1   -1    0    0    0  501 -0.00000000000E+00  0.00000000000E+00  0.33631986058E+02  0.33631986436E+02  0.50400000000E-02 0.  1.
          1   -1    0    0  501    0  0.00000000000E+00 -0.00000000000E+00 -0.73963946366E+02  0.73963946538E+02  0.50400000000E-02 0. -1.
         23    2    1    2    0    0 -0.35527136788E-14  0.00000000000E+00 -0.40331960308E+02  0.10759593297E+03  0.99750778294E+02 0.  0.
    9000005    2    3    3    0    0  0.31542732458E+02 -0.70364360112E+01  0.19340418063E+02  0.39733954347E+02  0.12660171979E+02 0.  0.
         22    1    3    3    0    0 -0.31542732458E+02  0.70364360112E+01 -0.59672378371E+02  0.67861978627E+02  0.00000000000E+00 0. -1.
         22    1    4    4    0    0  0.20308968622E+02 -0.10989902585E+01  0.57653203096E+01  0.21140030851E+02  0.00000000000E+00 0. -1.
         22    1    4    4    0    0  0.11233763836E+02 -0.59374457527E+01  0.13575097753E+02  0.18593923497E+02  0.00000000000E+00 0. -1.
<mgrwt>
<rscale>  0 0.99750778E+02</rscale>
<asrwt>0</asrwt>
<pdfrwt beam="2">  1        1 0.11379069E-01 0.99750778E+02</pdfrwt>
<pdfrwt beam="1">  1       -1 0.51741518E-02 0.99750778E+02</pdfrwt>
<totfact> 0.77567224E+04</totfact>
</mgrwt>
</event>
<event>
 7    1  0.3607059E-009  0.9146768E+02  0.7818608E-02  0.1299336E+00
         -1   -1    0    0    0  501 -0.00000000000E+00  0.00000000000E+00  0.32146264556E+02  0.32146264951E+02  0.50400000000E-02 0.  1.
          1   -1    0    0  501    0  0.00000000000E+00 -0.00000000000E+00 -0.65064609624E+02  0.65064609820E+02  0.50400000000E-02 0. -1.
         23    2    1    2    0    0  0.22204460493E-15 -0.71054273576E-14 -0.32918345069E+02  0.97210874770E+02  0.91467681350E+02 0.  0.
    9000005    2    3    3    0    0 -0.11235363072E+01 -0.36141599599E+02  0.11411884254E+02  0.40003822869E+02  0.12751360183E+02 0.  0.
         22    1    3    3    0    0  0.11235363072E+01  0.36141599599E+02 -0.44330229323E+02  0.57207051901E+02  0.00000000000E+00 0.  1.
         22    1    4    4    0    0 -0.21360500158E+01 -0.28173170244E+01  0.48867720564E+01  0.60316271451E+01  0.00000000000E+00 0. -1.
         22    1    4    4    0    0  0.10125137086E+01 -0.33324282574E+02  0.65251121978E+01  0.33972195724E+02  0.00000000000E+00 0. -1.
<mgrwt>
<rscale>  0 0.91467681E+02</rscale>
<asrwt>0</asrwt>
<pdfrwt beam="2">  1        1 0.10009940E-01 0.91467681E+02</pdfrwt>
<pdfrwt beam="1">  1       -1 0.49455792E-02 0.91467681E+02</pdfrwt>
<totfact> 0.96709190E+04</totfact>
</mgrwt>
</event>
<event>
 7    1  0.3607059E-009  0.9033043E+02  0.7818608E-02  0.1302053E+00
          1   -1    0    0  501    0  0.00000000000E+00  0.00000000000E+00  0.12200049268E+03  0.12200049279E+03  0.50400000000E-02 0. -1.
         -1   -1    0    0    0  501 -0.00000000000E+00 -0.00000000000E+00 -0.16720395779E+02  0.16720396538E+02  0.50400000000E-02 0.  1.
         23    2    1    2    0    0  0.00000000000E+00 -0.44408920985E-15  0.10528009690E+03  0.13872088933E+03  0.90330428600E+02 0.  0.
    9000005    2    3    3    0    0 -0.33316803228E+02 -0.17250213997E+01  0.98212217256E+02  0.10461898324E+03  0.13656755066E+02 0.  0.
         22    1    3    3    0    0  0.33316803228E+02  0.17250213997E+01  0.70678796484E+01  0.34101906089E+02  0.00000000000E+00 0.  1.
         22    1    4    4    0    0 -0.22767348050E+01 -0.33456619533E+01  0.20981006906E+02  0.21367723933E+02  0.00000000000E+00 0.  1.
         22    1    4    4    0    0 -0.31040068423E+02  0.16206405536E+01  0.77231210350E+02  0.83251259303E+02  0.00000000000E+00 0.  1.
<mgrwt>
<rscale>  0 0.90330429E+02</rscale>
<asrwt>0</asrwt>
<pdfrwt beam="1">  1        1 0.18769307E-01 0.90330429E+02</pdfrwt>
<pdfrwt beam="2">  1       -1 0.25723686E-02 0.90330429E+02</pdfrwt>
<totfact> 0.11081289E+05</totfact>
</mgrwt>
</event>
<event>
 7    1  0.3607059E-009  0.8974463E+02  0.7818608E-02  0.1303471E+00
         -1   -1    0    0    0  501 -0.00000000000E+00  0.00000000000E+00  0.79172182229E+02  0.79172182390E+02  0.50400000000E-02 0. -1.
          1   -1    0    0  501    0  0.00000000000E+00 -0.00000000000E+00 -0.25432220852E+02  0.25432221351E+02  0.50400000000E-02 0.  1.
         23    2    1    2    0    0  0.35527136788E-14  0.00000000000E+00  0.53739961378E+02  0.10460440374E+03  0.89744625650E+02 0.  0.
    9000005    2    3    3    0    0  0.21168468016E+02 -0.91584546195E+01 -0.17790765742E+02  0.29447060444E+02  0.43170237351E+01 0.  0.
         22    1    3    3    0    0 -0.21168468016E+02  0.91584546195E+01  0.71530727120E+02  0.75157343297E+02  0.00000000000E+00 0. -1.
         22    1    4    4    0    0  0.42809873125E+01 -0.70522471579E-01 -0.29894008971E+01  0.52219099487E+01  0.00000000000E+00 0. -1.
         22    1    4    4    0    0  0.16887480703E+02 -0.90879321479E+01 -0.14801364845E+02  0.24225150495E+02  0.00000000000E+00 0. -1.
<mgrwt>
<rscale>  0 0.89744626E+02</rscale>
<asrwt>0</asrwt>
<pdfrwt beam="2">  1        1 0.39126494E-02 0.89744626E+02</pdfrwt>
<pdfrwt beam="1">  1       -1 0.12180336E-01 0.89744626E+02</pdfrwt>
<totfact> 0.88302014E+04</totfact>
</mgrwt>
</event>
<event>
 7    1  0.3607059E-009  0.9144725E+02  0.7818608E-02  0.1299384E+00
          1   -1    0    0  501    0  0.00000000000E+00  0.00000000000E+00  0.38259430110E+03  0.38259430113E+03  0.50400000000E-02 0. -1.
         -1   -1    0    0    0  501 -0.00000000000E+00 -0.00000000000E+00 -0.54644028340E+01  0.54644051583E+01  0.50400000000E-02 0.  1.
         23    2    1    2    0    0  0.00000000000E+00  0.00000000000E+00  0.37712989827E+03  0.38805870629E+03  0.91447249070E+02 0.  0.
    9000005    2    3    3    0    0  0.15100878891E+02 -0.40310299940E+02  0.24887811657E+03  0.25277575713E+03  0.10114823914E+02 0.  0.
         22    1    3    3    0    0 -0.15100878891E+02  0.40310299940E+02  0.12825178170E+03  0.13528294916E+03  0.00000000000E+00 0. -1.
         22    1    4    4    0    0  0.94390921133E+01 -0.34697935966E+02  0.19154955785E+03  0.19489555237E+03  0.00000000000E+00 0.  1.
         22    1    4    4    0    0  0.56617867781E+01 -0.56123639739E+01  0.57328558715E+02  0.57880204761E+02  0.00000000000E+00 0.  1.
<mgrwt>
<rscale>  0 0.91447249E+02</rscale>
<asrwt>0</asrwt>
<pdfrwt beam="1">  1        1 0.58860682E-01 0.91447249E+02</pdfrwt>
<pdfrwt beam="2">  1       -1 0.84067725E-03 0.91447249E+02</pdfrwt>
<totfact> 0.13284341E+05</totfact>
</mgrwt>
</event>
<event>
 7    1  0.3607059E-009  0.9232838E+02  0.7818608E-02  0.1297309E+00
          1   -1    0    0  501    0  0.00000000000E+00  0.00000000000E+00  0.61339648360E+01  0.61339669066E+01  0.50400000000E-02 0. -1.
         -1   -1    0    0    0  501 -0.00000000000E+00 -0.00000000000E+00 -0.34743144928E+03  0.34743144932E+03  0.50400000000E-02 0.  1.
         23    2    1    2    0    0  0.00000000000E+00  0.00000000000E+00 -0.34129748445E+03  0.35356541623E+03  0.92328384917E+02 0.  0.
    9000005    2    3    3    0    0  0.83300209149E+01  0.45247663339E+02 -0.17984798590E+03  0.18568843488E+03  0.42610477979E+01 0.  0.
         22    1    3    3    0    0 -0.83300209149E+01 -0.45247663339E+02 -0.16144949854E+03  0.16787698135E+03  0.00000000000E+00 0.  1.
         22    1    4    4    0    0  0.33744817476E+01  0.19188679895E+02 -0.84714281537E+02  0.86925842299E+02  0.00000000000E+00 0.  1.
         22    1    4    4    0    0  0.49555391673E+01  0.26058983445E+02 -0.95133704367E+02  0.98762592580E+02  0.00000000000E+00 0.  1.
<mgrwt>
<rscale>  0 0.92328385E+02</rscale>
<asrwt>0</asrwt>
<pdfrwt beam="1">  1        1 0.94368733E-03 0.92328385E+02</pdfrwt>
<pdfrwt beam="2">  1       -1 0.53450977E-01 0.92328385E+02</pdfrwt>
<totfact> 0.55130890E+04</totfact>
</mgrwt>
</event>
<event>
 7    1  0.3607059E-009  0.9073365E+02  0.7818608E-02  0.1301085E+00
         -1   -1    0    0    0  501 -0.00000000000E+00  0.00000000000E+00  0.69734235918E+01  0.69734254131E+01  0.50400000000E-02 0.  1.
          1   -1    0    0  501    0  0.00000000000E+00 -0.00000000000E+00 -0.29514177889E+03  0.29514177894E+03  0.50400000000E-02 0. -1.
         23    2    1    2    0    0  0.35527136788E-14 -0.71054273576E-14 -0.28816835530E+03  0.30211520435E+03  0.90733652533E+02 0.  0.
    9000005    2    3    3    0    0 -0.18363614467E+02  0.37186679192E+02 -0.20491913127E+03  0.20910711466E+03  0.37233849770E+01 0.  0.
         22    1    3    3    0    0  0.18363614467E+02 -0.37186679192E+02 -0.83249224028E+02  0.93008089685E+02  0.00000000000E+00 0.  1.
         22    1    4    4    0    0 -0.44325332794E+01  0.81710200889E+01 -0.38747740966E+02  0.39847212582E+02  0.00000000000E+00 0. -1.
         22    1    4    4    0    0 -0.13931081188E+02  0.29015659103E+02 -0.16617139031E+03  0.16925990208E+03  0.00000000000E+00 0. -1.
<mgrwt>
<rscale>  0 0.90733653E+02</rscale>
<asrwt>0</asrwt>
<pdfrwt beam="2">  1        1 0.45406418E-01 0.90733653E+02</pdfrwt>
<pdfrwt beam="1">  1       -1 0.10728348E-02 0.90733653E+02</pdfrwt>
<totfact> 0.12939146E+05</totfact>
</mgrwt>
</event>
<event>
 7    1  0.3607059E-009  0.9179714E+02  0.7818608E-02  0.1298557E+00
          1   -1    0    0  501    0  0.00000000000E+00  0.00000000000E+00  0.39753159300E+02  0.39753159620E+02  0.50400000000E-02 0. -1.
         -1   -1    0    0    0  501 -0.00000000000E+00 -0.00000000000E+00 -0.52993997667E+02  0.52993997906E+02  0.50400000000E-02 0.  1.
         23    2    1    2    0    0  0.00000000000E+00 -0.17763568394E-14 -0.13240838367E+02  0.92747157526E+02  0.91797142813E+02 0.  0.
    9000005    2    3    3    0    0  0.30828408709E+02  0.14097743876E+02 -0.37805199898E+02  0.50883748403E+02  0.32841355373E+01 0.  0.
         22    1    3    3    0    0 -0.30828408709E+02 -0.14097743876E+02  0.24564361532E+02  0.41863409123E+02  0.00000000000E+00 0. -1.
         22    1    4    4    0    0  0.44084091941E+01  0.21506386401E+01 -0.38690674138E+01  0.62473194920E+01  0.00000000000E+00 0. -1.
         22    1    4    4    0    0  0.26419999515E+02  0.11947105236E+02 -0.33936132485E+02  0.44636428911E+02  0.00000000000E+00 0. -1.
<mgrwt>
<rscale>  0 0.91797143E+02</rscale>
<asrwt>0</asrwt>
<pdfrwt beam="1">  1        1 0.61158707E-02 0.91797143E+02</pdfrwt>
<pdfrwt beam="2">  1       -1 0.81529228E-02 0.91797143E+02</pdfrwt>
<totfact> 0.88856914E+04</totfact>
</mgrwt>
</event>
<event>
 7    1  0.3607059E-009  0.9259002E+02  0.7818608E-02  0.1296698E+00
          1   -1    0    0  501    0  0.00000000000E+00  0.00000000000E+00  0.57007309482E+03  0.57007309484E+03  0.50400000000E-02 0. -1.
         -1   -1    0    0    0  501 -0.00000000000E+00 -0.00000000000E+00 -0.37595653092E+01  0.37595686875E+01  0.50400000000E-02 0.  1.
         23    2    1    2    0    0  0.00000000000E+00  0.17763568394E-14  0.56631352951E+03  0.57383266353E+03  0.92590021205E+02 0.  0.
    9000005    2    3    3    0    0  0.39386793299E+02  0.13240216556E+02  0.39746653246E+03  0.39994784178E+03  0.15874788204E+02 0.  0.
         22    1    3    3    0    0 -0.39386793299E+02 -0.13240216556E+02  0.16884699706E+03  0.17388482175E+03  0.00000000000E+00 0. -1.
         22    1    4    4    0    0  0.15925103296E+02  0.13105124268E+02  0.15960869686E+03  0.16093566823E+03  0.00000000000E+00 0. -1.
         22    1    4    4    0    0  0.23461690003E+02  0.13509228819E+00  0.23785783560E+03  0.23901217355E+03  0.00000000000E+00 0. -1.
<mgrwt>
<rscale>  0 0.92590021E+02</rscale>
<asrwt>0</asrwt>
<pdfrwt beam="1">  1        1 0.87703506E-01 0.92590021E+02</pdfrwt>
<pdfrwt beam="2">  1       -1 0.57839524E-03 0.92590021E+02</pdfrwt>
<totfact> 0.13545136E+05</totfact>
</mgrwt>
</event>
<event>
 7    1  0.3607059E-009  0.9209887E+02  0.7818608E-02  0.1297847E+00
         -1   -1    0    0    0  501 -0.00000000000E+00  0.00000000000E+00  0.40078454710E+01  0.40078486400E+01  0.50400000000E-02 0.  1.
          1   -1    0    0  501    0  0.00000000000E+00 -0.00000000000E+00 -0.52909961181E+03  0.52909961183E+03  0.50400000000E-02 0. -1.
         23    2    1    2    0    0  0.00000000000E+00  0.00000000000E+00 -0.52509176634E+03  0.53310746047E+03  0.92098867181E+02 0.  0.
    9000005    2    3    3    0    0 -0.37990946563E+02 -0.16985610807E+02 -0.36795818204E+03  0.37055658748E+03  0.13679831942E+02 0.  0.
         22    1    3    3    0    0  0.37990946563E+02  0.16985610807E+02 -0.15713358430E+03  0.16255087299E+03  0.00000000000E+00 0.  1.
         22    1    4    4    0    0 -0.22276734612E+02 -0.24764947075E+01 -0.18582340749E+03  0.18717030935E+03  0.00000000000E+00 0.  1.
         22    1    4    4    0    0 -0.15714211952E+02 -0.14509116100E+02 -0.18213477455E+03  0.18338627814E+03  0.00000000000E+00 0.  1.
<mgrwt>
<rscale>  0 0.92098867E+02</rscale>
<asrwt>0</asrwt>
<pdfrwt beam="2">  1        1 0.81399885E-01 0.92098867E+02</pdfrwt>
<pdfrwt beam="1">  1       -1 0.61659227E-03 0.92098867E+02</pdfrwt>
<totfact> 0.13644798E+05</totfact>
</mgrwt>
</event>
<event>
 7    1  0.3607059E-009  0.8905155E+02  0.7818608E-02  0.1305165E+00
         -1   -1    0    0    0  501 -0.00000000000E+00  0.00000000000E+00  0.19563090215E+03  0.19563090222E+03  0.50400000000E-02 0.  1.
          1   -1    0    0  501    0  0.00000000000E+00 -0.00000000000E+00 -0.10134107817E+02  0.10134109071E+02  0.50400000000E-02 0. -1.
         23    2    1    2    0    0  0.00000000000E+00  0.00000000000E+00  0.18549679434E+03  0.20576501129E+03  0.89051553393E+02 0.  0.
    9000005    2    3    3    0    0  0.31490280339E+02 -0.23340924742E+02  0.13747849970E+03  0.14377958443E+03  0.15355601394E+02 0.  0.
         22    1    3    3    0    0 -0.31490280339E+02  0.23340924742E+02  0.48018294634E+02  0.61985426861E+02  0.00000000000E+00 0. -1.
         22    1    4    4    0    0  0.15962747489E+02 -0.25774361093E+01  0.53299626389E+02  0.55698318264E+02  0.00000000000E+00 0.  1.
         22    1    4    4    0    0  0.15527532850E+02 -0.20763488633E+02  0.84178873314E+02  0.88081266164E+02  0.00000000000E+00 0.  1.
<mgrwt>
<rscale>  0 0.89051553E+02</rscale>
<asrwt>0</asrwt>
<pdfrwt beam="2">  1        1 0.15590935E-02 0.89051553E+02</pdfrwt>
<pdfrwt beam="1">  1       -1 0.30097065E-01 0.89051553E+02</pdfrwt>
<totfact> 0.74281198E+04</totfact>
</mgrwt>
</event>
<event>
 7    1  0.3607059E-009  0.9209836E+02  0.7818608E-02  0.1297848E+00
          1   -1    0    0  501    0  0.00000000000E+00  0.00000000000E+00  0.66414748568E+03  0.66414748569E+03  0.50400000000E-02 0. -1.
         -1   -1    0    0    0  501 -0.00000000000E+00 -0.00000000000E+00 -0.31928536307E+01  0.31928576086E+01  0.50400000000E-02 0.  1.
         23    2    1    2    0    0  0.00000000000E+00  0.35527136788E-14  0.66095463204E+03  0.66734034330E+03  0.92098361433E+02 0.  0.
    9000005    2    3    3    0    0  0.19321399844E+02  0.24784830563E+02  0.57256398146E+03  0.57352930222E+03  0.10896941040E+02 0.  0.
         22    1    3    3    0    0 -0.19321399844E+02 -0.24784830563E+02  0.88390650588E+02  0.93811041084E+02  0.00000000000E+00 0.  1.
         22    1    4    4    0    0  0.19522860750E+02  0.22602587106E+02  0.47345626647E+03  0.47439736013E+03  0.00000000000E+00 0. -1.
         22    1    4    4    0    0 -0.20146090589E+00  0.21822434573E+01  0.99107714988E+02  0.99131942094E+02  0.00000000000E+00 0. -1.
<mgrwt>
<rscale>  0 0.92098361E+02</rscale>
<asrwt>0</asrwt>
<pdfrwt beam="1">  1        1 0.10217649E+00 0.92098361E+02</pdfrwt>
<pdfrwt beam="2">  1       -1 0.49120878E-03 0.92098361E+02</pdfrwt>
<totfact> 0.13841276E+05</totfact>
</mgrwt>
</event>
<event>
 7    1  0.3607059E-009  0.9232031E+02  0.7818608E-02  0.1297328E+00
          1   -1    0    0  501    0  0.00000000000E+00  0.00000000000E+00  0.40574035027E+02  0.40574035340E+02  0.50400000000E-02 0. -1.
         -1   -1    0    0    0  501 -0.00000000000E+00 -0.00000000000E+00 -0.52515354011E+02  0.52515354253E+02  0.50400000000E-02 0.  1.
         23    2    1    2    0    0  0.00000000000E+00  0.00000000000E+00 -0.11941318984E+02  0.93089389594E+02  0.92320308469E+02 0.  0.
    9000005    2    3    3    0    0  0.11200410291E+02  0.42814175076E+02  0.50451558415E+01  0.45686403347E+02  0.10163221695E+02 0.  0.
         22    1    3    3    0    0 -0.11200410291E+02 -0.42814175076E+02 -0.16986474826E+02  0.47402986247E+02  0.00000000000E+00 0.  1.
         22    1    4    4    0    0  0.98156728285E+01  0.27694112151E+02  0.74546073354E+01  0.30313073936E+02  0.00000000000E+00 0. -1.
         22    1    4    4    0    0  0.13847374626E+01  0.15120062925E+02 -0.24094514938E+01  0.15373329412E+02  0.00000000000E+00 0. -1.
<mgrwt>
<rscale>  0 0.92320308E+02</rscale>
<asrwt>0</asrwt>
<pdfrwt beam="1">  1        1 0.62421593E-02 0.92320308E+02</pdfrwt>
<pdfrwt beam="2">  1       -1 0.80792853E-02 0.92320308E+02</pdfrwt>
<totfact> 0.87712865E+04</totfact>
</mgrwt>
</event>
<event>
 7    1  0.3607059E-009  0.9122355E+02  0.7818608E-02  0.1299915E+00
         -1   -1    0    0    0  501 -0.00000000000E+00  0.00000000000E+00  0.21687197051E+02  0.21687197637E+02  0.50400000000E-02 0.  1.
          1   -1    0    0  501    0  0.00000000000E+00 -0.00000000000E+00 -0.95929123306E+02  0.95929123438E+02  0.50400000000E-02 0. -1.
         23    2    1    2    0    0  0.00000000000E+00  0.00000000000E+00 -0.74241926255E+02  0.11761632108E+03  0.91223546134E+02 0.  0.
    9000005    2    3    3    0    0  0.18147962851E+02  0.28556225724E+01  0.14512158298E+02  0.26980838726E+02  0.13411181305E+02 0.  0.
         22    1    3    3    0    0 -0.18147962851E+02 -0.28556225724E+01 -0.88754084552E+02  0.90635482349E+02  0.00000000000E+00 0. -1.
         22    1    4    4    0    0  0.18955032485E+01  0.37902167135E+00  0.96430268933E+01  0.98348643945E+01  0.00000000000E+00 0.  1.
         22    1    4    4    0    0  0.16252459602E+02  0.24766009010E+01  0.48691314044E+01  0.17145974332E+02  0.00000000000E+00 0.  1.
<mgrwt>
<rscale>  0 0.91223546E+02</rscale>
<asrwt>0</asrwt>
<pdfrwt beam="2">  1        1 0.14758326E-01 0.91223546E+02</pdfrwt>
<pdfrwt beam="1">  1       -1 0.33364920E-02 0.91223546E+02</pdfrwt>
<totfact> 0.10359101E+05</totfact>
</mgrwt>
</event>
<event>
 7    1  0.3607059E-009  0.8432857E+02  0.7818608E-02  0.1317198E+00
         -1   -1    0    0    0  501 -0.00000000000E+00  0.00000000000E+00  0.63547384528E+01  0.63547404514E+01  0.50400000000E-02 0.  1.
          1   -1    0    0  501    0  0.00000000000E+00 -0.00000000000E+00 -0.27976395439E+03  0.27976395443E+03  0.50400000000E-02 0. -1.
         23    2    1    2    0    0  0.00000000000E+00  0.17763568394E-14 -0.27340921594E+03  0.28611869489E+03  0.84328572882E+02 0.  0.
    9000005    2    3    3    0    0 -0.34356230317E+02  0.11794044436E+02 -0.20877426852E+03  0.21197608586E+03  0.52645735601E+01 0.  0.
         22    1    3    3    0    0  0.34356230317E+02 -0.11794044436E+02 -0.64634947421E+02  0.74142609030E+02  0.00000000000E+00 0.  1.
         22    1    4    4    0    0 -0.12691228860E+02  0.49738837097E+01 -0.64472339726E+02  0.65897567473E+02  0.00000000000E+00 0. -1.
         22    1    4    4    0    0 -0.21665001456E+02  0.68201607260E+01 -0.14430192879E+03  0.14607851838E+03  0.00000000000E+00 0. -1.
<mgrwt>
<rscale>  0 0.84328573E+02</rscale>
<asrwt>0</asrwt>
<pdfrwt beam="2">  1        1 0.43040599E-01 0.84328573E+02</pdfrwt>
<pdfrwt beam="1">  1       -1 0.97765244E-03 0.84328573E+02</pdfrwt>
<totfact> 0.15553224E+05</totfact>
</mgrwt>
</event>
<event>
 7    1  0.3607059E-009  0.9484059E+02  0.7818608E-02  0.1291536E+00
         -1   -1    0    0    0  501 -0.00000000000E+00  0.00000000000E+00  0.11090760129E+03  0.11090760140E+03  0.50400000000E-02 0.  1.
          1   -1    0    0  501    0  0.00000000000E+00 -0.00000000000E+00 -0.20275296856E+02  0.20275297482E+02  0.50400000000E-02 0. -1.
         23    2    1    2    0    0  0.00000000000E+00  0.17763568394E-14  0.90632304434E+02  0.13118289889E+03  0.94840594437E+02 0.  0.
    9000005    2    3    3    0    0  0.19072021921E+02  0.15607497071E+02  0.10126443146E+03  0.10434303842E+03  0.50644449736E+01 0.  0.
         22    1    3    3    0    0 -0.19072021921E+02 -0.15607497071E+02 -0.10632127023E+02  0.26839860469E+02  0.00000000000E+00 0. -1.
         22    1    4    4    0    0  0.15457367710E+02  0.12463335313E+02  0.88722663272E+02  0.90917412643E+02  0.00000000000E+00 0.  1.
         22    1    4    4    0    0  0.36146542106E+01  0.31441617582E+01  0.12541768186E+02  0.13425625775E+02  0.00000000000E+00 0.  1.
<mgrwt>
<rscale>  0 0.94840594E+02</rscale>
<asrwt>0</asrwt>
<pdfrwt beam="2">  1        1 0.31192766E-02 0.94840594E+02</pdfrwt>
<pdfrwt beam="1">  1       -1 0.17062708E-01 0.94840594E+02</pdfrwt>
<totfact> 0.72053595E+04</totfact>
</mgrwt>
</event>
<event>
 7    1  0.3607059E-009  0.9108390E+02  0.7818608E-02  0.1300248E+00
         -1   -1    0    0    0  501 -0.00000000000E+00  0.00000000000E+00  0.20789530872E+03  0.20789530878E+03  0.50400000000E-02 0.  1.
          1   -1    0    0  501    0  0.00000000000E+00 -0.00000000000E+00 -0.99765074392E+01  0.99765087123E+01  0.50400000000E-02 0. -1.
         23    2    1    2    0    0  0.00000000000E+00  0.00000000000E+00  0.19791880128E+03  0.21787181749E+03  0.91083900648E+02 0.  0.
    9000005    2    3    3    0    0  0.21895078145E+02 -0.20550199833E+02  0.20973946353E+02  0.38397064825E+02  0.11520546923E+02 0.  0.
         22    1    3    3    0    0 -0.21895078145E+02  0.20550199833E+02  0.17694485492E+03  0.17947475267E+03  0.00000000000E+00 0.  1.
         22    1    4    4    0    0  0.16608320871E+02 -0.15366046765E+02  0.21175983937E+02  0.30989901759E+02  0.00000000000E+00 0.  1.
         22    1    4    4    0    0  0.52867572733E+01 -0.51841530679E+01 -0.20203758329E+00  0.74071630658E+01  0.00000000000E+00 0.  1.
<mgrwt>
<rscale>  0 0.91083901E+02</rscale>
<asrwt>0</asrwt>
<pdfrwt beam="2">  1        1 0.15348475E-02 0.91083901E+02</pdfrwt>
<pdfrwt beam="1">  1       -1 0.31983891E-01 0.91083901E+02</pdfrwt>
<totfact> 0.68831931E+04</totfact>
</mgrwt>
</event>
<event>
 7    1  0.3607059E-009  0.9230713E+02  0.7818608E-02  0.1297359E+00
          1   -1    0    0  501    0  0.00000000000E+00  0.00000000000E+00  0.26640407741E+03  0.26640407745E+03  0.50400000000E-02 0. -1.
         -1   -1    0    0    0  501 -0.00000000000E+00 -0.00000000000E+00 -0.79959405321E+01  0.79959421205E+01  0.50400000000E-02 0.  1.
         23    2    1    2    0    0  0.00000000000E+00  0.00000000000E+00  0.25840813687E+03  0.27440001957E+03  0.92307126159E+02 0.  0.
    9000005    2    3    3    0    0  0.66570108507E+01  0.43650200085E+02  0.10846346261E+03  0.11808923587E+03  0.15201616587E+02 0.  0.
         22    1    3    3    0    0 -0.66570108507E+01 -0.43650200085E+02  0.14994467427E+03  0.15631078370E+03  0.00000000000E+00 0. -1.
         22    1    4    4    0    0 -0.99982330849E-01  0.37096147125E+02  0.90521303791E+02  0.97827606370E+02  0.00000000000E+00 0. -1.
         22    1    4    4    0    0  0.67569931815E+01  0.65540529606E+01  0.17942158817E+02  0.20261629502E+02  0.00000000000E+00 0. -1.
<mgrwt>
<rscale>  0 0.92307126E+02</rscale>
<asrwt>0</asrwt>
<pdfrwt beam="1">  1        1 0.40985240E-01 0.92307126E+02</pdfrwt>
<pdfrwt beam="2">  1       -1 0.12301449E-02 0.92307126E+02</pdfrwt>
<totfact> 0.12115861E+05</totfact>
</mgrwt>
</event>
<event>
 7    1  0.3607059E-009  0.9052152E+02  0.7818608E-02  0.1301594E+00
          1   -1    0    0  501    0  0.00000000000E+00  0.00000000000E+00  0.28622710283E+03  0.28622710287E+03  0.50400000000E-02 0. -1.
         -1   -1    0    0    0  501 -0.00000000000E+00 -0.00000000000E+00 -0.71570301683E+01  0.71570319429E+01  0.50400000000E-02 0.  1.
         23    2    1    2    0    0  0.00000000000E+00  0.00000000000E+00  0.27907007266E+03  0.29338413481E+03  0.90521517370E+02 0.  0.
    9000005    2    3    3    0    0 -0.90993175112E+01 -0.41560518308E+02  0.96220458082E+02  0.10565013200E+03  0.96695179392E+01 0.  0.
         22    1    3    3    0    0  0.90993175112E+01  0.41560518308E+02  0.18284961457E+03  0.18773400281E+03  0.00000000000E+00 0. -1.
         22    1    4    4    0    0 -0.64891952202E+01 -0.13147551239E+02  0.25908245848E+02  0.29769194835E+02  0.00000000000E+00 0. -1.
         22    1    4    4    0    0 -0.26101222910E+01 -0.28412967070E+02  0.70312212234E+02  0.75880937166E+02  0.00000000000E+00 0. -1.
<mgrwt>
<rscale>  0 0.90521517E+02</rscale>
<asrwt>0</asrwt>
<pdfrwt beam="1">  1        1 0.44034931E-01 0.90521517E+02</pdfrwt>
<pdfrwt beam="2">  1       -1 0.11010819E-02 0.90521517E+02</pdfrwt>
<totfact> 0.12943577E+05</totfact>
</mgrwt>
</event>
<event>
 7    1  0.3607059E-009  0.9133475E+02  0.7818608E-02  0.1299651E+00
          1   -1    0    0  501    0  0.00000000000E+00  0.00000000000E+00  0.73300783497E+03  0.73300783499E+03  0.50400000000E-02 0. -1.
         -1   -1    0    0    0  501 -0.00000000000E+00 -0.00000000000E+00 -0.28451368648E+01  0.28451413288E+01  0.50400000000E-02 0.  1.
         23    2    1    2    0    0  0.00000000000E+00  0.00000000000E+00  0.73016269810E+03  0.73585297631E+03  0.91334752690E+02 0.  0.
    9000005    2    3    3    0    0 -0.28704492649E+02  0.17203916030E+02  0.61530505749E+03  0.61621936802E+03  0.24643725310E+01 0.  0.
         22    1    3    3    0    0  0.28704492649E+02 -0.17203916030E+02  0.11485764062E+03  0.11963360829E+03  0.00000000000E+00 0.  1.
         22    1    4    4    0    0 -0.15490023191E+02  0.78594794149E+01  0.32134432351E+03  0.32181343428E+03  0.00000000000E+00 0.  1.
         22    1    4    4    0    0 -0.13214469457E+02  0.93444366146E+01  0.29396073398E+03  0.29440593374E+03  0.00000000000E+00 0.  1.
<mgrwt>
<rscale>  0 0.91334753E+02</rscale>
<asrwt>0</asrwt>
<pdfrwt beam="1">  1        1 0.11277057E+00 0.91334753E+02</pdfrwt>
<pdfrwt beam="2">  1       -1 0.43771320E-03 0.91334753E+02</pdfrwt>
<totfact> 0.14138818E+05</totfact>
</mgrwt>
</event>
<event>
 7    1  0.3607059E-009  0.8881440E+02  0.7818608E-02  0.1305748E+00
          1   -1    0    0  501    0  0.00000000000E+00  0.00000000000E+00  0.80818266816E+03  0.80818266818E+03  0.50400000000E-02 0. -1.
         -1   -1    0    0    0  501 -0.00000000000E+00 -0.00000000000E+00 -0.24400388402E+01  0.24400440454E+01  0.50400000000E-02 0.  1.
         23    2    1    2    0    0  0.00000000000E+00  0.00000000000E+00  0.80574262932E+03  0.81062271222E+03  0.88814395598E+02 0.  0.
    9000005    2    3    3    0    0 -0.64849291352E+01  0.27370403879E+02  0.71621256528E+03  0.71677802307E+03  0.43706270486E+01 0.  0.
         22    1    3    3    0    0  0.64849291352E+01 -0.27370403879E+02  0.89530064041E+02  0.93844689149E+02  0.00000000000E+00 0.  1.
         22    1    4    4    0    0 -0.82101323460E+00  0.65826803510E+01  0.21560205669E+03  0.21570408571E+03  0.00000000000E+00 0.  1.
         22    1    4    4    0    0 -0.56639159006E+01  0.20787723528E+02  0.50061050859E+03  0.50107393736E+03  0.00000000000E+00 0.  1.
<mgrwt>
<rscale>  0 0.88814396E+02</rscale>
<asrwt>0</asrwt>
<pdfrwt beam="1">  1        1 0.12433600E+00 0.88814396E+02</pdfrwt>
<pdfrwt beam="2">  1       -1 0.37539038E-03 0.88814396E+02</pdfrwt>
<totfact> 0.15130031E+05</totfact>
</mgrwt>
</event>
<event>
 7    1  0.3607059E-009  0.9198216E+02  0.7818608E-02  0.1298121E+00
         -1   -1    0    0    0  501 -0.00000000000E+00  0.00000000000E+00  0.44888096188E+01  0.44888124482E+01  0.50400000000E-02 0.  1.
          1   -1    0    0  501    0  0.00000000000E+00 -0.00000000000E+00 -0.47121155802E+03  0.47121155805E+03  0.50400000000E-02 0. -1.
         23    2    1    2    0    0  0.00000000000E+00  0.71054273576E-14 -0.46672274840E+03  0.47570037050E+03  0.91982164652E+02 0.  0.
    9000005    2    3    3    0    0  0.83663341406E+01 -0.40255375236E+02 -0.33409936131E+03  0.33684989845E+03  0.12449099529E+02 0.  0.
         22    1    3    3    0    0 -0.83663341406E+01  0.40255375236E+02 -0.13262338710E+03  0.13885047205E+03  0.00000000000E+00 0.  1.
         22    1    4    4    0    0  0.43989337370E+01 -0.14331691076E+02 -0.17095824543E+03  0.17161430497E+03  0.00000000000E+00 0. -1.
         22    1    4    4    0    0  0.39674004036E+01 -0.25923684159E+02 -0.16314111587E+03  0.16523559349E+03  0.00000000000E+00 0. -1.
<mgrwt>
<rscale>  0 0.91982165E+02</rscale>
<asrwt>0</asrwt>
<pdfrwt beam="2">  1        1 0.72494047E-01 0.91982165E+02</pdfrwt>
<pdfrwt beam="1">  1       -1 0.69058669E-03 0.91982165E+02</pdfrwt>
<totfact> 0.13504394E+05</totfact>
</mgrwt>
</event>
<event>
 7    1  0.3694413E-009  0.9995539E+02  0.7818608E-02  0.1280390E+00
         -1   -1    0    0    0  501 -0.00000000000E+00  0.00000000000E+00  0.30533355020E+01  0.30533396617E+01  0.50400000000E-02 0.  1.
          1   -1    0    0  501    0  0.00000000000E+00 -0.00000000000E+00 -0.81804571983E+03  0.81804571984E+03  0.50400000000E-02 0. -1.
         23    2    1    2    0    0  0.00000000000E+00  0.35527136788E-14 -0.81499238433E+03  0.82109905950E+03  0.99955385103E+02 0.  0.
    9000005    2    3    3    0    0 -0.38627686852E+02 -0.23026683758E+02 -0.57533352469E+03  0.57725752211E+03  0.13973397795E+02 0.  0.
         22    1    3    3    0    0  0.38627686852E+02  0.23026683758E+02 -0.23965885964E+03  0.24384153739E+03  0.00000000000E+00 0.  1.
         22    1    4    4    0    0 -0.19787271999E+01 -0.66362744092E+01 -0.78979881001E+02  0.79282892873E+02  0.00000000000E+00 0.  1.
         22    1    4    4    0    0 -0.36648959652E+02 -0.16390409348E+02 -0.49635364369E+03  0.49797462924E+03  0.00000000000E+00 0.  1.
<mgrwt>
<rscale>  0 0.99955385E+02</rscale>
<asrwt>0</asrwt>
<pdfrwt beam="2">  1        1 0.12585301E+00 0.99955385E+02</pdfrwt>
<pdfrwt beam="1">  1       -1 0.46974490E-03 0.99955385E+02</pdfrwt>
<totfact> 0.11046144E+05</totfact>
</mgrwt>
</event>
<event>
 7    1  0.3607059E-009  0.9001280E+02  0.7818608E-02  0.1302821E+00
          1   -1    0    0  501    0  0.00000000000E+00  0.00000000000E+00  0.45093517328E+02  0.45093517609E+02  0.50400000000E-02 0. -1.
         -1   -1    0    0    0  501 -0.00000000000E+00 -0.00000000000E+00 -0.44919453407E+02  0.44919453690E+02  0.50400000000E-02 0.  1.
         23    2    1    2    0    0  0.00000000000E+00 -0.35527136788E-14  0.17406392097E+00  0.90012971299E+02  0.90012802999E+02 0.  0.
    9000005    2    3    3    0    0 -0.27438609709E+02  0.28427159266E+02 -0.19768895316E+02  0.45755742400E+02  0.11907898800E+02 0.  0.
         22    1    3    3    0    0  0.27438609709E+02 -0.28427159266E+02  0.19942959237E+02  0.44257228899E+02  0.00000000000E+00 0. -1.
         22    1    4    4    0    0 -0.42791328768E+01  0.71987390951E+01 -0.95885704591E+01  0.12730809330E+02  0.00000000000E+00 0. -1.
         22    1    4    4    0    0 -0.23159476832E+02  0.21228420171E+02 -0.10180324857E+02  0.33024933070E+02  0.00000000000E+00 0. -1.
<mgrwt>
<rscale>  0 0.90012803E+02</rscale>
<asrwt>0</asrwt>
<pdfrwt beam="1">  1        1 0.69374642E-02 0.90012803E+02</pdfrwt>
<pdfrwt beam="2">  1       -1 0.69106852E-02 0.90012803E+02</pdfrwt>
<totfact> 0.95706502E+04</totfact>
</mgrwt>
</event>
<event>
 7    1  0.3607059E-009  0.9008687E+02  0.7818608E-02  0.1302641E+00
          1   -1    0    0  501    0  0.00000000000E+00  0.00000000000E+00  0.60176794165E+01  0.60176815270E+01  0.50400000000E-02 0. -1.
         -1   -1    0    0    0  501 -0.00000000000E+00 -0.00000000000E+00 -0.33715829575E+03  0.33715829579E+03  0.50400000000E-02 0.  1.
         23    2    1    2    0    0  0.00000000000E+00  0.00000000000E+00 -0.33114061634E+03  0.34317597732E+03  0.90086867080E+02 0.  0.
    9000005    2    3    3    0    0 -0.33635246942E+02 -0.84247410943E+01 -0.27189636083E+03  0.27453059939E+03  0.15398469842E+02 0.  0.
         22    1    3    3    0    0  0.33635246942E+02  0.84247410943E+01 -0.59244255509E+02  0.68645377923E+02  0.00000000000E+00 0. -1.
         22    1    4    4    0    0 -0.29500030896E+02 -0.40571859466E+01 -0.25176720454E+03  0.25352206582E+03  0.00000000000E+00 0.  1.
         22    1    4    4    0    0 -0.41352160462E+01 -0.43675551476E+01 -0.20129156292E+02  0.21008533570E+02  0.00000000000E+00 0.  1.
<mgrwt>
<rscale>  0 0.90086867E+02</rscale>
<asrwt>0</asrwt>
<pdfrwt beam="1">  1        1 0.92579726E-03 0.90086867E+02</pdfrwt>
<pdfrwt beam="2">  1       -1 0.51870492E-01 0.90086867E+02</pdfrwt>
<totfact> 0.59575385E+04</totfact>
</mgrwt>
</event>
<event>
 7    1  0.3607059E-009  0.9040166E+02  0.7818608E-02  0.1301882E+00
          1   -1    0    0  501    0  0.00000000000E+00  0.00000000000E+00  0.10348720263E+03  0.10348720276E+03  0.50400000000E-02 0. -1.
         -1   -1    0    0    0  501 -0.00000000000E+00 -0.00000000000E+00 -0.19742684284E+02  0.19742684927E+02  0.50400000000E-02 0.  1.
         23    2    1    2    0    0  0.00000000000E+00  0.00000000000E+00  0.83744518351E+02  0.12322988768E+03  0.90401664061E+02 0.  0.
    9000005    2    3    3    0    0 -0.83847425534E+01 -0.38576024373E+02  0.14826308616E+02  0.43806130552E+02  0.11863561128E+02 0.  0.
         22    1    3    3    0    0  0.83847425534E+01  0.38576024373E+02  0.68918209735E+02  0.79423757133E+02  0.00000000000E+00 0. -1.
         22    1    4    4    0    0 -0.64068914015E+00 -0.14832953468E+02  0.16733991522E+00  0.14847726890E+02  0.00000000000E+00 0.  1.
         22    1    4    4    0    0 -0.77440534133E+01 -0.23743070905E+02  0.14658968701E+02  0.28958403661E+02  0.00000000000E+00 0.  1.
<mgrwt>
<rscale>  0 0.90401664E+02</rscale>
<asrwt>0</asrwt>
<pdfrwt beam="1">  1        1 0.15921108E-01 0.90401664E+02</pdfrwt>
<pdfrwt beam="2">  1       -1 0.30373361E-02 0.90401664E+02</pdfrwt>
<totfact> 0.10751971E+05</totfact>
</mgrwt>
</event>
<event>
 7    1  0.3607059E-009  0.9120678E+02  0.7818608E-02  0.1299955E+00
         -1   -1    0    0    0  501 -0.00000000000E+00  0.00000000000E+00  0.14308952745E+02  0.14308953633E+02  0.50400000000E-02 0.  1.
          1   -1    0    0  501    0  0.00000000000E+00 -0.00000000000E+00 -0.14534042640E+03  0.14534042649E+03  0.50400000000E-02 0. -1.
         23    2    1    2    0    0  0.35527136788E-14  0.35527136788E-14 -0.13103147366E+03  0.15964938012E+03  0.91206784203E+02 0.  0.
    9000005    2    3    3    0    0 -0.28717475586E+02  0.29769177802E+02 -0.33691786988E+02  0.53885908395E+02  0.75932379136E+01 0.  0.
         22    1    3    3    0    0  0.28717475586E+02 -0.29769177802E+02 -0.97339686670E+02  0.10576347173E+03  0.00000000000E+00 0. -1.
         22    1    4    4    0    0 -0.84563513820E+01  0.10739780609E+02 -0.70354718202E+01  0.15373699293E+02  0.00000000000E+00 0.  1.
         22    1    4    4    0    0 -0.20261124204E+02  0.19029397193E+02 -0.26656315168E+02  0.38512209102E+02  0.00000000000E+00 0.  1.
<mgrwt>
<rscale>  0 0.91206784E+02</rscale>
<asrwt>0</asrwt>
<pdfrwt beam="2">  1        1 0.22360065E-01 0.91206784E+02</pdfrwt>
<pdfrwt beam="1">  1       -1 0.22013775E-02 0.91206784E+02</pdfrwt>
<totfact> 0.11138738E+05</totfact>
</mgrwt>
</event>
<event>
 7    1  0.3607059E-009  0.9146767E+02  0.7818608E-02  0.1299336E+00
          1   -1    0    0  501    0  0.00000000000E+00  0.00000000000E+00  0.20599740400E+03  0.20599740407E+03  0.50400000000E-02 0. -1.
         -1   -1    0    0    0  501 -0.00000000000E+00 -0.00000000000E+00 -0.10153446995E+02  0.10153448246E+02  0.50400000000E-02 0.  1.
         23    2    1    2    0    0 -0.71054273576E-14  0.00000000000E+00  0.19584395701E+03  0.21615085231E+03  0.91467674388E+02 0.  0.
    9000005    2    3    3    0    0 -0.42400861560E+02  0.26503194935E+01  0.13686827800E+03  0.14346668644E+03  0.67012938774E+01 0.  0.
         22    1    3    3    0    0  0.42400861560E+02 -0.26503194935E+01  0.58975679005E+02  0.72684165872E+02  0.00000000000E+00 0.  1.
         22    1    4    4    0    0 -0.73880061005E+01  0.30502914151E+01  0.25093426384E+02  0.26335659467E+02  0.00000000000E+00 0.  1.
         22    1    4    4    0    0 -0.35012855459E+02 -0.39997192166E+00  0.11177485162E+03  0.11713102697E+03  0.00000000000E+00 0.  1.
<mgrwt>
<rscale>  0 0.91467674E+02</rscale>
<asrwt>0</asrwt>
<pdfrwt beam="1">  1        1 0.31691910E-01 0.91467674E+02</pdfrwt>
<pdfrwt beam="2">  1       -1 0.15620688E-02 0.91467674E+02</pdfrwt>
<totfact> 0.11807416E+05</totfact>
</mgrwt>
</event>
<event>
 7    1  0.3607059E-009  0.9218368E+02  0.7818608E-02  0.1297648E+00
         -1   -1    0    0    0  501 -0.00000000000E+00  0.00000000000E+00  0.20346725704E+03  0.20346725710E+03  0.50400000000E-02 0.  1.
          1   -1    0    0  501    0  0.00000000000E+00 -0.00000000000E+00 -0.10441275129E+02  0.10441276345E+02  0.50400000000E-02 0. -1.
         23    2    1    2    0    0  0.00000000000E+00  0.00000000000E+00  0.19302598191E+03  0.21390853344E+03  0.92183680707E+02 0.  0.
    9000005    2    3    3    0    0 -0.25104883403E+02  0.10144401275E+02  0.18212273840E+03  0.18471872757E+03  0.14803797629E+02 0.  0.
         22    1    3    3    0    0  0.25104883403E+02 -0.10144401275E+02  0.10903243503E+02  0.29189805871E+02  0.00000000000E+00 0. -1.
         22    1    4    4    0    0 -0.13114565904E+02 -0.19904203158E+01  0.63056956153E+02  0.64437049367E+02  0.00000000000E+00 0.  1.
         22    1    4    4    0    0 -0.11990317499E+02  0.12134821591E+02  0.11906578225E+03  0.12028167820E+03  0.00000000000E+00 0.  1.
<mgrwt>
<rscale>  0 0.92183681E+02</rscale>
<asrwt>0</asrwt>
<pdfrwt beam="2">  1        1 0.16063501E-02 0.92183681E+02</pdfrwt>
<pdfrwt beam="1">  1       -1 0.31302656E-01 0.92183681E+02</pdfrwt>
<totfact> 0.67130674E+04</totfact>
</mgrwt>
</event>
<event>
 7    1  0.3607059E-009  0.9046245E+02  0.7818608E-02  0.1301736E+00
          1   -1    0    0  501    0  0.00000000000E+00  0.00000000000E+00  0.17446480930E+03  0.17446480937E+03  0.50400000000E-02 0. -1.
         -1   -1    0    0    0  501 -0.00000000000E+00 -0.00000000000E+00 -0.11726511411E+02  0.11726512495E+02  0.50400000000E-02 0.  1.
         23    2    1    2    0    0 -0.35527136788E-14 -0.17763568394E-14  0.16273829789E+03  0.18619132187E+03  0.90462449331E+02 0.  0.
    9000005    2    3    3    0    0  0.26536448041E+02  0.12099985344E+02  0.14827621420E+02  0.35432703761E+02  0.13602404894E+02 0.  0.
         22    1    3    3    0    0 -0.26536448041E+02 -0.12099985344E+02  0.14791067647E+03  0.15075861811E+03  0.00000000000E+00 0. -1.
         22    1    4    4    0    0  0.85251175735E+01 -0.22873260879E+01  0.63400885692E+01  0.10867668257E+02  0.00000000000E+00 0. -1.
         22    1    4    4    0    0  0.18011330467E+02  0.14387311431E+02  0.84875328506E+01  0.24565035504E+02  0.00000000000E+00 0. -1.
<mgrwt>
<rscale>  0 0.90462449E+02</rscale>
<asrwt>0</asrwt>
<pdfrwt beam="1">  1        1 0.26840740E-01 0.90462449E+02</pdfrwt>
<pdfrwt beam="2">  1       -1 0.18040788E-02 0.90462449E+02</pdfrwt>
<totfact> 0.11780156E+05</totfact>
</mgrwt>
</event>
<event>
 7    1  0.3607059E-009  0.9086566E+02  0.7818608E-02  0.1300769E+00
         -1   -1    0    0    0  501 -0.00000000000E+00  0.00000000000E+00  0.13962611685E+02  0.13962612594E+02  0.50400000000E-02 0.  1.
          1   -1    0    0  501    0  0.00000000000E+00 -0.00000000000E+00 -0.14783351750E+03  0.14783351759E+03  0.50400000000E-02 0. -1.
         23    2    1    2    0    0 -0.35527136788E-14  0.00000000000E+00 -0.13387090581E+03  0.16179613018E+03  0.90865660827E+02 0.  0.
    9000005    2    3    3    0    0  0.28839969286E+02  0.18585868109E+02 -0.19748405001E+02  0.42627663236E+02  0.15809486111E+02 0.  0.
         22    1    3    3    0    0 -0.28839969286E+02 -0.18585868109E+02 -0.11412250081E+03  0.11916846694E+03  0.00000000000E+00 0. -1.
         22    1    4    4    0    0  0.53822752329E+01 -0.26730050233E+01 -0.19957341572E+01  0.63322031998E+01  0.00000000000E+00 0.  1.
         22    1    4    4    0    0  0.23457694053E+02  0.21258873133E+02 -0.17752670844E+02  0.36295460036E+02  0.00000000000E+00 0.  1.
<mgrwt>
<rscale>  0 0.90865661E+02</rscale>
<asrwt>0</asrwt>
<pdfrwt beam="2">  1        1 0.22743617E-01 0.90865661E+02</pdfrwt>
<pdfrwt beam="1">  1       -1 0.21480943E-02 0.90865661E+02</pdfrwt>
<totfact> 0.11286994E+05</totfact>
</mgrwt>
</event>
<event>
 7    1  0.3607059E-009  0.7388473E+02  0.7818608E-02  0.1347360E+00
          1   -1    0    0  501    0  0.00000000000E+00  0.00000000000E+00  0.61374476035E+02  0.61374476242E+02  0.50400000000E-02 0. -1.
         -1   -1    0    0    0  501 -0.00000000000E+00 -0.00000000000E+00 -0.22236253024E+02  0.22236253595E+02  0.50400000000E-02 0.  1.
         23    2    1    2    0    0  0.71054273576E-14 -0.44408920985E-15  0.39138223011E+02  0.83610729838E+02  0.73884732141E+02 0.  0.
    9000005    2    3    3    0    0 -0.34264206075E+02  0.17278880415E+01  0.11277110148E+02  0.39414994467E+02  0.15790730208E+02 0.  0.
         22    1    3    3    0    0  0.34264206075E+02 -0.17278880415E+01  0.27861112863E+02  0.44195735371E+02  0.00000000000E+00 0. -1.
         22    1    4    4    0    0 -0.10432370432E+02  0.14999753964E+01 -0.38110705735E+01  0.11207521489E+02  0.00000000000E+00 0. -1.
         22    1    4    4    0    0 -0.23831835643E+02  0.22791264504E+00  0.15088180721E+02  0.28207472977E+02  0.00000000000E+00 0. -1.
<mgrwt>
<rscale>  0 0.73884732E+02</rscale>
<asrwt>0</asrwt>
<pdfrwt beam="1">  1        1 0.94422270E-02 0.73884732E+02</pdfrwt>
<pdfrwt beam="2">  1       -1 0.34209621E-02 0.73884732E+02</pdfrwt>
<totfact> 0.17162013E+05</totfact>
</mgrwt>
</event>
<event>
 7    1  0.3607059E-009  0.9195928E+02  0.7818608E-02  0.1298175E+00
         -1   -1    0    0    0  501 -0.00000000000E+00  0.00000000000E+00  0.14645175288E+02  0.14645176155E+02  0.50400000000E-02 0.  1.
          1   -1    0    0  501    0  0.00000000000E+00 -0.00000000000E+00 -0.14435657521E+03  0.14435657530E+03  0.50400000000E-02 0. -1.
         23    2    1    2    0    0  0.00000000000E+00  0.35527136788E-14 -0.12971139993E+03  0.15900175146E+03  0.91959282815E+02 0.  0.
    9000005    2    3    3    0    0  0.41389449782E+02  0.16666399309E+02 -0.57887699818E+02  0.74447039487E+02  0.14160525379E+02 0.  0.
         22    1    3    3    0    0 -0.41389449782E+02 -0.16666399309E+02 -0.71823700108E+02  0.84554711971E+02  0.00000000000E+00 0.  1.
         22    1    4    4    0    0  0.14710052888E+02  0.12326916568E+02 -0.18350823817E+02  0.26553554617E+02  0.00000000000E+00 0. -1.
         22    1    4    4    0    0  0.26679396894E+02  0.43394827411E+01 -0.39536876002E+02  0.47893484871E+02  0.00000000000E+00 0. -1.
<mgrwt>
<rscale>  0 0.91959283E+02</rscale>
<asrwt>0</asrwt>
<pdfrwt beam="2">  1        1 0.22208703E-01 0.91959283E+02</pdfrwt>
<pdfrwt beam="1">  1       -1 0.22531041E-02 0.91959283E+02</pdfrwt>
<totfact> 0.10880509E+05</totfact>
</mgrwt>
</event>
<event>
 7    1  0.3607059E-009  0.9135166E+02  0.7818608E-02  0.1299611E+00
          1   -1    0    0  501    0  0.00000000000E+00  0.00000000000E+00  0.10356459606E+03  0.10356459619E+03  0.50400000000E-02 0. -1.
         -1   -1    0    0    0  501 -0.00000000000E+00 -0.00000000000E+00 -0.20144736902E+02  0.20144737533E+02  0.50400000000E-02 0.  1.
         23    2    1    2    0    0 -0.22204460493E-15  0.00000000000E+00  0.83419859163E+02  0.12370933372E+03  0.91351663076E+02 0.  0.
    9000005    2    3    3    0    0 -0.16468931668E+01  0.11771567831E+02  0.10136525315E+03  0.10218448223E+03  0.50469592751E+01 0.  0.
         22    1    3    3    0    0  0.16468931668E+01 -0.11771567831E+02 -0.17945393983E+02  0.21524851486E+02  0.00000000000E+00 0.  1.
         22    1    4    4    0    0 -0.20176508342E+01  0.52596584985E+01  0.30197233490E+02  0.30718200352E+02  0.00000000000E+00 0. -1.
         22    1    4    4    0    0  0.37075766735E+00  0.65119093328E+01  0.71168019655E+02  0.71466281882E+02  0.00000000000E+00 0. -1.
<mgrwt>
<rscale>  0 0.91351663E+02</rscale>
<asrwt>0</asrwt>
<pdfrwt beam="1">  1        1 0.15933015E-01 0.91351663E+02</pdfrwt>
<pdfrwt beam="2">  1       -1 0.30991903E-02 0.91351663E+02</pdfrwt>
<totfact> 0.10451712E+05</totfact>
</mgrwt>
</event>
<event>
 7    1  0.3607059E-009  0.9029262E+02  0.7818608E-02  0.1302145E+00
         -1   -1    0    0    0  501 -0.00000000000E+00  0.00000000000E+00  0.22306238867E+01  0.22306295806E+01  0.50400000000E-02 0.  1.
          1   -1    0    0  501    0  0.00000000000E+00 -0.00000000000E+00 -0.91372944967E+03  0.91372944969E+03  0.50400000000E-02 0. -1.
         23    2    1    2    0    0  0.00000000000E+00  0.00000000000E+00 -0.91149882579E+03  0.91596007927E+03  0.90292620971E+02 0.  0.
    9000005    2    3    3    0    0  0.91542119820E+01  0.13216287466E+02 -0.88333529271E+03  0.88353085716E+03  0.93309350614E+01 0.  0.
         22    1    3    3    0    0 -0.91542119820E+01 -0.13216287466E+02 -0.28163533076E+02  0.32429222111E+02  0.00000000000E+00 0.  1.
         22    1    4    4    0    0 -0.14356244045E+01  0.42805710776E+01 -0.16404880744E+03  0.16411092447E+03  0.00000000000E+00 0.  1.
         22    1    4    4    0    0  0.10589836386E+02  0.89357163882E+01 -0.71928648527E+03  0.71941993269E+03  0.00000000000E+00 0.  1.
<mgrwt>
<rscale>  0 0.90292621E+02</rscale>
<asrwt>0</asrwt>
<pdfrwt beam="2">  1        1 0.14057346E+00 0.90292621E+02</pdfrwt>
<pdfrwt beam="1">  1       -1 0.34317407E-03 0.90292621E+02</pdfrwt>
<totfact> 0.14241948E+05</totfact>
</mgrwt>
</event>
<event>
 7    1  0.3607059E-009  0.8906730E+02  0.7818608E-02  0.1305126E+00
         -1   -1    0    0    0  501 -0.00000000000E+00  0.00000000000E+00  0.19419225735E+02  0.19419226389E+02  0.50400000000E-02 0.  1.
          1   -1    0    0  501    0  0.00000000000E+00 -0.00000000000E+00 -0.10212795127E+03  0.10212795139E+03  0.50400000000E-02 0. -1.
         23    2    1    2    0    0  0.71054273576E-14 -0.88817841970E-15 -0.82708725535E+02  0.12154717778E+03  0.89067295612E+02 0.  0.
    9000005    2    3    3    0    0 -0.37893098840E+02  0.55656859974E+01 -0.13104843189E+02  0.42101823999E+02  0.11574232966E+02 0.  0.
         22    1    3    3    0    0  0.37893098840E+02 -0.55656859974E+01 -0.69603882346E+02  0.79445353785E+02  0.00000000000E+00 0. -1.
         22    1    4    4    0    0 -0.38151233336E+02  0.40252993994E+01 -0.13106049952E+02  0.40539957889E+02  0.00000000000E+00 0.  1.
         22    1    4    4    0    0  0.25813449631E+00  0.15403865980E+01  0.12067630479E-02  0.15618661100E+01  0.00000000000E+00 0.  1.
<mgrwt>
<rscale>  0 0.89067296E+02</rscale>
<asrwt>0</asrwt>
<pdfrwt beam="2">  1        1 0.15711992E-01 0.89067296E+02</pdfrwt>
<pdfrwt beam="1">  1       -1 0.29875733E-02 0.89067296E+02</pdfrwt>
<totfact> 0.11170522E+05</totfact>
</mgrwt>
</event>
<event>
 7    1  0.3607059E-009  0.9173203E+02  0.7818608E-02  0.1298711E+00
         -1   -1    0    0    0  501 -0.00000000000E+00  0.00000000000E+00  0.51429572988E+02  0.51429573235E+02  0.50400000000E-02 0.  1.
          1   -1    0    0  501    0  0.00000000000E+00 -0.00000000000E+00 -0.40904313958E+02  0.40904314269E+02  0.50400000000E-02 0. -1.
         23    2    1    2    0    0 -0.88817841970E-15  0.00000000000E+00  0.10525259030E+02  0.92333887504E+02  0.91732032049E+02 0.  0.
    9000005    2    3    3    0    0 -0.59348572778E+01  0.18981576953E+02 -0.34871211869E+02  0.42772184904E+02  0.14762641693E+02 0.  0.
         22    1    3    3    0    0  0.59348572778E+01 -0.18981576953E+02  0.45396470898E+02  0.49561702599E+02  0.00000000000E+00 0.  1.
         22    1    4    4    0    0 -0.99830605025E+01  0.83903544486E+01 -0.14849106932E+02  0.19762477614E+02  0.00000000000E+00 0.  1.
         22    1    4    4    0    0  0.40482032247E+01  0.10591222504E+02 -0.20022104937E+02  0.23009707290E+02  0.00000000000E+00 0.  1.
<mgrwt>
<rscale>  0 0.91732032E+02</rscale>
<asrwt>0</asrwt>
<pdfrwt beam="2">  1        1 0.62929714E-02 0.91732032E+02</pdfrwt>
<pdfrwt beam="1">  1       -1 0.79122421E-02 0.91732032E+02</pdfrwt>
<totfact> 0.89424548E+04</totfact>
</mgrwt>
</event>
<event>
 7    1  0.3607059E-009  0.9002658E+02  0.7818608E-02  0.1302787E+00
         -1   -1    0    0    0  501 -0.00000000000E+00  0.00000000000E+00  0.55887011131E+02  0.55887011358E+02  0.50400000000E-02 0.  1.
          1   -1    0    0  501    0  0.00000000000E+00 -0.00000000000E+00 -0.36255226584E+02  0.36255226934E+02  0.50400000000E-02 0. -1.
         23    2    1    2    0    0 -0.71054273576E-14 -0.88817841970E-15  0.19631784547E+02  0.92142238292E+02  0.90026580036E+02 0.  0.
    9000005    2    3    3    0    0 -0.40253572834E+02 -0.67120515606E+01 -0.73065580855E+01  0.43243607781E+02  0.12297237931E+02 0.  0.
         22    1    3    3    0    0  0.40253572834E+02  0.67120515606E+01  0.26938342633E+02  0.48898630511E+02  0.00000000000E+00 0.  1.
         22    1    4    4    0    0 -0.75573002007E+01 -0.63373945118E+01 -0.72534644828E+00  0.98894632307E+01  0.00000000000E+00 0.  1.
         22    1    4    4    0    0 -0.32696272634E+02 -0.37465704874E+00 -0.65812116372E+01  0.33354144550E+02  0.00000000000E+00 0.  1.
<mgrwt>
<rscale>  0 0.90026580E+02</rscale>
<asrwt>0</asrwt>
<pdfrwt beam="2">  1        1 0.55777272E-02 0.90026580E+02</pdfrwt>
<pdfrwt beam="1">  1       -1 0.85980018E-02 0.90026580E+02</pdfrwt>
<totfact> 0.92581872E+04</totfact>
</mgrwt>
</event>
<event>
 7    1  0.3607059E-009  0.1030305E+03  0.7818608E-02  0.1274049E+00
         -1   -1    0    0    0  501 -0.00000000000E+00  0.00000000000E+00  0.31055340967E+02  0.31055341376E+02  0.50400000000E-02 0.  1.
          1   -1    0    0  501    0  0.00000000000E+00 -0.00000000000E+00 -0.85454527796E+02  0.85454527945E+02  0.50400000000E-02 0. -1.
         23    2    1    2    0    0  0.00000000000E+00 -0.35527136788E-14 -0.54399186829E+02  0.11650986932E+03  0.10303047181E+03 0.  0.
    9000005    2    3    3    0    0  0.70045765385E+00 -0.18574049278E+02 -0.81011940917E+02  0.84048744455E+02  0.12480822321E+02 0.  0.
         22    1    3    3    0    0 -0.70045765385E+00  0.18574049278E+02  0.26612754088E+02  0.32461124867E+02  0.00000000000E+00 0.  1.
         22    1    4    4    0    0 -0.49907131751E+01 -0.38095801548E+01 -0.29524312845E+02  0.30184518679E+02  0.00000000000E+00 0. -1.
         22    1    4    4    0    0  0.56911708290E+01 -0.14764469123E+02 -0.51487628072E+02  0.53864225775E+02  0.00000000000E+00 0. -1.
<mgrwt>
<rscale>  0 0.10303047E+03</rscale>
<asrwt>0</asrwt>
<pdfrwt beam="2">  1        1 0.13146850E-01 0.10303047E+03</pdfrwt>
<pdfrwt beam="1">  1       -1 0.47777448E-02 0.10303047E+03</pdfrwt>
<totfact> 0.72621401E+04</totfact>
</mgrwt>
</event>
<event>
 7    1  0.3607059E-009  0.9319824E+02  0.7818608E-02  0.1295286E+00
          1   -1    0    0  501    0  0.00000000000E+00  0.00000000000E+00  0.68478787419E+03  0.68478787421E+03  0.50400000000E-02 0. -1.
         -1   -1    0    0    0  501 -0.00000000000E+00 -0.00000000000E+00 -0.31710208240E+01  0.31710248292E+01  0.50400000000E-02 0.  1.
         23    2    1    2    0    0  0.00000000000E+00  0.00000000000E+00  0.68161685337E+03  0.68795889904E+03  0.93198240180E+02 0.  0.
    9000005    2    3    3    0    0 -0.11076924546E+02  0.35181138006E+02  0.54648581805E+03  0.54788460649E+03  0.13053044233E+02 0.  0.
         22    1    3    3    0    0  0.11076924546E+02 -0.35181138006E+02  0.13513103532E+03  0.14007429255E+03  0.00000000000E+00 0.  1.
         22    1    4    4    0    0 -0.88057192267E+01  0.11544664114E+02  0.15470770608E+03  0.15538756154E+03  0.00000000000E+00 0. -1.
         22    1    4    4    0    0 -0.22712053197E+01  0.23636473892E+02  0.39177811197E+03  0.39249704495E+03  0.00000000000E+00 0. -1.
<mgrwt>
<rscale>  0 0.93198240E+02</rscale>
<asrwt>0</asrwt>
<pdfrwt beam="1">  1        1 0.10535180E+00 0.93198240E+02</pdfrwt>
<pdfrwt beam="2">  1       -1 0.48785051E-03 0.93198240E+02</pdfrwt>
<totfact> 0.13416441E+05</totfact>
</mgrwt>
</event>
<event>
 7    1  0.3607059E-009  0.9139228E+02  0.7818608E-02  0.1299515E+00
          1   -1    0    0  501    0  0.00000000000E+00  0.00000000000E+00  0.41912781604E+02  0.41912781907E+02  0.50400000000E-02 0. -1.
         -1   -1    0    0    0  501 -0.00000000000E+00 -0.00000000000E+00 -0.49821008689E+02  0.49821008944E+02  0.50400000000E-02 0.  1.
         23    2    1    2    0    0 -0.35527136788E-14  0.00000000000E+00 -0.79082270849E+01  0.91733790851E+02  0.91392277181E+02 0.  0.
    9000005    2    3    3    0    0  0.28860810077E+02  0.33614286012E+02  0.59479320317E+01  0.45313324159E+02  0.74197620256E+01 0.  0.
         22    1    3    3    0    0 -0.28860810077E+02 -0.33614286012E+02 -0.13856159117E+02  0.46420466692E+02  0.00000000000E+00 0. -1.
         22    1    4    4    0    0  0.10915869772E+02  0.12400857069E+02 -0.13784250254E+01  0.16578224407E+02  0.00000000000E+00 0.  1.
         22    1    4    4    0    0  0.17944940305E+02  0.21213428943E+02  0.73263570572E+01  0.28735099753E+02  0.00000000000E+00 0.  1.
<mgrwt>
<rscale>  0 0.91392277E+02</rscale>
<asrwt>0</asrwt>
<pdfrwt beam="1">  1        1 0.64481203E-02 0.91392277E+02</pdfrwt>
<pdfrwt beam="2">  1       -1 0.76647706E-02 0.91392277E+02</pdfrwt>
<totfact> 0.90701901E+04</totfact>
</mgrwt>
</event>
<event>
 7    1  0.3607059E-009  0.8884138E+02  0.7818608E-02  0.1305682E+00
          1   -1    0    0  501    0  0.00000000000E+00  0.00000000000E+00  0.15713746372E+03  0.15713746380E+03  0.50400000000E-02 0. -1.
         -1   -1    0    0    0  501 -0.00000000000E+00 -0.00000000000E+00 -0.12557143587E+02  0.12557144599E+02  0.50400000000E-02 0.  1.
         23    2    1    2    0    0  0.00000000000E+00 -0.35527136788E-14  0.14458032014E+03  0.16969460840E+03  0.88841381969E+02 0.  0.
    9000005    2    3    3    0    0  0.35872747490E+02 -0.24534836127E+02  0.56446011326E+02  0.71427276162E+02  0.51856907991E+01 0.  0.
         22    1    3    3    0    0 -0.35872747490E+02  0.24534836127E+02  0.88134308810E+02  0.98267332240E+02  0.00000000000E+00 0. -1.
         22    1    4    4    0    0  0.31919456084E+02 -0.19665506451E+02  0.47952067102E+02  0.60868584344E+02  0.00000000000E+00 0.  1.
         22    1    4    4    0    0  0.39532914058E+01 -0.48693296750E+01  0.84939442235E+01  0.10558691817E+02  0.00000000000E+00 0.  1.
<mgrwt>
<rscale>  0 0.88841382E+02</rscale>
<asrwt>0</asrwt>
<pdfrwt beam="1">  1        1 0.24174995E-01 0.88841382E+02</pdfrwt>
<pdfrwt beam="2">  1       -1 0.19318683E-02 0.88841382E+02</pdfrwt>
<totfact> 0.12127257E+05</totfact>
</mgrwt>
</event>
<event>
 7    1  0.3607059E-009  0.9102185E+02  0.7818608E-02  0.1300396E+00
         -1   -1    0    0    0  501 -0.00000000000E+00  0.00000000000E+00  0.52160751325E+02  0.52160751568E+02  0.50400000000E-02 0.  1.
          1   -1    0    0  501    0  0.00000000000E+00 -0.00000000000E+00 -0.39708861729E+02  0.39708862048E+02  0.50400000000E-02 0. -1.
         23    2    1    2    0    0  0.00000000000E+00  0.00000000000E+00  0.12451889596E+02  0.91869613616E+02  0.91021845463E+02 0.  0.
    9000005    2    3    3    0    0 -0.34156315656E+02  0.27430447965E+01 -0.23815855473E+02  0.41974448256E+02  0.45256094095E+01 0.  0.
         22    1    3    3    0    0  0.34156315656E+02 -0.27430447965E+01  0.36267745069E+02  0.49895165360E+02  0.00000000000E+00 0.  1.
         22    1    4    4    0    0 -0.19676047659E+02  0.14211988901E+01 -0.16389602067E+02  0.25647333461E+02  0.00000000000E+00 0. -1.
         22    1    4    4    0    0 -0.14480267997E+02  0.13218459064E+01 -0.74262534063E+01  0.16327114795E+02  0.00000000000E+00 0. -1.
<mgrwt>
<rscale>  0 0.91021845E+02</rscale>
<asrwt>0</asrwt>
<pdfrwt beam="2">  1        1 0.61090557E-02 0.91021845E+02</pdfrwt>
<pdfrwt beam="1">  1       -1 0.80247311E-02 0.91021845E+02</pdfrwt>
<totfact> 0.90999869E+04</totfact>
</mgrwt>
</event>
<event>
 7    1  0.3607059E-009  0.9220581E+02  0.7818608E-02  0.1297596E+00
          1   -1    0    0  501    0  0.00000000000E+00  0.00000000000E+00  0.18919975089E+03  0.18919975096E+03  0.50400000000E-02 0. -1.
         -1   -1    0    0    0  501 -0.00000000000E+00 -0.00000000000E+00 -0.11234039887E+02  0.11234041018E+02  0.50400000000E-02 0.  1.
         23    2    1    2    0    0  0.00000000000E+00  0.00000000000E+00  0.17796571100E+03  0.20043379198E+03  0.92205806068E+02 0.  0.
    9000005    2    3    3    0    0  0.32306171250E+01  0.40720526452E+02  0.48418018310E+02  0.64598587247E+02  0.12652067641E+02 0.  0.
         22    1    3    3    0    0 -0.32306171250E+01 -0.40720526452E+02  0.12954769269E+03  0.13583520473E+03  0.00000000000E+00 0.  1.
         22    1    4    4    0    0  0.36471630586E+01  0.40649305995E+02  0.43447020036E+02  0.59609658833E+02  0.00000000000E+00 0. -1.
         22    1    4    4    0    0 -0.41654593360E+00  0.71220457707E-01  0.49709982747E+01  0.49889284135E+01  0.00000000000E+00 0. -1.
<mgrwt>
<rscale>  0 0.92205806E+02</rscale>
<asrwt>0</asrwt>
<pdfrwt beam="1">  1        1 0.29107652E-01 0.92205806E+02</pdfrwt>
<pdfrwt beam="2">  1       -1 0.17283141E-02 0.92205806E+02</pdfrwt>
<totfact> 0.11366058E+05</totfact>
</mgrwt>
</event>
<event>
 7    1  0.3607059E-009  0.9162617E+02  0.7818608E-02  0.1298961E+00
         -1   -1    0    0    0  501 -0.00000000000E+00  0.00000000000E+00  0.10329066901E+02  0.10329068130E+02  0.50400000000E-02 0.  1.
          1   -1    0    0  501    0  0.00000000000E+00 -0.00000000000E+00 -0.20319733130E+03  0.20319733136E+03  0.50400000000E-02 0. -1.
         23    2    1    2    0    0  0.00000000000E+00  0.00000000000E+00 -0.19286826440E+03  0.21352639949E+03  0.91626174579E+02 0.  0.
    9000005    2    3    3    0    0 -0.26342582235E+02 -0.22264223367E+02 -0.27843431101E+02  0.44935703171E+02  0.73711249514E+01 0.  0.
         22    1    3    3    0    0  0.26342582235E+02  0.22264223367E+02 -0.16502483330E+03  0.16859069632E+03  0.00000000000E+00 0. -1.
         22    1    4    4    0    0 -0.63527888943E+00  0.10092198348E+00  0.32958292447E+00  0.72276511967E+00  0.00000000000E+00 0.  1.
         22    1    4    4    0    0 -0.25707303346E+02 -0.22365145351E+02 -0.28173014025E+02  0.44212938052E+02  0.00000000000E+00 0.  1.
<mgrwt>
<rscale>  0 0.91626175E+02</rscale>
<asrwt>0</asrwt>
<pdfrwt beam="2">  1        1 0.31261125E-01 0.91626175E+02</pdfrwt>
<pdfrwt beam="1">  1       -1 0.15890875E-02 0.91626175E+02</pdfrwt>
<totfact> 0.11721425E+05</totfact>
</mgrwt>
</event>
<event>
 7    1  0.3607059E-009  0.9314188E+02  0.7818608E-02  0.1295417E+00
         -1   -1    0    0    0  501 -0.00000000000E+00  0.00000000000E+00  0.12160159414E+02  0.12160160459E+02  0.50400000000E-02 0.  1.
          1   -1    0    0  501    0  0.00000000000E+00 -0.00000000000E+00 -0.17835723624E+03  0.17835723631E+03  0.50400000000E-02 0. -1.
         23    2    1    2    0    0  0.00000000000E+00 -0.71054273576E-14 -0.16619707683E+03  0.19051739677E+03  0.93141881701E+02 0.  0.
    9000005    2    3    3    0    0  0.17305450288E+02 -0.40052632462E+02 -0.11433833178E+03  0.12274556328E+03  0.94618821564E+01 0.  0.
         22    1    3    3    0    0 -0.17305450288E+02  0.40052632462E+02 -0.51858745045E+02  0.67771833489E+02  0.00000000000E+00 0. -1.
         22    1    4    4    0    0  0.13213416103E+02 -0.32014475181E+02 -0.99775559455E+02  0.10561573392E+03  0.00000000000E+00 0. -1.
         22    1    4    4    0    0  0.40920341849E+01 -0.80381572811E+01 -0.14562772330E+02  0.17129829368E+02  0.00000000000E+00 0. -1.
<mgrwt>
<rscale>  0 0.93141882E+02</rscale>
<asrwt>0</asrwt>
<pdfrwt beam="2">  1        1 0.27439573E-01 0.93141882E+02</pdfrwt>
<pdfrwt beam="1">  1       -1 0.18707940E-02 0.93141882E+02</pdfrwt>
<totfact> 0.10935954E+05</totfact>
</mgrwt>
</event>
<event>
 7    1  0.3607059E-009  0.8935097E+02  0.7818608E-02  0.1304431E+00
         -1   -1    0    0    0  501 -0.00000000000E+00  0.00000000000E+00  0.66685148226E+01  0.66685167272E+01  0.50400000000E-02 0.  1.
          1   -1    0    0  501    0  0.00000000000E+00 -0.00000000000E+00 -0.29930185844E+03  0.29930185849E+03  0.50400000000E-02 0. -1.
         23    2    1    2    0    0  0.00000000000E+00  0.00000000000E+00 -0.29263334362E+03  0.30597037521E+03  0.89350974865E+02 0.  0.
    9000005    2    3    3    0    0  0.32355592645E+02 -0.28773175272E+02 -0.17200572936E+03  0.17780719285E+03  0.12435710943E+02 0.  0.
         22    1    3    3    0    0 -0.32355592645E+02  0.28773175272E+02 -0.12062761427E+03  0.12816318237E+03  0.00000000000E+00 0.  1.
         22    1    4    4    0    0  0.26396605131E+01 -0.16946071653E+01 -0.41387275293E+01  0.51931268645E+01  0.00000000000E+00 0. -1.
         22    1    4    4    0    0  0.29715932132E+02 -0.27078568107E+02 -0.16786700183E+03  0.17261406598E+03  0.00000000000E+00 0. -1.
<mgrwt>
<rscale>  0 0.89350975E+02</rscale>
<asrwt>0</asrwt>
<pdfrwt beam="2">  1        1 0.46046429E-01 0.89350975E+02</pdfrwt>
<pdfrwt beam="1">  1       -1 0.10259257E-02 0.89350975E+02</pdfrwt>
<totfact> 0.13514595E+05</totfact>
</mgrwt>
</event>
<event>
 7    1  0.3607059E-009  0.8696910E+02  0.7818608E-02  0.1310362E+00
         -1   -1    0    0    0  501 -0.00000000000E+00  0.00000000000E+00  0.45916733059E+01  0.45916760719E+01  0.50400000000E-02 0.  1.
          1   -1    0    0  501    0  0.00000000000E+00 -0.00000000000E+00 -0.41181189055E+03  0.41181189058E+03  0.50400000000E-02 0. -1.
         23    2    1    2    0    0 -0.35527136788E-14  0.88817841970E-15 -0.40722021724E+03  0.41640356665E+03  0.86969103645E+02 0.  0.
    9000005    2    3    3    0    0 -0.24443599660E+02  0.52741304957E+01 -0.37231159864E+03  0.37346270418E+03  0.15269542113E+02 0.  0.
         22    1    3    3    0    0  0.24443599660E+02 -0.52741304957E+01 -0.34908618600E+02  0.42940862467E+02  0.00000000000E+00 0.  1.
         22    1    4    4    0    0 -0.13731534594E+01 -0.20335888362E+01 -0.11243104735E+03  0.11245782072E+03  0.00000000000E+00 0.  1.
         22    1    4    4    0    0 -0.23070446200E+02  0.73077193319E+01 -0.25988055129E+03  0.26100488346E+03  0.00000000000E+00 0.  1.
<mgrwt>
<rscale>  0 0.86969104E+02</rscale>
<asrwt>0</asrwt>
<pdfrwt beam="2">  1        1 0.63355647E-01 0.86969104E+02</pdfrwt>
<pdfrwt beam="1">  1       -1 0.70641181E-03 0.86969104E+02</pdfrwt>
<totfact> 0.15358418E+05</totfact>
</mgrwt>
</event>
<event>
 7    1  0.3607059E-009  0.9080849E+02  0.7818608E-02  0.1300906E+00
         -1   -1    0    0    0  501 -0.00000000000E+00  0.00000000000E+00  0.37191308570E+01  0.37191342720E+01  0.50400000000E-02 0.  1.
          1   -1    0    0  501    0  0.00000000000E+00 -0.00000000000E+00 -0.55430817075E+03  0.55430817077E+03  0.50400000000E-02 0. -1.
         23    2    1    2    0    0  0.00000000000E+00  0.00000000000E+00 -0.55058903989E+03  0.55802730504E+03  0.90808492584E+02 0.  0.
    9000005    2    3    3    0    0 -0.43289536575E+02 -0.85635648277E+01 -0.28705445185E+03  0.29082364168E+03  0.15192551301E+02 0.  0.
         22    1    3    3    0    0  0.43289536575E+02  0.85635648277E+01 -0.26353458804E+03  0.26720366336E+03  0.00000000000E+00 0. -1.
         22    1    4    4    0    0 -0.25901741685E+02  0.23714559745E+01 -0.17065135614E+03  0.17262215785E+03  0.00000000000E+00 0.  1.
         22    1    4    4    0    0 -0.17387794889E+02 -0.10935020802E+02 -0.11640309571E+03  0.11820148384E+03  0.00000000000E+00 0.  1.
<mgrwt>
<rscale>  0 0.90808493E+02</rscale>
<asrwt>0</asrwt>
<pdfrwt beam="2">  1        1 0.85278115E-01 0.90808493E+02</pdfrwt>
<pdfrwt beam="1">  1       -1 0.57217468E-03 0.90808493E+02</pdfrwt>
<totfact> 0.14227486E+05</totfact>
</mgrwt>
</event>
<event>
 7    1  0.3607059E-009  0.9280395E+02  0.7818608E-02  0.1296200E+00
          1   -1    0    0  501    0  0.00000000000E+00  0.00000000000E+00  0.56735862112E+02  0.56735862336E+02  0.50400000000E-02 0. -1.
         -1   -1    0    0    0  501 -0.00000000000E+00 -0.00000000000E+00 -0.37950300680E+02  0.37950301015E+02  0.50400000000E-02 0.  1.
         23    2    1    2    0    0  0.00000000000E+00  0.35527136788E-14  0.18785561432E+02  0.94686163351E+02  0.92803945023E+02 0.  0.
    9000005    2    3    3    0    0 -0.23673186761E+01 -0.30173677236E+02 -0.24346113594E+02  0.41994642343E+02  0.15961257556E+02 0.  0.
         22    1    3    3    0    0  0.23673186761E+01  0.30173677236E+02  0.43131675026E+02  0.52691521008E+02  0.00000000000E+00 0. -1.
         22    1    4    4    0    0 -0.13145144689E+01 -0.28518482073E+02 -0.26590421546E+02  0.39013872995E+02  0.00000000000E+00 0.  1.
         22    1    4    4    0    0 -0.10528042071E+01 -0.16551951624E+01  0.22443079521E+01  0.29807693484E+01  0.00000000000E+00 0.  1.
<mgrwt>
<rscale>  0 0.92803945E+02</rscale>
<asrwt>0</asrwt>
<pdfrwt beam="1">  1        1 0.87285942E-02 0.92803945E+02</pdfrwt>
<pdfrwt beam="2">  1       -1 0.58385079E-02 0.92803945E+02</pdfrwt>
<totfact> 0.90965216E+04</totfact>
</mgrwt>
</event>
<event>
 7    1  0.3607059E-009  0.8949160E+02  0.7818608E-02  0.1304088E+00
         -1   -1    0    0    0  501 -0.00000000000E+00  0.00000000000E+00  0.16859374470E+02  0.16859375223E+02  0.50400000000E-02 0.  1.
          1   -1    0    0  501    0  0.00000000000E+00 -0.00000000000E+00 -0.11875804490E+03  0.11875804501E+03  0.50400000000E-02 0. -1.
         23    2    1    2    0    0  0.00000000000E+00 -0.88817841970E-15 -0.10189867043E+03  0.13561742023E+03  0.89491595328E+02 0.  0.
    9000005    2    3    3    0    0 -0.42116570778E+02  0.73426213208E+01 -0.66082558296E+02  0.79845442407E+02  0.13441374194E+02 0.  0.
         22    1    3    3    0    0  0.42116570778E+02 -0.73426213208E+01 -0.35816112135E+02  0.55771977824E+02  0.00000000000E+00 0.  1.
         22    1    4    4    0    0 -0.38846275005E+01  0.22875063521E+01 -0.17429626505E+01  0.48333151076E+01  0.00000000000E+00 0.  1.
         22    1    4    4    0    0 -0.38231943277E+02  0.50551149687E+01 -0.64339595646E+02  0.75012127299E+02  0.00000000000E+00 0.  1.
<mgrwt>
<rscale>  0 0.89491595E+02</rscale>
<asrwt>0</asrwt>
<pdfrwt beam="2">  1        1 0.18270468E-01 0.89491595E+02</pdfrwt>
<pdfrwt beam="1">  1       -1 0.25937501E-02 0.89491595E+02</pdfrwt>
<totfact> 0.11311662E+05</totfact>
</mgrwt>
</event>
<event>
 7    1  0.3607059E-009  0.9574168E+02  0.7818608E-02  0.1289514E+00
         -1   -1    0    0    0  501 -0.00000000000E+00  0.00000000000E+00  0.72116804050E+01  0.72116821662E+01  0.50400000000E-02 0.  1.
          1   -1    0    0  501    0  0.00000000000E+00 -0.00000000000E+00 -0.31776463151E+03  0.31776463155E+03  0.50400000000E-02 0. -1.
         23    2    1    2    0    0  0.00000000000E+00  0.00000000000E+00 -0.31055295111E+03  0.32497631372E+03  0.95741678680E+02 0.  0.
    9000005    2    3    3    0    0 -0.31409149100E+02  0.11850003929E+02 -0.26927097275E+03  0.27176767741E+03  0.14961834148E+02 0.  0.
         22    1    3    3    0    0  0.31409149100E+02 -0.11850003929E+02 -0.41281978361E+02  0.53208636307E+02  0.00000000000E+00 0.  1.
         22    1    4    4    0    0 -0.25572439495E+02  0.15446126642E+02 -0.21520091479E+03  0.21726473763E+03  0.00000000000E+00 0. -1.
         22    1    4    4    0    0 -0.58367096057E+01 -0.35961227129E+01 -0.54070057953E+02  0.54502939780E+02  0.00000000000E+00 0. -1.
<mgrwt>
<rscale>  0 0.95741679E+02</rscale>
<asrwt>0</asrwt>
<pdfrwt beam="2">  1        1 0.48886856E-01 0.95741679E+02</pdfrwt>
<pdfrwt beam="1">  1       -1 0.11094897E-02 0.95741679E+02</pdfrwt>
<totfact> 0.11367944E+05</totfact>
</mgrwt>
</event>
<event>
 7    1  0.3607059E-009  0.9213576E+02  0.7818608E-02  0.1297761E+00
          1   -1    0    0  501    0  0.00000000000E+00  0.00000000000E+00  0.47267912036E+02  0.47267912305E+02  0.50400000000E-02 0. -1.
         -1   -1    0    0    0  501 -0.00000000000E+00 -0.00000000000E+00 -0.44898316641E+02  0.44898316924E+02  0.50400000000E-02 0.  1.
         23    2    1    2    0    0  0.35527136788E-14  0.00000000000E+00  0.23695953954E+01  0.92166229229E+02  0.92135763023E+02 0.  0.
    9000005    2    3    3    0    0 -0.25451187022E+02  0.42939666769E+01 -0.35872231228E+02  0.46029060111E+02  0.12870754864E+02 0.  0.
         22    1    3    3    0    0  0.25451187022E+02 -0.42939666769E+01  0.38241826624E+02  0.46137169117E+02  0.00000000000E+00 0. -1.
         22    1    4    4    0    0 -0.63769984488E+01 -0.37818103223E+00 -0.19310321305E+02  0.20339558476E+02  0.00000000000E+00 0. -1.
         22    1    4    4    0    0 -0.19074188573E+02  0.46721477091E+01 -0.16561909924E+02  0.25689501635E+02  0.00000000000E+00 0. -1.
<mgrwt>
<rscale>  0 0.92135763E+02</rscale>
<asrwt>0</asrwt>
<pdfrwt beam="1">  1        1 0.72719865E-02 0.92135763E+02</pdfrwt>
<pdfrwt beam="2">  1       -1 0.69074334E-02 0.92135763E+02</pdfrwt>
<totfact> 0.90285177E+04</totfact>
</mgrwt>
</event>
<event>
 7    1  0.3607059E-009  0.9196695E+02  0.7818608E-02  0.1298157E+00
          1   -1    0    0  501    0  0.00000000000E+00  0.00000000000E+00  0.21331724230E+02  0.21331724825E+02  0.50400000000E-02 0. -1.
         -1   -1    0    0    0  501 -0.00000000000E+00 -0.00000000000E+00 -0.99123722533E+02  0.99123722661E+02  0.50400000000E-02 0.  1.
         23    2    1    2    0    0  0.71054273576E-14  0.00000000000E+00 -0.77791998304E+02  0.12045544749E+03  0.91966949656E+02 0.  0.
    9000005    2    3    3    0    0 -0.40881949078E+02 -0.15809406213E+02 -0.56850134607E+02  0.71877337804E+02  0.36252999365E+01 0.  0.
         22    1    3    3    0    0  0.40881949078E+02  0.15809406213E+02 -0.20941863697E+02  0.48578109683E+02  0.00000000000E+00 0.  1.
         22    1    4    4    0    0 -0.24629574143E+02 -0.10706002541E+02 -0.37015904653E+02  0.45731953929E+02  0.00000000000E+00 0. -1.
         22    1    4    4    0    0 -0.16252374936E+02 -0.51034036715E+01 -0.19834229954E+02  0.26145383874E+02  0.00000000000E+00 0. -1.
<mgrwt>
<rscale>  0 0.91966950E+02</rscale>
<asrwt>0</asrwt>
<pdfrwt beam="1">  1        1 0.32818038E-02 0.91966950E+02</pdfrwt>
<pdfrwt beam="2">  1       -1 0.15249803E-01 0.91966950E+02</pdfrwt>
<totfact> 0.79710934E+04</totfact>
</mgrwt>
</event>
<event>
 7    1  0.3607059E-009  0.9213732E+02  0.7818608E-02  0.1297757E+00
          1   -1    0    0  501    0  0.00000000000E+00  0.00000000000E+00  0.24031795800E+03  0.24031795806E+03  0.50400000000E-02 0. -1.
         -1   -1    0    0    0  501 -0.00000000000E+00 -0.00000000000E+00 -0.88313060582E+01  0.88313074963E+01  0.50400000000E-02 0.  1.
         23    2    1    2    0    0  0.00000000000E+00 -0.55511151231E-15  0.23148665194E+03  0.24914926555E+03  0.92137324123E+02 0.  0.
    9000005    2    3    3    0    0 -0.38328504401E+02  0.86658138610E+00  0.53734059736E+02  0.67309200523E+02  0.13166399905E+02 0.  0.
         22    1    3    3    0    0  0.38328504401E+02 -0.86658138610E+00  0.17775259221E+03  0.18184006503E+03  0.00000000000E+00 0. -1.
         22    1    4    4    0    0 -0.31557107059E+02  0.58555543464E+01  0.41510751167E+02  0.52471716048E+02  0.00000000000E+00 0.  1.
         22    1    4    4    0    0 -0.67713973418E+01 -0.49889729603E+01  0.12223308570E+02  0.14837484475E+02  0.00000000000E+00 0.  1.
<mgrwt>
<rscale>  0 0.92137324E+02</rscale>
<asrwt>0</asrwt>
<pdfrwt beam="1">  1        1 0.36971991E-01 0.92137324E+02</pdfrwt>
<pdfrwt beam="2">  1       -1 0.13586627E-02 0.92137324E+02</pdfrwt>
<totfact> 0.11932724E+05</totfact>
</mgrwt>
</event>
<event>
 7    1  0.3607059E-009  0.8993764E+02  0.7818608E-02  0.1303003E+00
          1   -1    0    0  501    0  0.00000000000E+00  0.00000000000E+00  0.88427124327E+01  0.88427138690E+01  0.50400000000E-02 0. -1.
         -1   -1    0    0    0  501 -0.00000000000E+00 -0.00000000000E+00 -0.22868488523E+03  0.22868488528E+03  0.50400000000E-02 0.  1.
         23    2    1    2    0    0 -0.44408920985E-15  0.00000000000E+00 -0.21984217279E+03  0.23752759915E+03  0.89937641840E+02 0.  0.
    9000005    2    3    3    0    0 -0.16705687684E+01 -0.44531563434E+02 -0.11615721092E+03  0.12467184050E+03  0.80448258639E+01 0.  0.
         22    1    3    3    0    0  0.16705687684E+01  0.44531563434E+02 -0.10368496187E+03  0.11285575865E+03  0.00000000000E+00 0. -1.
         22    1    4    4    0    0 -0.40316786385E+01 -0.39127081700E+02 -0.98915238854E+02  0.10644908376E+03  0.00000000000E+00 0. -1.
         22    1    4    4    0    0  0.23611098701E+01 -0.54044817332E+01 -0.17241972068E+02  0.18222756746E+02  0.00000000000E+00 0. -1.
<mgrwt>
<rscale>  0 0.89937642E+02</rscale>
<asrwt>0</asrwt>
<pdfrwt beam="1">  1        1 0.13604176E-02 0.89937642E+02</pdfrwt>
<pdfrwt beam="2">  1       -1 0.35182286E-01 0.89937642E+02</pdfrwt>
<totfact> 0.69103322E+04</totfact>
</mgrwt>
</event>
<event>
 7    1  0.3607059E-009  0.9151786E+02  0.7818608E-02  0.1299217E+00
          1   -1    0    0  501    0  0.00000000000E+00  0.00000000000E+00  0.55031170592E+03  0.55031170595E+03  0.50400000000E-02 0. -1.
         -1   -1    0    0    0  501 -0.00000000000E+00 -0.00000000000E+00 -0.38048961608E+01  0.38048994988E+01  0.50400000000E-02 0.  1.
         23    2    1    2    0    0  0.00000000000E+00  0.00000000000E+00  0.54650680976E+03  0.55411660545E+03  0.91517863357E+02 0.  0.
    9000005    2    3    3    0    0  0.59255811928E+01 -0.23479530646E+02  0.50763950669E+03  0.50832284910E+03  0.10385051565E+02 0.  0.
         22    1    3    3    0    0 -0.59255811928E+01  0.23479530646E+02  0.38867303076E+02  0.45793756346E+02  0.00000000000E+00 0.  1.
         22    1    4    4    0    0  0.55079316049E+01 -0.11377578666E+02  0.34579861516E+03  0.34602957801E+03  0.00000000000E+00 0.  1.
         22    1    4    4    0    0  0.41764958788E+00 -0.12101951980E+02  0.16184089152E+03  0.16229327109E+03  0.00000000000E+00 0.  1.
<mgrwt>
<rscale>  0 0.91517863E+02</rscale>
<asrwt>0</asrwt>
<pdfrwt beam="1">  1        1 0.84663299E-01 0.91517863E+02</pdfrwt>
<pdfrwt beam="2">  1       -1 0.58536918E-03 0.91517863E+02</pdfrwt>
<totfact> 0.13928325E+05</totfact>
</mgrwt>
</event>
<event>
 7    1  0.3607059E-009  0.8688929E+02  0.7818608E-02  0.1310564E+00
         -1   -1    0    0    0  501 -0.00000000000E+00  0.00000000000E+00  0.56171401255E+03  0.56171401257E+03  0.50400000000E-02 0.  1.
          1   -1    0    0  501    0  0.00000000000E+00 -0.00000000000E+00 -0.33601375068E+01  0.33601412866E+01  0.50400000000E-02 0. -1.
         23    2    1    2    0    0  0.00000000000E+00 -0.71054273576E-14  0.55835387504E+03  0.56507415386E+03  0.86889294990E+02 0.  0.
    9000005    2    3    3    0    0 -0.16129683299E+02  0.31504026559E+02  0.43809377418E+03  0.43971402371E+03  0.13022952601E+02 0.  0.
         22    1    3    3    0    0  0.16129683299E+02 -0.31504026559E+02  0.12026010086E+03  0.12536013015E+03  0.00000000000E+00 0. -1.
         22    1    4    4    0    0 -0.17146054466E+02  0.32108969046E+02  0.41636898218E+03  0.41795705808E+03  0.00000000000E+00 0. -1.
         22    1    4    4    0    0  0.10163711663E+01 -0.60494248785E+00  0.21724792004E+02  0.21756965629E+02  0.00000000000E+00 0. -1.
<mgrwt>
<rscale>  0 0.86889295E+02</rscale>
<asrwt>0</asrwt>
<pdfrwt beam="2">  1        1 0.51694443E-03 0.86889295E+02</pdfrwt>
<pdfrwt beam="1">  1       -1 0.86417557E-01 0.86889295E+02</pdfrwt>
<totfact> 0.49470142E+04</totfact>
</mgrwt>
</event>
<event>
 7    1  0.3607059E-009  0.9119343E+02  0.7818608E-02  0.1299987E+00
         -1   -1    0    0    0  501 -0.00000000000E+00  0.00000000000E+00  0.13660058390E+03  0.13660058399E+03  0.50400000000E-02 0.  1.
          1   -1    0    0  501    0  0.00000000000E+00 -0.00000000000E+00 -0.15219995834E+02  0.15219996668E+02  0.50400000000E-02 0. -1.
         23    2    1    2    0    0  0.00000000000E+00  0.00000000000E+00  0.12138058807E+03  0.15182058066E+03  0.91193429331E+02 0.  0.
    9000005    2    3    3    0    0 -0.18384430352E+02  0.39125185011E+02  0.82342041389E+02  0.93573044163E+02  0.10340958965E+02 0.  0.
         22    1    3    3    0    0  0.18384430352E+02 -0.39125185011E+02  0.39038546678E+02  0.58247536499E+02  0.00000000000E+00 0. -1.
         22    1    4    4    0    0 -0.52799503925E+01  0.73971759087E+01  0.26590191833E+02  0.28100433970E+02  0.00000000000E+00 0.  1.
         22    1    4    4    0    0 -0.13104479960E+02  0.31728009102E+02  0.55751849555E+02  0.65472610193E+02  0.00000000000E+00 0.  1.
<mgrwt>
<rscale>  0 0.91193429E+02</rscale>
<asrwt>0</asrwt>
<pdfrwt beam="2">  1        1 0.23415380E-02 0.91193429E+02</pdfrwt>
<pdfrwt beam="1">  1       -1 0.21015474E-01 0.91193429E+02</pdfrwt>
<totfact> 0.76360829E+04</totfact>
</mgrwt>
</event>
<event>
 7    1  0.3607059E-009  0.9653153E+02  0.7818608E-02  0.1287763E+00
          1   -1    0    0  501    0  0.00000000000E+00  0.00000000000E+00  0.42525515912E+02  0.42525516210E+02  0.50400000000E-02 0. -1.
         -1   -1    0    0    0  501 -0.00000000000E+00 -0.00000000000E+00 -0.54780851722E+02  0.54780851954E+02  0.50400000000E-02 0.  1.
         23    2    1    2    0    0  0.00000000000E+00  0.00000000000E+00 -0.12255335810E+02  0.97306368164E+02  0.96531528681E+02 0.  0.
    9000005    2    3    3    0    0  0.87977945032E+01 -0.22160543271E+02  0.35747236869E+02  0.43708440498E+02  0.80044962894E+01 0.  0.
         22    1    3    3    0    0 -0.87977945032E+01  0.22160543271E+02 -0.48002572679E+02  0.53597927665E+02  0.00000000000E+00 0.  1.
         22    1    4    4    0    0  0.26318872823E+01 -0.16556678242E+02  0.25205258942E+02  0.30271364412E+02  0.00000000000E+00 0. -1.
         22    1    4    4    0    0  0.61659072209E+01 -0.56038650296E+01  0.10541977927E+02  0.13437076086E+02  0.00000000000E+00 0. -1.
<mgrwt>
<rscale>  0 0.96531529E+02</rscale>
<asrwt>0</asrwt>
<pdfrwt beam="1">  1        1 0.65423871E-02 0.96531529E+02</pdfrwt>
<pdfrwt beam="2">  1       -1 0.84278234E-02 0.96531529E+02</pdfrwt>
<totfact> 0.77851247E+04</totfact>
</mgrwt>
</event>
<event>
 7    1  0.3607059E-009  0.9128993E+02  0.7818608E-02  0.1299758E+00
         -1   -1    0    0    0  501 -0.00000000000E+00  0.00000000000E+00  0.36803142127E+01  0.36803176637E+01  0.50400000000E-02 0.  1.
          1   -1    0    0  501    0  0.00000000000E+00 -0.00000000000E+00 -0.56610974786E+03  0.56610974788E+03  0.50400000000E-02 0. -1.
         23    2    1    2    0    0  0.00000000000E+00  0.00000000000E+00 -0.56242943365E+03  0.56979006555E+03  0.91289928044E+02 0.  0.
    9000005    2    3    3    0    0  0.45824982245E+01 -0.18295013550E+02 -0.54011631558E+03  0.54057393903E+03  0.11783140084E+02 0.  0.
         22    1    3    3    0    0 -0.45824982245E+01  0.18295013550E+02 -0.22313118064E+02  0.29216126515E+02  0.00000000000E+00 0.  1.
         22    1    4    4    0    0  0.78997837855E+01 -0.12987657852E+02 -0.43974793244E+03  0.44001060206E+03  0.00000000000E+00 0.  1.
         22    1    4    4    0    0 -0.33172855610E+01 -0.53073556983E+01 -0.10036838314E+03  0.10056333697E+03  0.00000000000E+00 0.  1.
<mgrwt>
<rscale>  0 0.91289928E+02</rscale>
<asrwt>0</asrwt>
<pdfrwt beam="2">  1        1 0.87093738E-01 0.91289928E+02</pdfrwt>
<pdfrwt beam="1">  1       -1 0.56620290E-03 0.91289928E+02</pdfrwt>
<totfact> 0.14054633E+05</totfact>
</mgrwt>
</event>
<event>
 7    1  0.3607059E-009  0.8848284E+02  0.7818608E-02  0.1306568E+00
          1   -1    0    0  501    0  0.00000000000E+00  0.00000000000E+00  0.11544194323E+03  0.11544194334E+03  0.50400000000E-02 0. -1.
         -1   -1    0    0    0  501 -0.00000000000E+00 -0.00000000000E+00 -0.16954872153E+02  0.16954872902E+02  0.50400000000E-02 0.  1.
         23    2    1    2    0    0  0.00000000000E+00 -0.35527136788E-14  0.98487071072E+02  0.13239681624E+03  0.88482844560E+02 0.  0.
    9000005    2    3    3    0    0 -0.30164703818E+02 -0.29903595159E+02  0.36013060407E+02  0.56851224913E+02  0.11444950607E+02 0.  0.
         22    1    3    3    0    0  0.30164703818E+02  0.29903595159E+02  0.62474010665E+02  0.75545591324E+02  0.00000000000E+00 0. -1.
         22    1    4    4    0    0 -0.81832221780E+01 -0.26074778722E+01  0.43852442731E+01  0.96433621421E+01  0.00000000000E+00 0.  1.
         22    1    4    4    0    0 -0.21981481640E+02 -0.27296117287E+02  0.31627816134E+02  0.47207862771E+02  0.00000000000E+00 0.  1.
<mgrwt>
<rscale>  0 0.88482845E+02</rscale>
<asrwt>0</asrwt>
<pdfrwt beam="1">  1        1 0.17760299E-01 0.88482845E+02</pdfrwt>
<pdfrwt beam="2">  1       -1 0.26084420E-02 0.88482845E+02</pdfrwt>
<totfact> 0.11607343E+05</totfact>
</mgrwt>
</event>
<event>
 7    1  0.3607059E-009  0.9297600E+02  0.7818608E-02  0.1295801E+00
          1   -1    0    0  501    0  0.00000000000E+00  0.00000000000E+00  0.58357948458E+02  0.58357948676E+02  0.50400000000E-02 0. -1.
         -1   -1    0    0    0  501 -0.00000000000E+00 -0.00000000000E+00 -0.37032389483E+02  0.37032389826E+02  0.50400000000E-02 0.  1.
         23    2    1    2    0    0  0.00000000000E+00  0.00000000000E+00  0.21325558975E+02  0.95390338501E+02  0.92976003430E+02 0.  0.
    9000005    2    3    3    0    0  0.26581818371E+02 -0.31223216262E+02  0.33032150568E+02  0.52746152633E+02  0.30905249853E+01 0.  0.
         22    1    3    3    0    0 -0.26581818371E+02  0.31223216262E+02 -0.11706591593E+02  0.42644185869E+02  0.00000000000E+00 0.  1.
         22    1    4    4    0    0  0.42360765825E+01 -0.58297557376E+01  0.71811279535E+01  0.10173445604E+02  0.00000000000E+00 0.  1.
         22    1    4    4    0    0  0.22345741789E+02 -0.25393460525E+02  0.25851022615E+02  0.42572707029E+02  0.00000000000E+00 0.  1.
<mgrwt>
<rscale>  0 0.92976003E+02</rscale>
<asrwt>0</asrwt>
<pdfrwt beam="1">  1        1 0.89781460E-02 0.92976003E+02</pdfrwt>
<pdfrwt beam="2">  1       -1 0.56972907E-02 0.92976003E+02</pdfrwt>
<totfact> 0.90887375E+04</totfact>
</mgrwt>
</event>
<event>
 7    1  0.3607059E-009  0.9114104E+02  0.7818608E-02  0.1300112E+00
         -1   -1    0    0    0  501 -0.00000000000E+00  0.00000000000E+00  0.19616449409E+01  0.19616514155E+01  0.50400000000E-02 0.  1.
          1   -1    0    0  501    0  0.00000000000E+00 -0.00000000000E+00 -0.10586363636E+04  0.10586363636E+04  0.50400000000E-02 0. -1.
         23    2    1    2    0    0 -0.22204460493E-15  0.00000000000E+00 -0.10566747187E+04  0.10605980150E+04  0.91141035911E+02 0.  0.
    9000005    2    3    3    0    0 -0.10523301647E+01  0.34742546042E+02 -0.86241893824E+03  0.86325704075E+03  0.15431832607E+02 0.  0.
         22    1    3    3    0    0  0.10523301647E+01 -0.34742546042E+02 -0.19425578041E+03  0.19734097427E+03  0.00000000000E+00 0.  1.
         22    1    4    4    0    0 -0.21234289875E+01  0.16865666834E-01 -0.18188176763E+02  0.18311717808E+02  0.00000000000E+00 0. -1.
         22    1    4    4    0    0  0.10710988228E+01  0.34725680375E+02 -0.84423076148E+03  0.84494532294E+03  0.00000000000E+00 0. -1.
<mgrwt>
<rscale>  0 0.91141036E+02</rscale>
<asrwt>0</asrwt>
<pdfrwt beam="2">  1        1 0.16286668E+00 0.91141036E+02</pdfrwt>
<pdfrwt beam="1">  1       -1 0.30179287E-03 0.91141036E+02</pdfrwt>
<totfact> 0.13389256E+05</totfact>
</mgrwt>
</event>
<event>
 7    1  0.3607059E-009  0.9076856E+02  0.7818608E-02  0.1301001E+00
         -1   -1    0    0    0  501 -0.00000000000E+00  0.00000000000E+00  0.14821642782E+03  0.14821642790E+03  0.50400000000E-02 0.  1.
          1   -1    0    0  501    0  0.00000000000E+00 -0.00000000000E+00 -0.13896790606E+02  0.13896791520E+02  0.50400000000E-02 0. -1.
         23    2    1    2    0    0  0.35527136788E-14 -0.35527136788E-14  0.13431963721E+03  0.16211321942E+03  0.90768557170E+02 0.  0.
    9000005    2    3    3    0    0 -0.31042667629E+02  0.17703508946E+02  0.11705346424E+03  0.12242465468E+03  0.30366328519E+01 0.  0.
         22    1    3    3    0    0  0.31042667629E+02 -0.17703508946E+02  0.17266172968E+02  0.39688564745E+02  0.00000000000E+00 0. -1.
         22    1    4    4    0    0 -0.10461012546E+02  0.44572617299E+01  0.38952506038E+02  0.40578290899E+02  0.00000000000E+00 0. -1.
         22    1    4    4    0    0 -0.20581655083E+02  0.13246247217E+02  0.78100958203E+02  0.81846363777E+02  0.00000000000E+00 0. -1.
<mgrwt>
<rscale>  0 0.90768557E+02</rscale>
<asrwt>0</asrwt>
<pdfrwt beam="2">  1        1 0.21379678E-02 0.90768557E+02</pdfrwt>
<pdfrwt beam="1">  1       -1 0.22802528E-01 0.90768557E+02</pdfrwt>
<totfact> 0.75875666E+04</totfact>
</mgrwt>
</event>
<event>
 7    1  0.3607059E-009  0.8439139E+02  0.7818608E-02  0.1317032E+00
          1   -1    0    0  501    0  0.00000000000E+00  0.00000000000E+00  0.11307848699E+04  0.11307848699E+04  0.50400000000E-02 0. -1.
         -1   -1    0    0    0  501 -0.00000000000E+00 -0.00000000000E+00 -0.15745453199E+01  0.15745533862E+01  0.50400000000E-02 0.  1.
         23    2    1    2    0    0  0.17763568394E-14  0.35527136788E-14  0.11292103245E+04  0.11323594233E+04  0.84391388138E+02 0.  0.
    9000005    2    3    3    0    0  0.10487873884E+02  0.27908777286E+02  0.96450877700E+03  0.96498112385E+03  0.47426934773E+01 0.  0.
         22    1    3    3    0    0 -0.10487873884E+02 -0.27908777286E+02  0.16470154754E+03  0.16737829940E+03  0.00000000000E+00 0.  1.
         22    1    4    4    0    0  0.51042004665E+01  0.11984994209E+02  0.34951289916E+03  0.34975557126E+03  0.00000000000E+00 0. -1.
         22    1    4    4    0    0  0.53836734171E+01  0.15923783077E+02  0.61499587783E+03  0.61522555259E+03  0.00000000000E+00 0. -1.
<mgrwt>
<rscale>  0 0.84391388E+02</rscale>
<asrwt>0</asrwt>
<pdfrwt beam="1">  1        1 0.17396656E+00 0.84391388E+02</pdfrwt>
<pdfrwt beam="2">  1       -1 0.24223885E-03 0.84391388E+02</pdfrwt>
<totfact> 0.16014046E+05</totfact>
</mgrwt>
</event>
<event>
 7    1  0.3607059E-009  0.9197458E+02  0.7818608E-02  0.1298139E+00
          1   -1    0    0  501    0  0.00000000000E+00  0.00000000000E+00  0.30847430565E+03  0.30847430569E+03  0.50400000000E-02 0. -1.
         -1   -1    0    0    0  501 -0.00000000000E+00 -0.00000000000E+00 -0.68557746762E+01  0.68557765287E+01  0.50400000000E-02 0.  1.
         23    2    1    2    0    0 -0.17763568394E-14  0.00000000000E+00  0.30161853098E+03  0.31533008222E+03  0.91974575433E+02 0.  0.
    9000005    2    3    3    0    0  0.13437451369E+02 -0.43251457348E+02  0.14735253446E+03  0.15455305854E+03  0.11073609676E+02 0.  0.
         22    1    3    3    0    0 -0.13437451369E+02  0.43251457348E+02  0.15426599652E+03  0.16077702368E+03  0.00000000000E+00 0. -1.
         22    1    4    4    0    0  0.72475832581E+01 -0.97962740779E+01  0.48578117928E+02  0.50083210663E+02  0.00000000000E+00 0.  1.
         22    1    4    4    0    0  0.61898681105E+01 -0.33455183270E+02  0.98774416528E+02  0.10446984788E+03  0.00000000000E+00 0.  1.
<mgrwt>
<rscale>  0 0.91974575E+02</rscale>
<asrwt>0</asrwt>
<pdfrwt beam="1">  1        1 0.47457574E-01 0.91974575E+02</pdfrwt>
<pdfrwt beam="2">  1       -1 0.10547350E-02 0.91974575E+02</pdfrwt>
<totfact> 0.12584389E+05</totfact>
</mgrwt>
</event>
<event>
 7    1  0.3607059E-009  0.9973341E+02  0.7818608E-02  0.1280858E+00
         -1   -1    0    0    0  501 -0.00000000000E+00  0.00000000000E+00  0.15437788216E+03  0.15437788224E+03  0.50400000000E-02 0.  1.
          1   -1    0    0  501    0  0.00000000000E+00 -0.00000000000E+00 -0.16107801765E+02  0.16107802554E+02  0.50400000000E-02 0. -1.
         23    2    1    2    0    0  0.00000000000E+00  0.00000000000E+00  0.13827008040E+03  0.17048568480E+03  0.99733412597E+02 0.  0.
    9000005    2    3    3    0    0  0.80576230657E+01 -0.47885786700E+02  0.49900755625E+02  0.69653589620E+02  0.18876646090E+01 0.  0.
         22    1    3    3    0    0 -0.80576230657E+01  0.47885786700E+02  0.88369324772E+02  0.10083209518E+03  0.00000000000E+00 0. -1.
         22    1    4    4    0    0  0.69078570116E+01 -0.43543351702E+02  0.45786434894E+02  0.63562092369E+02  0.00000000000E+00 0. -1.
         22    1    4    4    0    0  0.11497660541E+01 -0.43424349979E+01  0.41143207307E+01  0.60914972515E+01  0.00000000000E+00 0. -1.
<mgrwt>
<rscale>  0 0.99733413E+02</rscale>
<asrwt>0</asrwt>
<pdfrwt beam="2">  1        1 0.24781233E-02 0.99733413E+02</pdfrwt>
<pdfrwt beam="1">  1       -1 0.23750445E-01 0.99733413E+02</pdfrwt>
<totfact> 0.58809506E+04</totfact>
</mgrwt>
</event>
<event>
 7    1  0.3607059E-009  0.9214966E+02  0.7818608E-02  0.1297728E+00
          1   -1    0    0  501    0  0.00000000000E+00  0.00000000000E+00  0.50557862666E+02  0.50557862917E+02  0.50400000000E-02 0. -1.
         -1   -1    0    0    0  501 -0.00000000000E+00 -0.00000000000E+00 -0.41989314183E+02  0.41989314486E+02  0.50400000000E-02 0.  1.
         23    2    1    2    0    0  0.17763568394E-14  0.00000000000E+00  0.85685484825E+01  0.92547177403E+02  0.92149660999E+02 0.  0.
    9000005    2    3    3    0    0 -0.13338376133E+02  0.35902769457E+02 -0.20892353480E+02  0.44226727519E+02  0.72520245879E+01 0.  0.
         22    1    3    3    0    0  0.13338376133E+02 -0.35902769457E+02  0.29460901962E+02  0.48320449884E+02  0.00000000000E+00 0. -1.
         22    1    4    4    0    0 -0.47811929796E+01  0.56330533481E+01 -0.25655167627E+01  0.78213152724E+01  0.00000000000E+00 0.  1.
         22    1    4    4    0    0 -0.85571831531E+01  0.30269716109E+02 -0.18326836717E+02  0.36405412247E+02  0.00000000000E+00 0.  1.
<mgrwt>
<rscale>  0 0.92149661E+02</rscale>
<asrwt>0</asrwt>
<pdfrwt beam="1">  1        1 0.77781328E-02 0.92149661E+02</pdfrwt>
<pdfrwt beam="2">  1       -1 0.64598945E-02 0.92149661E+02</pdfrwt>
<totfact> 0.91171237E+04</totfact>
</mgrwt>
</event>
<event>
 7    1  0.3607059E-009  0.9111613E+02  0.7818608E-02  0.1300171E+00
         -1   -1    0    0    0  501 -0.00000000000E+00  0.00000000000E+00  0.31043157895E+02  0.31043158304E+02  0.50400000000E-02 0.  1.
          1   -1    0    0  501    0  0.00000000000E+00 -0.00000000000E+00 -0.66859731242E+02  0.66859731432E+02  0.50400000000E-02 0. -1.
         23    2    1    2    0    0  0.00000000000E+00  0.00000000000E+00 -0.35816573347E+02  0.97902889736E+02  0.91116128607E+02 0.  0.
    9000005    2    3    3    0    0 -0.17872688798E+02  0.17194607033E+01 -0.62257588898E+02  0.65941712453E+02  0.12243876672E+02 0.  0.
         22    1    3    3    0    0  0.17872688798E+02 -0.17194607033E+01  0.26441015550E+02  0.31961177283E+02  0.00000000000E+00 0.  1.
         22    1    4    4    0    0 -0.12098444559E+02 -0.57724252208E+00 -0.21196525028E+02  0.24413075246E+02  0.00000000000E+00 0. -1.
         22    1    4    4    0    0 -0.57742442388E+01  0.22967032254E+01 -0.41061063870E+02  0.41528637208E+02  0.00000000000E+00 0. -1.
<mgrwt>
<rscale>  0 0.91116129E+02</rscale>
<asrwt>0</asrwt>
<pdfrwt beam="2">  1        1 0.10286113E-01 0.91116129E+02</pdfrwt>
<pdfrwt beam="1">  1       -1 0.47758705E-02 0.91116129E+02</pdfrwt>
<totfact> 0.98153471E+04</totfact>
</mgrwt>
</event>
<event>
 7    1  0.3607059E-009  0.9053075E+02  0.7818608E-02  0.1301571E+00
          1   -1    0    0  501    0  0.00000000000E+00  0.00000000000E+00  0.60632468556E+03  0.60632468558E+03  0.50400000000E-02 0. -1.
         -1   -1    0    0    0  501 -0.00000000000E+00 -0.00000000000E+00 -0.33793001669E+01  0.33793039253E+01  0.50400000000E-02 0.  1.
         23    2    1    2    0    0 -0.17763568394E-14  0.00000000000E+00  0.60294538539E+03  0.60970398950E+03  0.90530751973E+02 0.  0.
    9000005    2    3    3    0    0  0.15085036673E+02  0.26739256668E+02  0.52281730219E+03  0.52389573876E+03  0.13647983054E+02 0.  0.
         22    1    3    3    0    0 -0.15085036673E+02 -0.26739256668E+02  0.80128083201E+02  0.85808250746E+02  0.00000000000E+00 0.  1.
         22    1    4    4    0    0  0.14371622391E+02  0.28363821371E+02  0.49014730223E+03  0.49117759291E+03  0.00000000000E+00 0.  1.
         22    1    4    4    0    0  0.71341428176E+00 -0.16245647032E+01  0.32669999959E+02  0.32718145848E+02  0.00000000000E+00 0.  1.
<mgrwt>
<rscale>  0 0.90530752E+02</rscale>
<asrwt>0</asrwt>
<pdfrwt beam="1">  1        1 0.93280693E-01 0.90530752E+02</pdfrwt>
<pdfrwt beam="2">  1       -1 0.51989278E-03 0.90530752E+02</pdfrwt>
<totfact> 0.14436330E+05</totfact>
</mgrwt>
</event>
<event>
 7    1  0.3607059E-009  0.9158745E+02  0.7818608E-02  0.1299052E+00
          1   -1    0    0  501    0  0.00000000000E+00  0.00000000000E+00  0.27909008934E+03  0.27909008939E+03  0.50400000000E-02 0. -1.
         -1   -1    0    0    0  501 -0.00000000000E+00 -0.00000000000E+00 -0.75139355606E+01  0.75139372509E+01  0.50400000000E-02 0.  1.
         23    2    1    2    0    0  0.00000000000E+00  0.27755575616E-16  0.27157615378E+03  0.28660402664E+03  0.91587448827E+02 0.  0.
    9000005    2    3    3    0    0 -0.45059113928E+02  0.24072701031E+00  0.12481997559E+03  0.13308608784E+03  0.10074659854E+02 0.  0.
         22    1    3    3    0    0  0.45059113928E+02 -0.24072701031E+00  0.14675617819E+03  0.15351793880E+03  0.00000000000E+00 0. -1.
         22    1    4    4    0    0 -0.28968665670E+02  0.19460715592E+01  0.92373444168E+02  0.96828838538E+02  0.00000000000E+00 0.  1.
         22    1    4    4    0    0 -0.16090448258E+02 -0.17053445489E+01  0.32446531425E+02  0.36257249298E+02  0.00000000000E+00 0.  1.
<mgrwt>
<rscale>  0 0.91587449E+02</rscale>
<asrwt>0</asrwt>
<pdfrwt beam="1">  1        1 0.42936929E-01 0.91587449E+02</pdfrwt>
<pdfrwt beam="2">  1       -1 0.11559904E-02 0.91587449E+02</pdfrwt>
<totfact> 0.12484675E+05</totfact>
</mgrwt>
</event>
<event>
 7    1  0.3607059E-009  0.8942906E+02  0.7818608E-02  0.1304240E+00
         -1   -1    0    0    0  501 -0.00000000000E+00  0.00000000000E+00  0.38326955883E+01  0.38326989021E+01  0.50400000000E-02 0.  1.
          1   -1    0    0  501    0  0.00000000000E+00 -0.00000000000E+00 -0.52166629214E+03  0.52166629217E+03  0.50400000000E-02 0. -1.
         23    2    1    2    0    0  0.00000000000E+00  0.71054273576E-14 -0.51783359656E+03  0.52549899107E+03  0.89429055089E+02 0.  0.
    9000005    2    3    3    0    0 -0.22949028539E+02 -0.34046655047E+02 -0.36118259096E+03  0.36355650071E+03  0.58849437818E+01 0.  0.
         22    1    3    3    0    0  0.22949028539E+02  0.34046655047E+02 -0.15665100560E+03  0.16194249036E+03  0.00000000000E+00 0.  1.
         22    1    4    4    0    0 -0.35526959138E+01 -0.90118279115E+01 -0.96983195047E+02  0.97465762256E+02  0.00000000000E+00 0. -1.
         22    1    4    4    0    0 -0.19396332625E+02 -0.25034827136E+02 -0.26419939591E+03  0.26609073845E+03  0.00000000000E+00 0. -1.
<mgrwt>
<rscale>  0 0.89429055E+02</rscale>
<asrwt>0</asrwt>
<pdfrwt beam="2">  1        1 0.80256297E-01 0.89429055E+02</pdfrwt>
<pdfrwt beam="1">  1       -1 0.58964614E-03 0.89429055E+02</pdfrwt>
<totfact> 0.14728231E+05</totfact>
</mgrwt>
</event>
<event>
 7    1  0.3607059E-009  0.9458170E+02  0.7818608E-02  0.1292121E+00
         -1   -1    0    0    0  501 -0.00000000000E+00  0.00000000000E+00  0.19505867708E+02  0.19505868359E+02  0.50400000000E-02 0.  1.
          1   -1    0    0  501    0  0.00000000000E+00 -0.00000000000E+00 -0.11465393141E+03  0.11465393152E+03  0.50400000000E-02 0. -1.
         23    2    1    2    0    0  0.00000000000E+00  0.00000000000E+00 -0.95148063699E+02  0.13415979988E+03  0.94581699484E+02 0.  0.
    9000005    2    3    3    0    0 -0.36289989397E+02  0.18787787514E+02 -0.15024026039E+02  0.44216452701E+02  0.77090233473E+01 0.  0.
         22    1    3    3    0    0  0.36289989397E+02 -0.18787787514E+02 -0.80124037661E+02  0.89943347176E+02  0.00000000000E+00 0. -1.
         22    1    4    4    0    0 -0.31667357486E+02  0.18503413404E+02 -0.11637246801E+02  0.38478868887E+02  0.00000000000E+00 0.  1.
         22    1    4    4    0    0 -0.46226319113E+01  0.28437411034E+00 -0.33867792376E+01  0.57375838143E+01  0.00000000000E+00 0.  1.
<mgrwt>
<rscale>  0 0.94581699E+02</rscale>
<asrwt>0</asrwt>
<pdfrwt beam="2">  1        1 0.17639066E-01 0.94581699E+02</pdfrwt>
<pdfrwt beam="1">  1       -1 0.30009028E-02 0.94581699E+02</pdfrwt>
<totfact> 0.96734110E+04</totfact>
</mgrwt>
</event>
<event>
 7    1  0.3607059E-009  0.9362137E+02  0.7818608E-02  0.1294312E+00
          1   -1    0    0  501    0  0.00000000000E+00  0.00000000000E+00  0.18279076471E+03  0.18279076478E+03  0.50400000000E-02 0. -1.
         -1   -1    0    0    0  501 -0.00000000000E+00 -0.00000000000E+00 -0.11987696119E+02  0.11987697178E+02  0.50400000000E-02 0.  1.
         23    2    1    2    0    0  0.00000000000E+00  0.00000000000E+00  0.17080306859E+03  0.19477846196E+03  0.93621370435E+02 0.  0.
    9000005    2    3    3    0    0 -0.45188777405E+02  0.22786436954E+01  0.96783094684E+02  0.10802493547E+03  0.15975025715E+02 0.  0.
         22    1    3    3    0    0  0.45188777405E+02 -0.22786436954E+01  0.74019973906E+02  0.86753526484E+02  0.00000000000E+00 0. -1.
         22    1    4    4    0    0 -0.44810199391E+02  0.48445371101E+01  0.88056129479E+02  0.98920702829E+02  0.00000000000E+00 0. -1.
         22    1    4    4    0    0 -0.37857801349E+00 -0.25658934146E+01  0.87269652045E+01  0.91042326425E+01  0.00000000000E+00 0. -1.
<mgrwt>
<rscale>  0 0.93621370E+02</rscale>
<asrwt>0</asrwt>
<pdfrwt beam="1">  1        1 0.28121653E-01 0.93621370E+02</pdfrwt>
<pdfrwt beam="2">  1       -1 0.18442613E-02 0.93621370E+02</pdfrwt>
<totfact> 0.10836742E+05</totfact>
</mgrwt>
</event>
<event>
 7    1  0.3607059E-009  0.9199033E+02  0.7818608E-02  0.1298102E+00
         -1   -1    0    0    0  501 -0.00000000000E+00  0.00000000000E+00  0.29946275182E+02  0.29946275606E+02  0.50400000000E-02 0.  1.
          1   -1    0    0  501    0  0.00000000000E+00 -0.00000000000E+00 -0.70645015948E+02  0.70645016127E+02  0.50400000000E-02 0. -1.
         23    2    1    2    0    0 -0.11102230246E-15  0.00000000000E+00 -0.40698740766E+02  0.10059129173E+03  0.91990328147E+02 0.  0.
    9000005    2    3    3    0    0 -0.68680515988E+00  0.39314508930E+02  0.26277040329E+01  0.42082462206E+02  0.14762333253E+02 0.  0.
         22    1    3    3    0    0  0.68680515988E+00 -0.39314508930E+02 -0.43326444799E+02  0.58508829527E+02  0.00000000000E+00 0. -1.
         22    1    4    4    0    0  0.23280273002E+01  0.28109330209E+02 -0.43550166072E+01  0.28539802479E+02  0.00000000000E+00 0.  1.
         22    1    4    4    0    0 -0.30148324600E+01  0.11205178722E+02  0.69827206401E+01  0.13542659727E+02  0.00000000000E+00 0.  1.
<mgrwt>
<rscale>  0 0.91990328E+02</rscale>
<asrwt>0</asrwt>
<pdfrwt beam="2">  1        1 0.10868464E-01 0.91990328E+02</pdfrwt>
<pdfrwt beam="1">  1       -1 0.46071193E-02 0.91990328E+02</pdfrwt>
<totfact> 0.96412750E+04</totfact>
</mgrwt>
</event>
<event>
 7    1  0.3823926E-009  0.9077817E+02  0.7818608E-02  0.1300978E+00
          1   -1    0    0  501    0  0.00000000000E+00  0.00000000000E+00  0.23225936001E+02  0.23225936548E+02  0.50400000000E-02 0. -1.
         -1   -1    0    0    0  501 -0.00000000000E+00 -0.00000000000E+00 -0.88701234219E+02  0.88701234362E+02  0.50400000000E-02 0.  1.
         23    2    1    2    0    0  0.00000000000E+00  0.00000000000E+00 -0.65475298217E+02  0.11192717091E+03  0.90778174201E+02 0.  0.
    9000005    2    3    3    0    0 -0.17816993344E+02  0.22348604413E+02 -0.75163358230E+02  0.81748306156E+02  0.14708832992E+02 0.  0.
         22    1    3    3    0    0  0.17816993344E+02 -0.22348604413E+02  0.96880600126E+01  0.30178864754E+02  0.00000000000E+00 0. -1.
         22    1    4    4    0    0 -0.14219577805E+02  0.11414688783E+02 -0.60008797961E+02  0.62717998579E+02  0.00000000000E+00 0. -1.
         22    1    4    4    0    0 -0.35974155390E+01  0.10933915630E+02 -0.15154560269E+02  0.19030307577E+02  0.00000000000E+00 0. -1.
<mgrwt>
<rscale>  0 0.90778174E+02</rscale>
<asrwt>0</asrwt>
<pdfrwt beam="1">  1        1 0.35732210E-02 0.90778174E+02</pdfrwt>
<pdfrwt beam="2">  1       -1 0.13646344E-01 0.90778174E+02</pdfrwt>
<totfact> 0.84096003E+04</totfact>
</mgrwt>
</event>
<event>
 7    1  0.3607059E-009  0.8893717E+02  0.7818608E-02  0.1305446E+00
         -1   -1    0    0    0  501 -0.00000000000E+00  0.00000000000E+00  0.24831558594E+03  0.24831558599E+03  0.50400000000E-02 0.  1.
          1   -1    0    0  501    0  0.00000000000E+00 -0.00000000000E+00 -0.79634752817E+01  0.79634768766E+01  0.50400000000E-02 0. -1.
         23    2    1    2    0    0 -0.88817841970E-15  0.00000000000E+00  0.24035211066E+03  0.25627906287E+03  0.88937174267E+02 0.  0.
    9000005    2    3    3    0    0 -0.54402609954E+01  0.41000583415E+02  0.16030093655E+03  0.16617448609E+03  0.14384897935E+02 0.  0.
         22    1    3    3    0    0  0.54402609954E+01 -0.41000583415E+02  0.80051174107E+02  0.90104576776E+02  0.00000000000E+00 0. -1.
         22    1    4    4    0    0 -0.38494787856E+01  0.39411832899E+02  0.13270937821E+03  0.13849148033E+03  0.00000000000E+00 0.  1.
         22    1    4    4    0    0 -0.15907822098E+01  0.15887505157E+01  0.27591558346E+02  0.27683005766E+02  0.00000000000E+00 0.  1.
<mgrwt>
<rscale>  0 0.88937174E+02</rscale>
<asrwt>0</asrwt>
<pdfrwt beam="2">  1        1 0.12251498E-02 0.88937174E+02</pdfrwt>
<pdfrwt beam="1">  1       -1 0.38202408E-01 0.88937174E+02</pdfrwt>
<totfact> 0.69261867E+04</totfact>
</mgrwt>
</event>
<event>
 7    1  0.3607059E-009  0.9375100E+02  0.7818608E-02  0.1294014E+00
          1   -1    0    0  501    0  0.00000000000E+00  0.00000000000E+00  0.20997238735E+03  0.20997238741E+03  0.50400000000E-02 0. -1.
         -1   -1    0    0    0  501 -0.00000000000E+00 -0.00000000000E+00 -0.10464768478E+02  0.10464769692E+02  0.50400000000E-02 0.  1.
         23    2    1    2    0    0  0.71054273576E-14  0.35527136788E-14  0.19950761887E+03  0.22043715710E+03  0.93751001291E+02 0.  0.
    9000005    2    3    3    0    0 -0.38948049801E+02 -0.25730850833E+02  0.10967711822E+03  0.11920205393E+03  0.10159384046E+01 0.  0.
         22    1    3    3    0    0  0.38948049801E+02  0.25730850833E+02  0.89830500646E+02  0.10123510317E+03  0.00000000000E+00 0. -1.
         22    1    4    4    0    0 -0.85155973259E+01 -0.60950308964E+01  0.25015578966E+02  0.27119070604E+02  0.00000000000E+00 0.  1.
         22    1    4    4    0    0 -0.30432452475E+02 -0.19635819936E+02  0.84661539258E+02  0.92082983323E+02  0.00000000000E+00 0.  1.
<mgrwt>
<rscale>  0 0.93751001E+02</rscale>
<asrwt>0</asrwt>
<pdfrwt beam="1">  1        1 0.32303441E-01 0.93751001E+02</pdfrwt>
<pdfrwt beam="2">  1       -1 0.16099647E-02 0.93751001E+02</pdfrwt>
<totfact> 0.11091986E+05</totfact>
</mgrwt>
</event>
<event>
 7    1  0.3607059E-009  0.9235861E+02  0.7818608E-02  0.1297238E+00
         -1   -1    0    0    0  501 -0.00000000000E+00  0.00000000000E+00  0.53862800415E+01  0.53862823995E+01  0.50400000000E-02 0.  1.
          1   -1    0    0  501    0  0.00000000000E+00 -0.00000000000E+00 -0.39591845184E+03  0.39591845187E+03  0.50400000000E-02 0. -1.
         23    2    1    2    0    0  0.00000000000E+00  0.00000000000E+00 -0.39053217180E+03  0.40130473427E+03  0.92358608365E+02 0.  0.
    9000005    2    3    3    0    0  0.44547898733E+02  0.59981250910E+01 -0.22023991062E+03  0.22517992908E+03  0.13412287088E+02 0.  0.
         22    1    3    3    0    0 -0.44547898733E+02 -0.59981250910E+01 -0.17029226118E+03  0.17612480519E+03  0.00000000000E+00 0.  1.
         22    1    4    4    0    0  0.25961917690E+02  0.86002832514E+01 -0.15017673937E+03  0.15264677884E+03  0.00000000000E+00 0. -1.
         22    1    4    4    0    0  0.18585981042E+02 -0.26021581603E+01 -0.70063171247E+02  0.72533150239E+02  0.00000000000E+00 0. -1.
<mgrwt>
<rscale>  0 0.92358608E+02</rscale>
<asrwt>0</asrwt>
<pdfrwt beam="2">  1        1 0.60910508E-01 0.92358608E+02</pdfrwt>
<pdfrwt beam="1">  1       -1 0.82865896E-03 0.92358608E+02</pdfrwt>
<totfact> 0.13013157E+05</totfact>
</mgrwt>
</event>
<event>
 7    1  0.3607059E-009  0.9097092E+02  0.7818608E-02  0.1300517E+00
         -1   -1    0    0    0  501 -0.00000000000E+00  0.00000000000E+00  0.99287503461E+01  0.99287516253E+01  0.50400000000E-02 0.  1.
          1   -1    0    0  501    0  0.00000000000E+00 -0.00000000000E+00 -0.20837739544E+03  0.20837739550E+03  0.50400000000E-02 0. -1.
         23    2    1    2    0    0 -0.44408920985E-15  0.00000000000E+00 -0.19844864509E+03  0.21830614713E+03  0.90970924660E+02 0.  0.
    9000005    2    3    3    0    0 -0.33200380527E+01  0.19181483821E+02 -0.19731874637E+03  0.19880669469E+03  0.14507315744E+02 0.  0.
         22    1    3    3    0    0  0.33200380527E+01 -0.19181483821E+02 -0.11298987251E+01  0.19499452438E+02  0.00000000000E+00 0.  1.
         22    1    4    4    0    0 -0.52732311170E+01  0.65696328099E+01 -0.13103522208E+03  0.13130573661E+03  0.00000000000E+00 0. -1.
         22    1    4    4    0    0  0.19531930643E+01  0.12611851011E+02 -0.66283524285E+02  0.67500958073E+02  0.00000000000E+00 0. -1.
<mgrwt>
<rscale>  0 0.90970925E+02</rscale>
<asrwt>0</asrwt>
<pdfrwt beam="2">  1        1 0.32058058E-01 0.90970925E+02</pdfrwt>
<pdfrwt beam="1">  1       -1 0.15275003E-02 0.90970925E+02</pdfrwt>
<totfact> 0.12007932E+05</totfact>
</mgrwt>
</event>
<event>
 7    1  0.3607059E-009  0.9165901E+02  0.7818608E-02  0.1298883E+00
          1   -1    0    0  501    0  0.00000000000E+00  0.00000000000E+00  0.38421564720E+01  0.38421597776E+01  0.50400000000E-02 0. -1.
         -1   -1    0    0    0  501 -0.00000000000E+00 -0.00000000000E+00 -0.54665719514E+03  0.54665719516E+03  0.50400000000E-02 0.  1.
         23    2    1    2    0    0  0.00000000000E+00  0.00000000000E+00 -0.54281503866E+03  0.55049935494E+03  0.91659007119E+02 0.  0.
    9000005    2    3    3    0    0 -0.34433959331E+02 -0.12703960274E+02 -0.43100186140E+03  0.43281641322E+03  0.14844354421E+02 0.  0.
         22    1    3    3    0    0  0.34433959331E+02  0.12703960274E+02 -0.11181317726E+03  0.11768294172E+03  0.00000000000E+00 0. -1.
         22    1    4    4    0    0 -0.32015713227E+02 -0.84610959767E+01 -0.40558546769E+03  0.40693509021E+03  0.00000000000E+00 0. -1.
         22    1    4    4    0    0 -0.24182461041E+01 -0.42428642969E+01 -0.25416393708E+02  0.25881323011E+02  0.00000000000E+00 0. -1.
<mgrwt>
<rscale>  0 0.91659007E+02</rscale>
<asrwt>0</asrwt>
<pdfrwt beam="1">  1        1 0.59110169E-03 0.91659007E+02</pdfrwt>
<pdfrwt beam="2">  1       -1 0.84101046E-01 0.91659007E+02</pdfrwt>
<totfact> 0.43809002E+04</totfact>
</mgrwt>
</event>
<event>
 7    1  0.3607059E-009  0.9175025E+02  0.7818608E-02  0.1298668E+00
          1   -1    0    0  501    0  0.00000000000E+00  0.00000000000E+00  0.11482396272E+03  0.11482396283E+03  0.50400000000E-02 0. -1.
         -1   -1    0    0    0  501 -0.00000000000E+00 -0.00000000000E+00 -0.18328291072E+02  0.18328291765E+02  0.50400000000E-02 0.  1.
         23    2    1    2    0    0  0.00000000000E+00  0.00000000000E+00  0.96495671647E+02  0.13315225460E+03  0.91750249358E+02 0.  0.
    9000005    2    3    3    0    0  0.14166020386E+02 -0.23710350483E+01  0.11116106341E+03  0.11262491535E+03  0.11013246516E+02 0.  0.
         22    1    3    3    0    0 -0.14166020386E+02  0.23710350483E+01 -0.14665391764E+02  0.20527339242E+02  0.00000000000E+00 0.  1.
         22    1    4    4    0    0  0.28195125802E+01 -0.55958934216E+01  0.35185834545E+02  0.35739426786E+02  0.00000000000E+00 0. -1.
         22    1    4    4    0    0  0.11346507806E+02  0.32248583732E+01  0.75975228867E+02  0.76885488567E+02  0.00000000000E+00 0. -1.
<mgrwt>
<rscale>  0 0.91750249E+02</rscale>
<asrwt>0</asrwt>
<pdfrwt beam="1">  1        1 0.17665225E-01 0.91750249E+02</pdfrwt>
<pdfrwt beam="2">  1       -1 0.28197371E-02 0.91750249E+02</pdfrwt>
<totfact> 0.10511411E+05</totfact>
</mgrwt>
</event>
<event>
 7    1  0.3607059E-009  0.9317074E+02  0.7818608E-02  0.1295350E+00
         -1   -1    0    0    0  501 -0.00000000000E+00  0.00000000000E+00  0.87076488608E+01  0.87076503194E+01  0.50400000000E-02 0.  1.
          1   -1    0    0  501    0  0.00000000000E+00 -0.00000000000E+00 -0.24922873998E+03  0.24922874003E+03  0.50400000000E-02 0. -1.
         23    2    1    2    0    0  0.00000000000E+00  0.44408920985E-15 -0.24052109112E+03  0.25793639035E+03  0.93170736790E+02 0.  0.
    9000005    2    3    3    0    0 -0.41899808230E+02  0.23606406735E+01 -0.76660222473E+02  0.88786897807E+02  0.15657488898E+02 0.  0.
         22    1    3    3    0    0  0.41899808230E+02 -0.23606406735E+01 -0.16386086865E+03  0.16914949255E+03  0.00000000000E+00 0.  1.
         22    1    4    4    0    0 -0.47456932709E+01 -0.20582145836E+01 -0.21641255903E+02  0.22250883330E+02  0.00000000000E+00 0.  1.
         22    1    4    4    0    0 -0.37154114959E+02  0.44188552570E+01 -0.55018966570E+02  0.66536014478E+02  0.00000000000E+00 0.  1.
<mgrwt>
<rscale>  0 0.93170737E+02</rscale>
<asrwt>0</asrwt>
<pdfrwt beam="2">  1        1 0.38342878E-01 0.93170737E+02</pdfrwt>
<pdfrwt beam="1">  1       -1 0.13396386E-02 0.93170737E+02</pdfrwt>
<totfact> 0.11664268E+05</totfact>
</mgrwt>
</event>
<event>
 7    1  0.3607059E-009  0.9135465E+02  0.7818608E-02  0.1299604E+00
          1   -1    0    0  501    0  0.00000000000E+00  0.00000000000E+00  0.48278077643E+02  0.48278077906E+02  0.50400000000E-02 0. -1.
         -1   -1    0    0    0  501 -0.00000000000E+00 -0.00000000000E+00 -0.43216676954E+02  0.43216677247E+02  0.50400000000E-02 0.  1.
         23    2    1    2    0    0  0.00000000000E+00  0.00000000000E+00  0.50614006894E+01  0.91494755154E+02  0.91354652009E+02 0.  0.
    9000005    2    3    3    0    0  0.18264267622E+02  0.35621851459E+02 -0.18609710210E+02  0.44988612932E+02  0.86691525695E+01 0.  0.
         22    1    3    3    0    0 -0.18264267622E+02 -0.35621851459E+02  0.23671110899E+02  0.46506142222E+02  0.00000000000E+00 0. -1.
         22    1    4    4    0    0  0.33804149177E+01  0.10654064769E+02 -0.90738569436E+01  0.14396915675E+02  0.00000000000E+00 0.  1.
         22    1    4    4    0    0  0.14883852704E+02  0.24967786691E+02 -0.95358532659E+01  0.30591697257E+02  0.00000000000E+00 0.  1.
<mgrwt>
<rscale>  0 0.91354652E+02</rscale>
<asrwt>0</asrwt>
<pdfrwt beam="1">  1        1 0.74273966E-02 0.91354652E+02</pdfrwt>
<pdfrwt beam="2">  1       -1 0.66487196E-02 0.91354652E+02</pdfrwt>
<totfact> 0.92764041E+04</totfact>
</mgrwt>
</event>
<event>
 7    1  0.3607059E-009  0.9887149E+02  0.7818608E-02  0.1282687E+00
          1   -1    0    0  501    0  0.00000000000E+00  0.00000000000E+00  0.32209460716E+03  0.32209460720E+03  0.50400000000E-02 0.  1.
         -1   -1    0    0    0  501 -0.00000000000E+00 -0.00000000000E+00 -0.75874990296E+01  0.75875007036E+01  0.50400000000E-02 0. -1.
         23    2    1    2    0    0  0.00000000000E+00  0.00000000000E+00  0.31450710813E+03  0.32968210790E+03  0.98871488341E+02 0.  0.
    9000005    2    3    3    0    0 -0.16588703775E+02 -0.19082052360E+02  0.29829913941E+03  0.29964865880E+03  0.12947290447E+02 0.  0.
         22    1    3    3    0    0  0.16588703775E+02  0.19082052360E+02  0.16207968718E+02  0.30033449105E+02  0.00000000000E+00 0. -1.
         22    1    4    4    0    0 -0.46581455031E+01 -0.14462271760E+02  0.18711284100E+03  0.18772871622E+03  0.00000000000E+00 0.  1.
         22    1    4    4    0    0 -0.11930558271E+02 -0.46197806004E+01  0.11118629841E+03  0.11191994258E+03  0.00000000000E+00 0.  1.
<mgrwt>
<rscale>  0 0.98871488E+02</rscale>
<asrwt>0</asrwt>
<pdfrwt beam="1">  1        1 0.49553021E-01 0.98871488E+02</pdfrwt>
<pdfrwt beam="2">  1       -1 0.11673076E-02 0.98871488E+02</pdfrwt>
<totfact> 0.10455358E+05</totfact>
</mgrwt>
</event>
<event>
 7    1  0.3607059E-009  0.9053607E+02  0.7818608E-02  0.1301559E+00
         -1   -1    0    0    0  501 -0.00000000000E+00  0.00000000000E+00  0.14860339700E+02  0.14860340554E+02  0.50400000000E-02 0.  1.
          1   -1    0    0  501    0  0.00000000000E+00 -0.00000000000E+00 -0.13789691968E+03  0.13789691977E+03  0.50400000000E-02 0. -1.
         23    2    1    2    0    0  0.00000000000E+00  0.00000000000E+00 -0.12303657998E+03  0.15275726033E+03  0.90536073304E+02 0.  0.
    9000005    2    3    3    0    0  0.35222818518E+02  0.14844554851E+02 -0.10141426320E+03  0.10884220214E+03  0.10038148816E+02 0.  0.
         22    1    3    3    0    0 -0.35222818518E+02 -0.14844554851E+02 -0.21622316776E+02  0.43915058190E+02  0.00000000000E+00 0.  1.
         22    1    4    4    0    0  0.49062841840E+01  0.54861323739E+01 -0.26093220395E+02  0.27111352299E+02  0.00000000000E+00 0. -1.
         22    1    4    4    0    0  0.30316534334E+02  0.93584224770E+01 -0.75321042809E+02  0.81730849837E+02  0.00000000000E+00 0. -1.
<mgrwt>
<rscale>  0 0.90536073E+02</rscale>
<asrwt>0</asrwt>
<pdfrwt beam="2">  1        1 0.21214910E-01 0.90536073E+02</pdfrwt>
<pdfrwt beam="1">  1       -1 0.22862063E-02 0.90536073E+02</pdfrwt>
<totfact> 0.11255082E+05</totfact>
</mgrwt>
</event>
<event>
 7    1  0.3607059E-009  0.9211350E+02  0.7818608E-02  0.1297813E+00
         -1   -1    0    0    0  501 -0.00000000000E+00  0.00000000000E+00  0.46032669403E+01  0.46032696994E+01  0.50400000000E-02 0.  1.
          1   -1    0    0  501    0  0.00000000000E+00 -0.00000000000E+00 -0.46080826401E+03  0.46080826404E+03  0.50400000000E-02 0. -1.
         23    2    1    2    0    0  0.00000000000E+00  0.00000000000E+00 -0.45620499707E+03  0.46541153374E+03  0.92113497295E+02 0.  0.
    9000005    2    3    3    0    0  0.33839975792E+02 -0.88007605736E+01 -0.37680373883E+03  0.37865234311E+03  0.13188707203E+02 0.  0.
         22    1    3    3    0    0 -0.33839975792E+02  0.88007605736E+01 -0.79401258241E+02  0.86759190629E+02  0.00000000000E+00 0.  1.
         22    1    4    4    0    0  0.11861998066E+02  0.28855423672E+01 -0.10352727072E+03  0.10424456406E+03  0.00000000000E+00 0. -1.
         22    1    4    4    0    0  0.21977977727E+02 -0.11686302941E+02 -0.27327646811E+03  0.27440777905E+03  0.00000000000E+00 0. -1.
<mgrwt>
<rscale>  0 0.92113497E+02</rscale>
<asrwt>0</asrwt>
<pdfrwt beam="2">  1        1 0.70893543E-01 0.92113497E+02</pdfrwt>
<pdfrwt beam="1">  1       -1 0.70819549E-03 0.92113497E+02</pdfrwt>
<totfact> 0.13412704E+05</totfact>
</mgrwt>
</event>
<event>
 7    1  0.3607059E-009  0.9191247E+02  0.7818608E-02  0.1298285E+00
          1   -1    0    0  501    0  0.00000000000E+00  0.00000000000E+00  0.49753589655E+03  0.49753589658E+03  0.50400000000E-02 0. -1.
         -1   -1    0    0    0  501 -0.00000000000E+00 -0.00000000000E+00 -0.42448694373E+01  0.42448724293E+01  0.50400000000E-02 0.  1.
         23    2    1    2    0    0  0.17763568394E-14 -0.71054273576E-14  0.49329102712E+03  0.50178076901E+03  0.91912473110E+02 0.  0.
    9000005    2    3    3    0    0  0.91883699266E+01 -0.32931650624E+02  0.41246307374E+03  0.41401928656E+03  0.10828789811E+02 0.  0.
         22    1    3    3    0    0 -0.91883699266E+01  0.32931650624E+02  0.80827953376E+02  0.87761482449E+02  0.00000000000E+00 0.  1.
         22    1    4    4    0    0  0.11248686193E+02 -0.30796836167E+02  0.38617258389E+03  0.38756192100E+03  0.00000000000E+00 0.  1.
         22    1    4    4    0    0 -0.20603162668E+01 -0.21348144572E+01  0.26290489847E+02  0.26457365558E+02  0.00000000000E+00 0.  1.
<mgrwt>
<rscale>  0 0.91912473E+02</rscale>
<asrwt>0</asrwt>
<pdfrwt beam="1">  1        1 0.76543980E-01 0.91912473E+02</pdfrwt>
<pdfrwt beam="2">  1       -1 0.65305711E-03 0.91912473E+02</pdfrwt>
<totfact> 0.13624864E+05</totfact>
</mgrwt>
</event>
<event>
 7    1  0.3607059E-009  0.8892875E+02  0.7818608E-02  0.1305467E+00
          1   -1    0    0  501    0  0.00000000000E+00  0.00000000000E+00  0.62759178632E+01  0.62759198869E+01  0.50400000000E-02 0. -1.
         -1   -1    0    0    0  501 -0.00000000000E+00 -0.00000000000E+00 -0.31502649422E+03  0.31502649426E+03  0.50400000000E-02 0.  1.
         23    2    1    2    0    0  0.55511151231E-16  0.00000000000E+00 -0.30875057635E+03  0.32130241414E+03  0.88928752022E+02 0.  0.
    9000005    2    3    3    0    0 -0.27046653590E+00  0.43052962140E+02 -0.12902660933E+03  0.13649349925E+03  0.11356879921E+02 0.  0.
         22    1    3    3    0    0  0.27046653590E+00 -0.43052962140E+02 -0.17972396702E+03  0.18480891489E+03  0.00000000000E+00 0.  1.
         22    1    4    4    0    0 -0.65982821508E+00 -0.14693266941E+00 -0.72376020939E+01  0.72691021834E+01  0.00000000000E+00 0.  1.
         22    1    4    4    0    0  0.38936167918E+00  0.43199894809E+02 -0.12178900724E+03  0.12922439707E+03  0.00000000000E+00 0.  1.
<mgrwt>
<rscale>  0 0.88928752E+02</rscale>
<asrwt>0</asrwt>
<pdfrwt beam="1">  1        1 0.96552623E-03 0.88928752E+02</pdfrwt>
<pdfrwt beam="2">  1       -1 0.48465602E-01 0.88928752E+02</pdfrwt>
<totfact> 0.63412186E+04</totfact>
</mgrwt>
</event>
<event>
 7    1  0.3607059E-009  0.9083416E+02  0.7818608E-02  0.1300844E+00
         -1   -1    0    0    0  501 -0.00000000000E+00  0.00000000000E+00  0.53296491653E+03  0.53296491655E+03  0.50400000000E-02 0.  1.
          1   -1    0    0  501    0  0.00000000000E+00 -0.00000000000E+00 -0.38702551201E+01  0.38702584018E+01  0.50400000000E-02 0. -1.
         23    2    1    2    0    0  0.00000000000E+00  0.00000000000E+00  0.52909466141E+03  0.53683517496E+03  0.90834158427E+02 0.  0.
    9000005    2    3    3    0    0  0.10481100366E+02 -0.33864884325E+02  0.42697462107E+03  0.42873713384E+03  0.15859351661E+02 0.  0.
         22    1    3    3    0    0 -0.10481100366E+02  0.33864884325E+02  0.10212004034E+03  0.10809804112E+03  0.00000000000E+00 0. -1.
         22    1    4    4    0    0  0.12740213439E+01 -0.22735747614E+02  0.19750739575E+03  0.19881576578E+03  0.00000000000E+00 0.  1.
         22    1    4    4    0    0  0.92070790221E+01 -0.11129136711E+02  0.22946722533E+03  0.22992136805E+03  0.00000000000E+00 0.  1.
<mgrwt>
<rscale>  0 0.90834158E+02</rscale>
<asrwt>0</asrwt>
<pdfrwt beam="2">  1        1 0.59542464E-03 0.90834158E+02</pdfrwt>
<pdfrwt beam="1">  1       -1 0.81994531E-01 0.90834158E+02</pdfrwt>
<totfact> 0.45620854E+04</totfact>
</mgrwt>
</event>
<event>
 7    1  0.3607059E-009  0.9381465E+02  0.7818608E-02  0.1293868E+00
          1   -1    0    0  501    0  0.00000000000E+00  0.00000000000E+00  0.58689578803E+03  0.58689578806E+03  0.50400000000E-02 0. -1.
         -1   -1    0    0    0  501 -0.00000000000E+00 -0.00000000000E+00 -0.37490405303E+01  0.37490439181E+01  0.50400000000E-02 0.  1.
         23    2    1    2    0    0  0.00000000000E+00  0.00000000000E+00  0.58314674750E+03  0.59064483197E+03  0.93814649246E+02 0.  0.
    9000005    2    3    3    0    0 -0.13381780569E+02 -0.41615723217E+02  0.38353139498E+03  0.38629897459E+03  0.14819796137E+02 0.  0.
         22    1    3    3    0    0  0.13381780569E+02  0.41615723217E+02  0.19961535252E+03  0.20434585739E+03  0.00000000000E+00 0.  1.
         22    1    4    4    0    0 -0.11720599946E+02 -0.30752868707E+02  0.33089975325E+03  0.33253234143E+03  0.00000000000E+00 0. -1.
         22    1    4    4    0    0 -0.16611806234E+01 -0.10862854510E+02  0.52631641737E+02  0.53766633158E+02  0.00000000000E+00 0. -1.
<mgrwt>
<rscale>  0 0.93814649E+02</rscale>
<asrwt>0</asrwt>
<pdfrwt beam="1">  1        1 0.90291625E-01 0.93814649E+02</pdfrwt>
<pdfrwt beam="2">  1       -1 0.57677595E-03 0.93814649E+02</pdfrwt>
<totfact> 0.13109019E+05</totfact>
</mgrwt>
</event>
<event>
 7    1  0.3607059E-009  0.9134626E+02  0.7818608E-02  0.1299624E+00
          1   -1    0    0  501    0  0.00000000000E+00  0.00000000000E+00  0.14633502044E+03  0.14633502052E+03  0.50400000000E-02 0. -1.
         -1   -1    0    0    0  501 -0.00000000000E+00 -0.00000000000E+00 -0.14255197175E+02  0.14255198066E+02  0.50400000000E-02 0.  1.
         23    2    1    2    0    0 -0.71054273576E-14  0.35527136788E-14  0.13207982326E+03  0.16059021859E+03  0.91346256594E+02 0.  0.
    9000005    2    3    3    0    0  0.38979590056E+02 -0.19424327925E+02  0.84334338275E+02  0.95965577060E+02  0.14156214600E+02 0.  0.
         22    1    3    3    0    0 -0.38979590056E+02  0.19424327925E+02  0.47745484986E+02  0.64624641530E+02  0.00000000000E+00 0. -1.
         22    1    4    4    0    0  0.65204369293E+01  0.18382759589E+01  0.94850728470E+01  0.11655984007E+02  0.00000000000E+00 0. -1.
         22    1    4    4    0    0  0.32459153127E+02 -0.21262603884E+02  0.74849265428E+02  0.84309593053E+02  0.00000000000E+00 0. -1.
<mgrwt>
<rscale>  0 0.91346257E+02</rscale>
<asrwt>0</asrwt>
<pdfrwt beam="1">  1        1 0.22513080E-01 0.91346257E+02</pdfrwt>
<pdfrwt beam="2">  1       -1 0.21931074E-02 0.91346257E+02</pdfrwt>
<totfact> 0.11106677E+05</totfact>
</mgrwt>
</event>
<event>
 7    1  0.3607059E-009  0.8945878E+02  0.7818608E-02  0.1304168E+00
          1   -1    0    0  501    0  0.00000000000E+00  0.00000000000E+00  0.18026072002E+03  0.18026072009E+03  0.50400000000E-02 0. -1.
         -1   -1    0    0    0  501 -0.00000000000E+00 -0.00000000000E+00 -0.11099023689E+02  0.11099024833E+02  0.50400000000E-02 0.  1.
         23    2    1    2    0    0  0.00000000000E+00  0.00000000000E+00  0.16916169634E+03  0.19135974493E+03  0.89458775263E+02 0.  0.
    9000005    2    3    3    0    0  0.28318580232E+02  0.13293145604E+02  0.16576004467E+02  0.35600176780E+02  0.37361686645E+01 0.  0.
         22    1    3    3    0    0 -0.28318580232E+02 -0.13293145604E+02  0.15258569187E+03  0.15575956815E+03  0.00000000000E+00 0. -1.
         22    1    4    4    0    0  0.15010934547E+02  0.53062227721E+01  0.72587996042E+01  0.17497837803E+02  0.00000000000E+00 0. -1.
         22    1    4    4    0    0  0.13307645686E+02  0.79869228314E+01  0.93172048628E+01  0.18102338978E+02  0.00000000000E+00 0. -1.
<mgrwt>
<rscale>  0 0.89458775E+02</rscale>
<asrwt>0</asrwt>
<pdfrwt beam="1">  1        1 0.27732418E-01 0.89458775E+02</pdfrwt>
<pdfrwt beam="2">  1       -1 0.17075422E-02 0.89458775E+02</pdfrwt>
<totfact> 0.12213420E+05</totfact>
</mgrwt>
</event>
<event>
 7    1  0.3607059E-009  0.9036216E+02  0.7818608E-02  0.1301977E+00
         -1   -1    0    0    0  501 -0.00000000000E+00  0.00000000000E+00  0.60277236592E+01  0.60277257663E+01  0.50400000000E-02 0.  1.
          1   -1    0    0  501    0  0.00000000000E+00 -0.00000000000E+00 -0.33865681350E+03  0.33865681354E+03  0.50400000000E-02 0. -1.
         23    2    1    2    0    0  0.00000000000E+00  0.17763568394E-14 -0.33262908984E+03  0.34468453930E+03  0.90362161477E+02 0.  0.
    9000005    2    3    3    0    0  0.32807510498E+02 -0.94647951235E+01 -0.27614769144E+03  0.27868405857E+03  0.15535183348E+02 0.  0.
         22    1    3    3    0    0 -0.32807510498E+02  0.94647951235E+01 -0.56481398401E+02  0.66000480734E+02  0.00000000000E+00 0.  1.
         22    1    4    4    0    0  0.23716677287E+02 -0.15506411310E+01 -0.21856263413E+03  0.21985110940E+03  0.00000000000E+00 0. -1.
         22    1    4    4    0    0  0.90908332107E+01 -0.79141539925E+01 -0.57585057314E+02  0.58832949167E+02  0.00000000000E+00 0. -1.
<mgrwt>
<rscale>  0 0.90362161E+02</rscale>
<asrwt>0</asrwt>
<pdfrwt beam="2">  1        1 0.52101034E-01 0.90362161E+02</pdfrwt>
<pdfrwt beam="1">  1       -1 0.92734253E-03 0.90362161E+02</pdfrwt>
<totfact> 0.13421624E+05</totfact>
</mgrwt>
</event>
<event>
 7    1  0.3607059E-009  0.9310769E+02  0.7818608E-02  0.1295496E+00
          1   -1    0    0  501    0  0.00000000000E+00  0.00000000000E+00  0.17869620616E+03  0.17869620623E+03  0.50400000000E-02 0. -1.
         -1   -1    0    0    0  501 -0.00000000000E+00 -0.00000000000E+00 -0.12128184022E+02  0.12128185069E+02  0.50400000000E-02 0.  1.
         23    2    1    2    0    0  0.17763568394E-14  0.00000000000E+00  0.16656802214E+03  0.19082439130E+03  0.93107692033E+02 0.  0.
    9000005    2    3    3    0    0  0.70120233657E+01  0.11447780994E+02  0.17436037345E+03  0.17530212019E+03  0.12209559765E+02 0.  0.
         22    1    3    3    0    0 -0.70120233657E+01 -0.11447780994E+02 -0.77923513179E+01  0.15522271111E+02  0.00000000000E+00 0.  1.
         22    1    4    4    0    0  0.82234599738E+01  0.12198562797E+02  0.17125014887E+03  0.17188089980E+03  0.00000000000E+00 0. -1.
         22    1    4    4    0    0 -0.12114366081E+01 -0.75078180216E+00  0.31102245846E+01  0.34212203870E+01  0.00000000000E+00 0. -1.
<mgrwt>
<rscale>  0 0.93107692E+02</rscale>
<asrwt>0</asrwt>
<pdfrwt beam="1">  1        1 0.27491724E-01 0.93107692E+02</pdfrwt>
<pdfrwt beam="2">  1       -1 0.18658746E-02 0.93107692E+02</pdfrwt>
<totfact> 0.10950779E+05</totfact>
</mgrwt>
</event>
<event>
 7    1  0.3607059E-009  0.9196894E+02  0.7818608E-02  0.1298152E+00
          1   -1    0    0  501    0  0.00000000000E+00  0.00000000000E+00  0.64270082629E+02  0.64270082827E+02  0.50400000000E-02 0. -1.
         -1   -1    0    0    0  501 -0.00000000000E+00 -0.00000000000E+00 -0.32901336226E+02  0.32901336612E+02  0.50400000000E-02 0.  1.
         23    2    1    2    0    0  0.00000000000E+00  0.00000000000E+00  0.31368746403E+02  0.97171419439E+02  0.91968943154E+02 0.  0.
    9000005    2    3    3    0    0 -0.14059288267E+02  0.42563036448E+02  0.22013742341E+02  0.51380680646E+02  0.12086928210E+02 0.  0.
         22    1    3    3    0    0  0.14059288267E+02 -0.42563036448E+02  0.93550040620E+01  0.45790738793E+02  0.00000000000E+00 0.  1.
         22    1    4    4    0    0 -0.67603979154E+01  0.58808187763E+01  0.32047047157E+01  0.95161516259E+01  0.00000000000E+00 0. -1.
         22    1    4    4    0    0 -0.72988903516E+01  0.36682217672E+02  0.18809037625E+02  0.41864529020E+02  0.00000000000E+00 0. -1.
<mgrwt>
<rscale>  0 0.91968943E+02</rscale>
<asrwt>0</asrwt>
<pdfrwt beam="1">  1        1 0.98877048E-02 0.91968943E+02</pdfrwt>
<pdfrwt beam="2">  1       -1 0.50617442E-02 0.91968943E+02</pdfrwt>
<totfact> 0.95076487E+04</totfact>
</mgrwt>
</event>
<event>
 7    1  0.3607059E-009  0.1063776E+03  0.7818608E-02  0.1267429E+00
          1   -1    0    0  501    0  0.00000000000E+00  0.00000000000E+00  0.76636887176E+02  0.76636887342E+02  0.50400000000E-02 0. -1.
         -1   -1    0    0    0  501 -0.00000000000E+00 -0.00000000000E+00 -0.36914993762E+02  0.36914994106E+02  0.50400000000E-02 0.  1.
         23    2    1    2    0    0  0.00000000000E+00 -0.17763568394E-14  0.39721893414E+02  0.11355188145E+03  0.10637763376E+03 0.  0.
    9000005    2    3    3    0    0  0.33885916823E+02 -0.92610771433E+01 -0.21709116743E+02  0.42786127600E+02  0.11195715989E+02 0.  0.
         22    1    3    3    0    0 -0.33885916823E+02  0.92610771433E+01  0.61431010157E+02  0.70765753848E+02  0.00000000000E+00 0. -1.
         22    1    4    4    0    0  0.19463869929E+02 -0.68095296449E+01 -0.63526850549E+01  0.21577037192E+02  0.00000000000E+00 0.  1.
         22    1    4    4    0    0  0.14422046894E+02 -0.24515474984E+01 -0.15356431688E+02  0.21209090408E+02  0.00000000000E+00 0.  1.
<mgrwt>
<rscale>  0 0.10637763E+03</rscale>
<asrwt>0</asrwt>
<pdfrwt beam="1">  1        1 0.11790290E-01 0.10637763E+03</pdfrwt>
<pdfrwt beam="2">  1       -1 0.56792299E-02 0.10637763E+03</pdfrwt>
<totfact> 0.65172730E+04</totfact>
</mgrwt>
</event>
<event>
 7    1  0.3607059E-009  0.8356902E+02  0.7818608E-02  0.1319218E+00
         -1   -1    0    0    0  501 -0.00000000000E+00  0.00000000000E+00  0.16871351259E+03  0.16871351266E+03  0.50400000000E-02 0.  1.
          1   -1    0    0  501    0  0.00000000000E+00 -0.00000000000E+00 -0.10348580034E+02  0.10348581262E+02  0.50400000000E-02 0. -1.
         23    2    1    2    0    0  0.00000000000E+00  0.00000000000E+00  0.15836493255E+03  0.17906209393E+03  0.83569023077E+02 0.  0.
    9000005    2    3    3    0    0 -0.27563842630E+02  0.10604604007E+02  0.14202782763E+03  0.14531118217E+03  0.84387675412E+01 0.  0.
         22    1    3    3    0    0  0.27563842630E+02 -0.10604604007E+02  0.16337104928E+02  0.33750911752E+02  0.00000000000E+00 0. -1.
         22    1    4    4    0    0 -0.13946745194E+02  0.98272202503E+01  0.76673708322E+02  0.78548987945E+02  0.00000000000E+00 0.  1.
         22    1    4    4    0    0 -0.13617097436E+02  0.77738375624E+00  0.65354119304E+02  0.66762194228E+02  0.00000000000E+00 0.  1.
<mgrwt>
<rscale>  0 0.83569023E+02</rscale>
<asrwt>0</asrwt>
<pdfrwt beam="2">  1        1 0.15920895E-02 0.83569023E+02</pdfrwt>
<pdfrwt beam="1">  1       -1 0.25955922E-01 0.83569023E+02</pdfrwt>
<totfact> 0.91091765E+04</totfact>
</mgrwt>
</event>
<event>
 7    1  0.3607059E-009  0.9739128E+02  0.7818608E-02  0.1285879E+00
          1   -1    0    0  501    0  0.00000000000E+00  0.00000000000E+00  0.45271228331E+02  0.45271228612E+02  0.50400000000E-02 0. -1.
         -1   -1    0    0    0  501 -0.00000000000E+00 -0.00000000000E+00 -0.52379080131E+02  0.52379080373E+02  0.50400000000E-02 0.  1.
         23    2    1    2    0    0  0.00000000000E+00  0.00000000000E+00 -0.71078517997E+01  0.97650308985E+02  0.97391279320E+02 0.  0.
    9000005    2    3    3    0    0 -0.39274312772E+02  0.18971276541E+02  0.15764973233E+02  0.48400465307E+02  0.13845204354E+02 0.  0.
         22    1    3    3    0    0  0.39274312772E+02 -0.18971276541E+02 -0.22872825033E+02  0.49249843678E+02  0.00000000000E+00 0.  1.
         22    1    4    4    0    0 -0.23052236197E+02  0.18076030620E+02  0.78469339657E+01  0.30326932738E+02  0.00000000000E+00 0.  1.
         22    1    4    4    0    0 -0.16222076575E+02  0.89524592063E+00  0.79180392676E+01  0.18073532569E+02  0.00000000000E+00 0.  1.
<mgrwt>
<rscale>  0 0.97391279E+02</rscale>
<asrwt>0</asrwt>
<pdfrwt beam="1">  1        1 0.69648044E-02 0.97391279E+02</pdfrwt>
<pdfrwt beam="2">  1       -1 0.80583201E-02 0.97391279E+02</pdfrwt>
<totfact> 0.76673585E+04</totfact>
</mgrwt>
</event>
<event>
 7    1  0.3607059E-009  0.9098729E+02  0.7818608E-02  0.1300478E+00
         -1   -1    0    0    0  501 -0.00000000000E+00  0.00000000000E+00  0.11284477122E+02  0.11284478247E+02  0.50400000000E-02 0.  1.
          1   -1    0    0  501    0  0.00000000000E+00 -0.00000000000E+00 -0.18340873685E+03  0.18340873692E+03  0.50400000000E-02 0. -1.
         23    2    1    2    0    0 -0.17763568394E-14  0.00000000000E+00 -0.17212425973E+03  0.19469321516E+03  0.90987291667E+02 0.  0.
    9000005    2    3    3    0    0  0.13454853469E+02 -0.25251397703E+02 -0.12121245443E+02  0.32152048848E+02  0.82561181070E+01 0.  0.
         22    1    3    3    0    0 -0.13454853469E+02  0.25251397703E+02 -0.16000301428E+03  0.16254116632E+03  0.00000000000E+00 0. -1.
         22    1    4    4    0    0 -0.97109879912E+00 -0.26244706817E+01 -0.25152136315E+00  0.28096516213E+01  0.00000000000E+00 0. -1.
         22    1    4    4    0    0  0.14425952268E+02 -0.22626927021E+02 -0.11869724079E+02  0.29342397226E+02  0.00000000000E+00 0. -1.
<mgrwt>
<rscale>  0 0.90987292E+02</rscale>
<asrwt>0</asrwt>
<pdfrwt beam="2">  1        1 0.28216727E-01 0.90987292E+02</pdfrwt>
<pdfrwt beam="1">  1       -1 0.17360736E-02 0.90987292E+02</pdfrwt>
<totfact> 0.11709685E+05</totfact>
</mgrwt>
</event>
<event>
 7    1  0.3607059E-009  0.9031603E+02  0.7818608E-02  0.1302088E+00
          1   -1    0    0  501    0  0.00000000000E+00  0.00000000000E+00  0.98560451824E+03  0.98560451825E+03  0.50400000000E-02 0. -1.
         -1   -1    0    0    0  501 -0.00000000000E+00 -0.00000000000E+00 -0.20690281613E+01  0.20690342998E+01  0.50400000000E-02 0.  1.
         23    2    1    2    0    0 -0.22204460493E-15  0.00000000000E+00  0.98353549008E+03  0.98767355255E+03  0.90316034942E+02 0.  0.
    9000005    2    3    3    0    0  0.17755288116E+01 -0.29893237857E+02  0.85937514366E+03  0.85995295987E+03  0.98334875727E+01 0.  0.
         22    1    3    3    0    0 -0.17755288116E+01  0.29893237857E+02  0.12416034641E+03  0.12772059268E+03  0.00000000000E+00 0.  1.
         22    1    4    4    0    0  0.40228407568E+01 -0.20196436846E+02  0.67000156268E+03  0.67031796433E+03  0.00000000000E+00 0. -1.
         22    1    4    4    0    0 -0.22473119452E+01 -0.96968010109E+01  0.18937358098E+03  0.18963499554E+03  0.00000000000E+00 0. -1.
<mgrwt>
<rscale>  0 0.90316035E+02</rscale>
<asrwt>0</asrwt>
<pdfrwt beam="1">  1        1 0.15163133E+00 0.90316035E+02</pdfrwt>
<pdfrwt beam="2">  1       -1 0.31831278E-03 0.90316035E+02</pdfrwt>
<totfact> 0.13999215E+05</totfact>
</mgrwt>
</event>
<event>
 7    1  0.3607059E-009  0.9115946E+02  0.7818608E-02  0.1300068E+00
         -1   -1    0    0    0  501 -0.00000000000E+00  0.00000000000E+00  0.10792745254E+03  0.10792745266E+03  0.50400000000E-02 0.  1.
          1   -1    0    0  501    0  0.00000000000E+00 -0.00000000000E+00 -0.19249148143E+02  0.19249148803E+02  0.50400000000E-02 0. -1.
         23    2    1    2    0    0  0.00000000000E+00  0.00000000000E+00  0.88678304395E+02  0.12717660146E+03  0.91159455286E+02 0.  0.
    9000005    2    3    3    0    0  0.30531723787E+02  0.31764304825E+02  0.53517936388E+02  0.70808093434E+02  0.14438121834E+02 0.  0.
         22    1    3    3    0    0 -0.30531723787E+02 -0.31764304825E+02  0.35160368007E+02  0.56368508024E+02  0.00000000000E+00 0. -1.
         22    1    4    4    0    0 -0.14213724650E+01  0.31551004367E+01  0.35481580251E+01  0.49562469492E+01  0.00000000000E+00 0.  1.
         22    1    4    4    0    0  0.31953096252E+02  0.28609204389E+02  0.49969778363E+02  0.65851846485E+02  0.00000000000E+00 0.  1.
<mgrwt>
<rscale>  0 0.91159455E+02</rscale>
<asrwt>0</asrwt>
<pdfrwt beam="2">  1        1 0.29614075E-02 0.91159455E+02</pdfrwt>
<pdfrwt beam="1">  1       -1 0.16604223E-01 0.91159455E+02</pdfrwt>
<totfact> 0.80242392E+04</totfact>
</mgrwt>
</event>
<event>
 7    1  0.3607059E-009  0.9000224E+02  0.7818608E-02  0.1302846E+00
         -1   -1    0    0    0  501 -0.00000000000E+00  0.00000000000E+00  0.29620153787E+02  0.29620154216E+02  0.50400000000E-02 0.  1.
          1   -1    0    0  501    0  0.00000000000E+00 -0.00000000000E+00 -0.68369013537E+02  0.68369013722E+02  0.50400000000E-02 0. -1.
         23    2    1    2    0    0  0.88817841970E-15 -0.35527136788E-14 -0.38748859750E+02  0.97989167938E+02  0.90002238313E+02 0.  0.
    9000005    2    3    3    0    0 -0.60585688933E+01  0.28801023283E+02 -0.55809024946E+02  0.63970725356E+02  0.10554678485E+02 0.  0.
         22    1    3    3    0    0  0.60585688933E+01 -0.28801023283E+02  0.17060165196E+02  0.34018442582E+02  0.00000000000E+00 0.  1.
         22    1    4    4    0    0  0.30095699139E+01  0.72306703337E+01 -0.15353456254E+02  0.17235681694E+02  0.00000000000E+00 0.  1.
         22    1    4    4    0    0 -0.90681388073E+01  0.21570352950E+02 -0.40455568692E+02  0.46735043661E+02  0.00000000000E+00 0.  1.
<mgrwt>
<rscale>  0 0.90002238E+02</rscale>
<asrwt>0</asrwt>
<pdfrwt beam="2">  1        1 0.10518310E-01 0.90002238E+02</pdfrwt>
<pdfrwt beam="1">  1       -1 0.45569468E-02 0.90002238E+02</pdfrwt>
<totfact> 0.10188529E+05</totfact>
</mgrwt>
</event>
<event>
 7    1  0.3607059E-009  0.9127490E+02  0.7818608E-02  0.1299793E+00
         -1   -1    0    0    0  501 -0.00000000000E+00  0.00000000000E+00  0.70893065679E+01  0.70893083594E+01  0.50400000000E-02 0.  1.
          1   -1    0    0  501    0  0.00000000000E+00 -0.00000000000E+00 -0.29379127595E+03  0.29379127599E+03  0.50400000000E-02 0. -1.
         23    2    1    2    0    0  0.00000000000E+00  0.00000000000E+00 -0.28670196938E+03  0.30088058435E+03  0.91274896838E+02 0.  0.
    9000005    2    3    3    0    0  0.36933514602E+02  0.25184909076E+02 -0.12425831794E+03  0.13239822907E+03  0.95287637685E+01 0.  0.
         22    1    3    3    0    0 -0.36933514602E+02 -0.25184909076E+02 -0.16244365144E+03  0.16848235528E+03  0.00000000000E+00 0.  1.
         22    1    4    4    0    0  0.21642544763E+02  0.16587161530E+02 -0.62336488040E+02  0.68039484218E+02  0.00000000000E+00 0.  1.
         22    1    4    4    0    0  0.15290969839E+02  0.85977475455E+01 -0.61921829898E+02  0.64358744855E+02  0.00000000000E+00 0.  1.
<mgrwt>
<rscale>  0 0.91274897E+02</rscale>
<asrwt>0</asrwt>
<pdfrwt beam="2">  1        1 0.45198649E-01 0.91274897E+02</pdfrwt>
<pdfrwt beam="1">  1       -1 0.10906629E-02 0.91274897E+02</pdfrwt>
<totfact> 0.12724532E+05</totfact>
</mgrwt>
</event>
<event>
 7    1  0.3607059E-009  0.8978133E+02  0.7818608E-02  0.1303382E+00
         -1   -1    0    0    0  501 -0.00000000000E+00  0.00000000000E+00  0.67872282689E+01  0.67872301402E+01  0.50400000000E-02 0.  1.
          1   -1    0    0  501    0  0.00000000000E+00 -0.00000000000E+00 -0.29690641109E+03  0.29690641114E+03  0.50400000000E-02 0. -1.
         23    2    1    2    0    0  0.00000000000E+00  0.00000000000E+00 -0.29011918282E+03  0.30369364128E+03  0.89781331628E+02 0.  0.
    9000005    2    3    3    0    0  0.42390394760E+02  0.11361382874E+02 -0.11803482075E+03  0.12610125895E+03  0.65789065488E+01 0.  0.
         22    1    3    3    0    0 -0.42390394760E+02 -0.11361382874E+02 -0.17208436207E+03  0.17759238232E+03  0.00000000000E+00 0. -1.
         22    1    4    4    0    0  0.33073076791E+02  0.69943425857E+01 -0.96113081199E+02  0.10188460931E+03  0.00000000000E+00 0. -1.
         22    1    4    4    0    0  0.93173179685E+01  0.43670402882E+01 -0.21921739551E+02  0.24216649644E+02  0.00000000000E+00 0. -1.
<mgrwt>
<rscale>  0 0.89781332E+02</rscale>
<asrwt>0</asrwt>
<pdfrwt beam="2">  1        1 0.45677900E-01 0.89781332E+02</pdfrwt>
<pdfrwt beam="1">  1       -1 0.10441893E-02 0.89781332E+02</pdfrwt>
<totfact> 0.13322678E+05</totfact>
</mgrwt>
</event>
<event>
 7    1  0.3607059E-009  0.9017594E+02  0.7818608E-02  0.1302426E+00
         -1   -1    0    0    0  501 -0.00000000000E+00  0.00000000000E+00  0.84321023952E+03  0.84321023953E+03  0.50400000000E-02 0.  1.
          1   -1    0    0  501    0  0.00000000000E+00 -0.00000000000E+00 -0.24109322914E+01  0.24109375594E+01  0.50400000000E-02 0. -1.
         23    2    1    2    0    0  0.00000000000E+00  0.00000000000E+00  0.84079930723E+03  0.84562117709E+03  0.90175939776E+02 0.  0.
    9000005    2    3    3    0    0 -0.26204875346E+02  0.12744149587E+02  0.73993955716E+03  0.74063642570E+03  0.13515102252E+02 0.  0.
         22    1    3    3    0    0  0.26204875346E+02 -0.12744149587E+02  0.10085975007E+03  0.10498475139E+03  0.00000000000E+00 0. -1.
         22    1    4    4    0    0 -0.15984020032E+02  0.36488281437E+01  0.26970296078E+03  0.27020083252E+03  0.00000000000E+00 0.  1.
         22    1    4    4    0    0 -0.10220855314E+02  0.90953214438E+01  0.47023659638E+03  0.47043559318E+03  0.00000000000E+00 0.  1.
<mgrwt>
<rscale>  0 0.90175940E+02</rscale>
<asrwt>0</asrwt>
<pdfrwt beam="2">  1        1 0.37091356E-03 0.90175940E+02</pdfrwt>
<pdfrwt beam="1">  1       -1 0.12972448E+00 0.90175940E+02</pdfrwt>
<totfact> 0.31903306E+04</totfact>
</mgrwt>
</event>
<event>
 7    1  0.3607059E-009  0.8909284E+02  0.7818608E-02  0.1305064E+00
         -1   -1    0    0    0  501 -0.00000000000E+00  0.00000000000E+00  0.12633080969E+02  0.12633081975E+02  0.50400000000E-02 0.  1.
          1   -1    0    0  501    0  0.00000000000E+00 -0.00000000000E+00 -0.15707833913E+03  0.15707833921E+03  0.50400000000E-02 0. -1.
         23    2    1    2    0    0  0.17763568394E-14  0.00000000000E+00 -0.14444525816E+03  0.16971142118E+03  0.89092838520E+02 0.  0.
    9000005    2    3    3    0    0 -0.13357984249E+02  0.33877707591E+02 -0.11978931114E+03  0.12573357974E+03  0.11546393165E+02 0.  0.
         22    1    3    3    0    0  0.13357984249E+02 -0.33877707591E+02 -0.24655947016E+02  0.43977841444E+02  0.00000000000E+00 0.  1.
         22    1    4    4    0    0 -0.11426664553E+02  0.31175122724E+02 -0.93205182686E+02  0.98942725954E+02  0.00000000000E+00 0. -1.
         22    1    4    4    0    0 -0.19313196960E+01  0.27025848671E+01 -0.26584128457E+02  0.26790853785E+02  0.00000000000E+00 0. -1.
<mgrwt>
<rscale>  0 0.89092839E+02</rscale>
<asrwt>0</asrwt>
<pdfrwt beam="2">  1        1 0.24165897E-01 0.89092839E+02</pdfrwt>
<pdfrwt beam="1">  1       -1 0.19435511E-02 0.89092839E+02</pdfrwt>
<totfact> 0.12034739E+05</totfact>
</mgrwt>
</event>
<event>
 7    1  0.3607059E-009  0.9109932E+02  0.7818608E-02  0.1300211E+00
         -1   -1    0    0    0  501 -0.00000000000E+00  0.00000000000E+00  0.20030859503E+02  0.20030860137E+02  0.50400000000E-02 0.  1.
          1   -1    0    0  501    0  0.00000000000E+00 -0.00000000000E+00 -0.10357875604E+03  0.10357875617E+03  0.50400000000E-02 0. -1.
         23    2    1    2    0    0  0.00000000000E+00  0.00000000000E+00 -0.83547896541E+02  0.12360961630E+03  0.91099320669E+02 0.  0.
    9000005    2    3    3    0    0 -0.33184929084E+02  0.27620706299E+02 -0.22574501043E+02  0.48897516258E+02  0.41492245211E+01 0.  0.
         22    1    3    3    0    0  0.33184929084E+02 -0.27620706299E+02 -0.60973395498E+02  0.74712100046E+02  0.00000000000E+00 0. -1.
         22    1    4    4    0    0 -0.91574950646E+01  0.54348257197E+01 -0.48782354979E+01  0.11712993983E+02  0.00000000000E+00 0.  1.
         22    1    4    4    0    0 -0.24027434019E+02  0.22185880579E+02 -0.17696265545E+02  0.37184522276E+02  0.00000000000E+00 0.  1.
<mgrwt>
<rscale>  0 0.91099321E+02</rscale>
<asrwt>0</asrwt>
<pdfrwt beam="2">  1        1 0.15935193E-01 0.91099321E+02</pdfrwt>
<pdfrwt beam="1">  1       -1 0.30816708E-02 0.91099321E+02</pdfrwt>
<totfact> 0.10531066E+05</totfact>
</mgrwt>
</event>
<event>
 7    1  0.3607059E-009  0.9103558E+02  0.7818608E-02  0.1300363E+00
         -1   -1    0    0    0  501 -0.00000000000E+00  0.00000000000E+00  0.70856953815E+02  0.70856953995E+02  0.50400000000E-02 0.  1.
          1   -1    0    0  501    0  0.00000000000E+00 -0.00000000000E+00 -0.29240164681E+02  0.29240165116E+02  0.50400000000E-02 0. -1.
         23    2    1    2    0    0  0.00000000000E+00  0.00000000000E+00  0.41616789134E+02  0.10009711911E+03  0.91035576103E+02 0.  0.
    9000005    2    3    3    0    0  0.13994505834E+02  0.16780683241E+02 -0.22722559129E+02  0.32148688235E+02  0.63076095512E+01 0.  0.
         22    1    3    3    0    0 -0.13994505834E+02 -0.16780683241E+02  0.64339348263E+02  0.67948430876E+02  0.00000000000E+00 0.  1.
         22    1    4    4    0    0  0.12142576280E+01  0.56469469577E+01 -0.52461638242E+01  0.78028627055E+01  0.00000000000E+00 0.  1.
         22    1    4    4    0    0  0.12780248206E+02  0.11133736283E+02 -0.17476395305E+02  0.24345825529E+02  0.00000000000E+00 0.  1.
<mgrwt>
<rscale>  0 0.91035576E+02</rscale>
<asrwt>0</asrwt>
<pdfrwt beam="2">  1        1 0.44984870E-02 0.91035576E+02</pdfrwt>
<pdfrwt beam="1">  1       -1 0.10901070E-01 0.91035576E+02</pdfrwt>
<totfact> 0.86711420E+04</totfact>
</mgrwt>
</event>
<event>
 7    1  0.3607059E-009  0.8986459E+02  0.7818608E-02  0.1303180E+00
         -1   -1    0    0    0  501 -0.00000000000E+00  0.00000000000E+00  0.41795068575E+01  0.41795098963E+01  0.50400000000E-02 0.  1.
          1   -1    0    0  501    0  0.00000000000E+00 -0.00000000000E+00 -0.48304986810E+03  0.48304986813E+03  0.50400000000E-02 0. -1.
         23    2    1    2    0    0  0.00000000000E+00  0.00000000000E+00 -0.47887036125E+03  0.48722937803E+03  0.89864586639E+02 0.  0.
    9000005    2    3    3    0    0  0.41522482103E+02 -0.14141797017E+02 -0.23654352462E+03  0.24096447453E+03  0.13672307960E+02 0.  0.
         22    1    3    3    0    0 -0.41522482103E+02  0.14141797017E+02 -0.24232683663E+03  0.24626490349E+03  0.00000000000E+00 0. -1.
         22    1    4    4    0    0  0.45953180666E+01 -0.28449169733E+01 -0.60206508692E+02  0.60448607838E+02  0.00000000000E+00 0.  1.
         22    1    4    4    0    0  0.36927164036E+02 -0.11296880044E+02 -0.17633701593E+03  0.18051586670E+03  0.00000000000E+00 0.  1.
<mgrwt>
<rscale>  0 0.89864587E+02</rscale>
<asrwt>0</asrwt>
<pdfrwt beam="2">  1        1 0.74315320E-01 0.89864587E+02</pdfrwt>
<pdfrwt beam="1">  1       -1 0.64300167E-03 0.89864587E+02</pdfrwt>
<totfact> 0.14410505E+05</totfact>
</mgrwt>
</event>
<event>
 7    1  0.3607059E-009  0.9391079E+02  0.7818608E-02  0.1293648E+00
         -1   -1    0    0    0  501 -0.00000000000E+00  0.00000000000E+00  0.19745731971E+02  0.19745732615E+02  0.50400000000E-02 0.  1.
          1   -1    0    0  501    0  0.00000000000E+00 -0.00000000000E+00 -0.11166003350E+03  0.11166003361E+03  0.50400000000E-02 0. -1.
         23    2    1    2    0    0  0.00000000000E+00 -0.17763568394E-14 -0.91914301525E+02  0.13140576622E+03  0.93910790500E+02 0.  0.
    9000005    2    3    3    0    0 -0.32526713326E+02  0.15260285805E+02 -0.62305537023E+01  0.38494152077E+02  0.12333553505E+02 0.  0.
         22    1    3    3    0    0  0.32526713326E+02 -0.15260285805E+02 -0.85683747823E+02  0.92911614148E+02  0.00000000000E+00 0. -1.
         22    1    4    4    0    0 -0.10892304869E+02  0.10068883172E+02 -0.66170672667E+01  0.16242237928E+02  0.00000000000E+00 0. -1.
         22    1    4    4    0    0 -0.21634408457E+02  0.51914026330E+01  0.38651356448E+00  0.22251914149E+02  0.00000000000E+00 0. -1.
<mgrwt>
<rscale>  0 0.93910790E+02</rscale>
<asrwt>0</asrwt>
<pdfrwt beam="2">  1        1 0.17178466E-01 0.93910790E+02</pdfrwt>
<pdfrwt beam="1">  1       -1 0.30378051E-02 0.93910790E+02</pdfrwt>
<totfact> 0.98179771E+04</totfact>
</mgrwt>
</event>
<event>
 7    1  0.3607059E-009  0.9995175E+02  0.7818608E-02  0.1280397E+00
         -1   -1    0    0    0  501 -0.00000000000E+00  0.00000000000E+00  0.12190417569E+03  0.12190417580E+03  0.50400000000E-02 0.  1.
          1   -1    0    0  501    0  0.00000000000E+00 -0.00000000000E+00 -0.20488127152E+02  0.20488127772E+02  0.50400000000E-02 0. -1.
         23    2    1    2    0    0  0.88817841970E-15 -0.71054273576E-14  0.10141604854E+03  0.14239230357E+03  0.99951754433E+02 0.  0.
    9000005    2    3    3    0    0 -0.49933805108E+01  0.35019192595E+02  0.10037721251E+03  0.10700364890E+03  0.11086856594E+02 0.  0.
         22    1    3    3    0    0  0.49933805108E+01 -0.35019192595E+02  0.10388360362E+01  0.35388654668E+02  0.00000000000E+00 0. -1.
         22    1    4    4    0    0 -0.10595150607E+01  0.12124276901E+02  0.51040069514E+02  0.52471033519E+02  0.00000000000E+00 0. -1.
         22    1    4    4    0    0 -0.39338654501E+01  0.22894915694E+02  0.49337142992E+02  0.54532615384E+02  0.00000000000E+00 0. -1.
<mgrwt>
<rscale>  0 0.99951754E+02</rscale>
<asrwt>0</asrwt>
<pdfrwt beam="2">  1        1 0.31520197E-02 0.99951754E+02</pdfrwt>
<pdfrwt beam="1">  1       -1 0.18754488E-01 0.99951754E+02</pdfrwt>
<totfact> 0.61686116E+04</totfact>
</mgrwt>
</event>
<event>
 7    1  0.3607059E-009  0.8986927E+02  0.7818608E-02  0.1303169E+00
         -1   -1    0    0    0  501 -0.00000000000E+00  0.00000000000E+00  0.19817753026E+02  0.19817753667E+02  0.50400000000E-02 0.  1.
          1   -1    0    0  501    0  0.00000000000E+00 -0.00000000000E+00 -0.10188448138E+03  0.10188448150E+03  0.50400000000E-02 0. -1.
         23    2    1    2    0    0 -0.35527136788E-14  0.00000000000E+00 -0.82066728352E+02  0.12170223517E+03  0.89869272518E+02 0.  0.
    9000005    2    3    3    0    0  0.26886972171E+02 -0.27217892340E+02 -0.13080198144E+02  0.42817101678E+02  0.14088636436E+02 0.  0.
         22    1    3    3    0    0 -0.26886972171E+02  0.27217892340E+02 -0.68986530207E+02  0.78885133492E+02  0.00000000000E+00 0. -1.
         22    1    4    4    0    0  0.10766577740E+02 -0.39716455518E+01 -0.82147831489E+01  0.14112966620E+02  0.00000000000E+00 0. -1.
         22    1    4    4    0    0  0.16120394431E+02 -0.23246246788E+02 -0.48654149955E+01  0.28704135058E+02  0.00000000000E+00 0. -1.
<mgrwt>
<rscale>  0 0.89869273E+02</rscale>
<asrwt>0</asrwt>
<pdfrwt beam="2">  1        1 0.15674535E-01 0.89869273E+02</pdfrwt>
<pdfrwt beam="1">  1       -1 0.30488852E-02 0.89869273E+02</pdfrwt>
<totfact> 0.10897591E+05</totfact>
</mgrwt>
</event>
<event>
 7    1  0.3607059E-009  0.9184486E+02  0.7818608E-02  0.1298445E+00
          1   -1    0    0  501    0  0.00000000000E+00  0.00000000000E+00  0.33538149238E+03  0.33538149242E+03  0.50400000000E-02 0. -1.
         -1   -1    0    0    0  501 -0.00000000000E+00 -0.00000000000E+00 -0.62879715277E+01  0.62879735475E+01  0.50400000000E-02 0.  1.
         23    2    1    2    0    0  0.00000000000E+00 -0.88817841970E-15  0.32909352085E+03  0.34166946597E+03  0.91844861076E+02 0.  0.
    9000005    2    3    3    0    0 -0.38163687256E+02  0.62571528335E+01  0.25361809731E+03  0.25686287102E+03  0.12679757153E+02 0.  0.
         22    1    3    3    0    0  0.38163687256E+02 -0.62571528335E+01  0.75475423547E+02  0.84806594945E+02  0.00000000000E+00 0.  1.
         22    1    4    4    0    0  0.99344460933E+00 -0.40736765323E-01  0.83318185079E+01  0.83909350686E+01  0.00000000000E+00 0.  1.
         22    1    4    4    0    0 -0.39157131866E+02  0.62978895988E+01  0.24528627880E+03  0.24847193595E+03  0.00000000000E+00 0.  1.
<mgrwt>
<rscale>  0 0.91844861E+02</rscale>
<asrwt>0</asrwt>
<pdfrwt beam="1">  1        1 0.51597163E-01 0.91844861E+02</pdfrwt>
<pdfrwt beam="2">  1       -1 0.96738020E-03 0.91844861E+02</pdfrwt>
<totfact> 0.12830167E+05</totfact>
</mgrwt>
</event>
<event>
 7    1  0.3607059E-009  0.9995382E+02  0.7818608E-02  0.1280393E+00
          1   -1    0    0  501    0  0.00000000000E+00  0.00000000000E+00  0.16029100871E+02  0.16029101663E+02  0.50400000000E-02 0. -1.
         -1   -1    0    0    0  501 -0.00000000000E+00 -0.00000000000E+00 -0.15582229632E+03  0.15582229641E+03  0.50400000000E-02 0.  1.
         23    2    1    2    0    0  0.00000000000E+00  0.00000000000E+00 -0.13979319545E+03  0.17185139807E+03  0.99953816951E+02 0.  0.
    9000005    2    3    3    0    0 -0.18005404386E+02  0.27974972980E+02 -0.13301292084E+03  0.13789899279E+03  0.14727572844E+02 0.  0.
         22    1    3    3    0    0  0.18005404386E+02 -0.27974972980E+02 -0.67802746136E+01  0.33952405278E+02  0.00000000000E+00 0. -1.
         22    1    4    4    0    0 -0.44360940617E+00  0.13774454153E+02 -0.52421951068E+02  0.54203259407E+02  0.00000000000E+00 0. -1.
         22    1    4    4    0    0 -0.17561794980E+02  0.14200518828E+02 -0.80590969771E+02  0.83695733383E+02  0.00000000000E+00 0. -1.
<mgrwt>
<rscale>  0 0.99953817E+02</rscale>
<asrwt>0</asrwt>
<pdfrwt beam="1">  1        1 0.24660157E-02 0.99953817E+02</pdfrwt>
<pdfrwt beam="2">  1       -1 0.23972660E-01 0.99953817E+02</pdfrwt>
<totfact> 0.58339557E+04</totfact>
</mgrwt>
</event>
<event>
 7    1  0.3607059E-009  0.9132633E+02  0.7818608E-02  0.1299671E+00
          1   -1    0    0  501    0  0.00000000000E+00  0.00000000000E+00  0.18399503982E+03  0.18399503989E+03  0.50400000000E-02 0. -1.
         -1   -1    0    0    0  501 -0.00000000000E+00 -0.00000000000E+00 -0.11332503010E+02  0.11332504130E+02  0.50400000000E-02 0.  1.
         23    2    1    2    0    0  0.00000000000E+00  0.00000000000E+00  0.17266253681E+03  0.19532754402E+03  0.91326326078E+02 0.  0.
    9000005    2    3    3    0    0  0.16507806305E+02 -0.36886283350E+02  0.12795435673E+03  0.13506207352E+03  0.15373377284E+02 0.  0.
         22    1    3    3    0    0 -0.16507806305E+02  0.36886283350E+02  0.44708180082E+02  0.60265470500E+02  0.00000000000E+00 0.  1.
         22    1    4    4    0    0  0.98923998690E+01 -0.28947746477E+02  0.11159746942E+03  0.11571441908E+03  0.00000000000E+00 0. -1.
         22    1    4    4    0    0  0.66154064358E+01 -0.79385368732E+01  0.16356887305E+02  0.19347654439E+02  0.00000000000E+00 0. -1.
<mgrwt>
<rscale>  0 0.91326326E+02</rscale>
<asrwt>0</asrwt>
<pdfrwt beam="1">  1        1 0.28306927E-01 0.91326326E+02</pdfrwt>
<pdfrwt beam="2">  1       -1 0.17434623E-02 0.91326326E+02</pdfrwt>
<totfact> 0.11600317E+05</totfact>
</mgrwt>
</event>
<event>
 7    1  0.3607059E-009  0.9040966E+02  0.7818608E-02  0.1301863E+00
         -1   -1    0    0    0  501 -0.00000000000E+00  0.00000000000E+00  0.82942499656E+01  0.82942514969E+01  0.50400000000E-02 0.  1.
          1   -1    0    0  501    0  0.00000000000E+00 -0.00000000000E+00 -0.24637268394E+03  0.24637268399E+03  0.50400000000E-02 0. -1.
         23    2    1    2    0    0  0.00000000000E+00  0.35527136788E-14 -0.23807843397E+03  0.25466693548E+03  0.90409663793E+02 0.  0.
    9000005    2    3    3    0    0  0.35855745324E+02 -0.18310114897E+02 -0.62399297656E+02  0.74433604170E+02  0.50788090721E+01 0.  0.
         22    1    3    3    0    0 -0.35855745324E+02  0.18310114897E+02 -0.17567913631E+03  0.18023333131E+03  0.00000000000E+00 0. -1.
         22    1    4    4    0    0  0.23006558907E+02 -0.11318319043E+02 -0.44028743726E+02  0.50950332411E+02  0.00000000000E+00 0. -1.
         22    1    4    4    0    0  0.12849186417E+02 -0.69917958538E+01 -0.18370553929E+02  0.23483271759E+02  0.00000000000E+00 0. -1.
<mgrwt>
<rscale>  0 0.90409664E+02</rscale>
<asrwt>0</asrwt>
<pdfrwt beam="2">  1        1 0.37903484E-01 0.90409664E+02</pdfrwt>
<pdfrwt beam="1">  1       -1 0.12760388E-02 0.90409664E+02</pdfrwt>
<totfact> 0.12613184E+05</totfact>
</mgrwt>
</event>
<event>
 7    1  0.3607059E-009  0.9073515E+02  0.7818608E-02  0.1301081E+00
         -1   -1    0    0    0  501 -0.00000000000E+00  0.00000000000E+00  0.61389568556E+01  0.61389589245E+01  0.50400000000E-02 0.  1.
          1   -1    0    0  501    0  0.00000000000E+00 -0.00000000000E+00 -0.33527135399E+03  0.33527135403E+03  0.50400000000E-02 0. -1.
         23    2    1    2    0    0 -0.35527136788E-14  0.00000000000E+00 -0.32913239713E+03  0.34141031295E+03  0.90735147252E+02 0.  0.
    9000005    2    3    3    0    0 -0.21327824591E+02 -0.22628897737E+02 -0.28679254001E+03  0.28887835491E+03  0.15290513888E+02 0.  0.
         22    1    3    3    0    0  0.21327824591E+02  0.22628897737E+02 -0.42339857126E+02  0.52531958045E+02  0.00000000000E+00 0.  1.
         22    1    4    4    0    0 -0.28117441793E+01  0.12090484693E+01 -0.61061933972E+02  0.61138592427E+02  0.00000000000E+00 0.  1.
         22    1    4    4    0    0 -0.18516080412E+02 -0.23837946206E+02 -0.22573060603E+03  0.22773976248E+03  0.00000000000E+00 0.  1.
<mgrwt>
<rscale>  0 0.90735147E+02</rscale>
<asrwt>0</asrwt>
<pdfrwt beam="2">  1        1 0.51580194E-01 0.90735147E+02</pdfrwt>
<pdfrwt beam="1">  1       -1 0.94445532E-03 0.90735147E+02</pdfrwt>
<totfact> 0.13251289E+05</totfact>
</mgrwt>
</event>
<event>
 7    1  0.3607059E-009  0.9096488E+02  0.7818608E-02  0.1300532E+00
          1   -1    0    0  501    0  0.00000000000E+00  0.00000000000E+00  0.34848779871E+03  0.34848779875E+03  0.50400000000E-02 0. -1.
         -1   -1    0    0    0  501 -0.00000000000E+00 -0.00000000000E+00 -0.59360819554E+01  0.59360840950E+01  0.50400000000E-02 0.  1.
         23    2    1    2    0    0  0.00000000000E+00  0.00000000000E+00  0.34255171676E+03  0.35442388284E+03  0.90964883757E+02 0.  0.
    9000005    2    3    3    0    0  0.20423361765E+02  0.92848981362E+01  0.32472284983E+03  0.32576744316E+03  0.13273085020E+02 0.  0.
         22    1    3    3    0    0 -0.20423361765E+02 -0.92848981362E+01  0.17828866930E+02  0.28656439681E+02  0.00000000000E+00 0.  1.
         22    1    4    4    0    0  0.56368899561E+01  0.96891399661E+01  0.12866213896E+03  0.12914952561E+03  0.00000000000E+00 0.  1.
         22    1    4    4    0    0  0.14786471809E+02 -0.40424182992E+00  0.19606071086E+03  0.19661791756E+03  0.00000000000E+00 0.  1.
<mgrwt>
<rscale>  0 0.90964884E+02</rscale>
<asrwt>0</asrwt>
<pdfrwt beam="1">  1        1 0.53613491E-01 0.90964884E+02</pdfrwt>
<pdfrwt beam="2">  1       -1 0.91324383E-03 0.90964884E+02</pdfrwt>
<totfact> 0.13254839E+05</totfact>
</mgrwt>
</event>
<event>
 7    1  0.3607059E-009  0.9749794E+02  0.7818608E-02  0.1285647E+00
         -1   -1    0    0    0  501 -0.00000000000E+00  0.00000000000E+00  0.78952483114E+01  0.78952499201E+01  0.50400000000E-02 0.  1.
          1   -1    0    0  501    0  0.00000000000E+00 -0.00000000000E+00 -0.30099898232E+03  0.30099898236E+03  0.50400000000E-02 0. -1.
         23    2    1    2    0    0  0.00000000000E+00  0.00000000000E+00 -0.29310373401E+03  0.30889423228E+03  0.97497937657E+02 0.  0.
    9000005    2    3    3    0    0  0.43428423764E+02 -0.17984048117E+02 -0.12652624776E+03  0.13581184467E+03  0.15050309051E+02 0.  0.
         22    1    3    3    0    0 -0.43428423764E+02  0.17984048117E+02 -0.16657748625E+03  0.17308238761E+03  0.00000000000E+00 0. -1.
         22    1    4    4    0    0  0.36306762043E+02 -0.12008090318E+02 -0.11378677700E+03  0.12004085064E+03  0.00000000000E+00 0.  1.
         22    1    4    4    0    0  0.71216617219E+01 -0.59759577996E+01 -0.12739470764E+02  0.15770994029E+02  0.00000000000E+00 0.  1.
<mgrwt>
<rscale>  0 0.97497938E+02</rscale>
<asrwt>0</asrwt>
<pdfrwt beam="2">  1        1 0.46307527E-01 0.97497938E+02</pdfrwt>
<pdfrwt beam="1">  1       -1 0.12146539E-02 0.97497938E+02</pdfrwt>
<totfact> 0.10715877E+05</totfact>
</mgrwt>
</event>
<event>
 7    1  0.3607059E-009  0.9211386E+02  0.7818608E-02  0.1297812E+00
          1   -1    0    0  501    0  0.00000000000E+00  0.00000000000E+00  0.56998201773E+01  0.56998224056E+01  0.50400000000E-02 0. -1.
         -1   -1    0    0    0  501 -0.00000000000E+00 -0.00000000000E+00 -0.37215920832E+03  0.37215920835E+03  0.50400000000E-02 0.  1.
         23    2    1    2    0    0  0.00000000000E+00  0.00000000000E+00 -0.36645938814E+03  0.37785903076E+03  0.92113864150E+02 0.  0.
    9000005    2    3    3    0    0 -0.53920076256E+01  0.40451125245E+02 -0.26341027416E+03  0.26702362499E+03  0.15851703038E+02 0.  0.
         22    1    3    3    0    0  0.53920076256E+01 -0.40451125245E+02 -0.10304911398E+03  0.11083540577E+03  0.00000000000E+00 0. -1.
         22    1    4    4    0    0  0.52772837203E+01  0.18754015463E+02 -0.12738198661E+03  0.12886323499E+03  0.00000000000E+00 0. -1.
         22    1    4    4    0    0 -0.10669291346E+02  0.21697109782E+02 -0.13602828755E+03  0.13816039000E+03  0.00000000000E+00 0. -1.
<mgrwt>
<rscale>  0 0.92113864E+02</rscale>
<asrwt>0</asrwt>
<pdfrwt beam="1">  1        1 0.87689588E-03 0.92113864E+02</pdfrwt>
<pdfrwt beam="2">  1       -1 0.57255244E-01 0.92113864E+02</pdfrwt>
<totfact> 0.53745446E+04</totfact>
</mgrwt>
</event>
<event>
 7    1  0.4104726E-009  0.9217843E+02  0.7818608E-02  0.1297660E+00
          1   -1    0    0  501    0  0.00000000000E+00  0.00000000000E+00  0.30722737596E+03  0.30722737600E+03  0.50400000000E-02 0. -1.
         -1   -1    0    0    0  501 -0.00000000000E+00 -0.00000000000E+00 -0.69141483680E+01  0.69141502049E+01  0.50400000000E-02 0.  1.
         23    2    1    2    0    0 -0.88817841970E-15  0.00000000000E+00  0.30031322759E+03  0.31414152621E+03  0.92178434682E+02 0.  0.
    9000005    2    3    3    0    0  0.64629870715E+01  0.37705678634E+02  0.23413280122E+03  0.23769980175E+03  0.14816839795E+02 0.  0.
         22    1    3    3    0    0 -0.64629870715E+01 -0.37705678634E+02  0.66180426373E+02  0.76441724458E+02  0.00000000000E+00 0.  1.
         22    1    4    4    0    0 -0.45934569060E+01  0.70163448135E+01  0.45084909800E+02  0.45858238437E+02  0.00000000000E+00 0.  1.
         22    1    4    4    0    0  0.11056443977E+02  0.30689333821E+02  0.18904789142E+03  0.19184156331E+03  0.00000000000E+00 0.  1.
<mgrwt>
<rscale>  0 0.92178435E+02</rscale>
<asrwt>0</asrwt>
<pdfrwt beam="1">  1        1 0.47265761E-01 0.92178435E+02</pdfrwt>
<pdfrwt beam="2">  1       -1 0.10637150E-02 0.92178435E+02</pdfrwt>
<totfact> 0.12500678E+05</totfact>
</mgrwt>
</event>
<event>
 7    1  0.3607059E-009  0.9117687E+02  0.7818608E-02  0.1300027E+00
         -1   -1    0    0    0  501 -0.00000000000E+00  0.00000000000E+00  0.64082388963E+01  0.64082408782E+01  0.50400000000E-02 0.  1.
          1   -1    0    0  501    0  0.00000000000E+00 -0.00000000000E+00 -0.32431766442E+03  0.32431766446E+03  0.50400000000E-02 0. -1.
         23    2    1    2    0    0  0.00000000000E+00  0.17763568394E-14 -0.31790942552E+03  0.33072590534E+03  0.91176870008E+02 0.  0.
    9000005    2    3    3    0    0 -0.41100360411E+02  0.14436914452E+02 -0.19751858478E+03  0.20269614841E+03  0.13208827366E+02 0.  0.
         22    1    3    3    0    0  0.41100360411E+02 -0.14436914452E+02 -0.12039084074E+03  0.12802975693E+03  0.00000000000E+00 0.  1.
         22    1    4    4    0    0 -0.12005303286E+02  0.33241304933E+01 -0.33376474192E+02  0.35625358665E+02  0.00000000000E+00 0. -1.
         22    1    4    4    0    0 -0.29095057125E+02  0.11112783959E+02 -0.16414211059E+03  0.16707078974E+03  0.00000000000E+00 0. -1.
<mgrwt>
<rscale>  0 0.91176870E+02</rscale>
<asrwt>0</asrwt>
<pdfrwt beam="2">  1        1 0.49895013E-01 0.91176870E+02</pdfrwt>
<pdfrwt beam="1">  1       -1 0.98588331E-03 0.91176870E+02</pdfrwt>
<totfact> 0.13001492E+05</totfact>
</mgrwt>
</event>
<event>
 7    1  0.3607059E-009  0.9054983E+02  0.7818608E-02  0.1301526E+00
         -1   -1    0    0    0  501 -0.00000000000E+00  0.00000000000E+00  0.34237555391E+01  0.34237592487E+01  0.50400000000E-02 0.  1.
          1   -1    0    0  501    0  0.00000000000E+00 -0.00000000000E+00 -0.59870417785E+03  0.59870417787E+03  0.50400000000E-02 0. -1.
         23    2    1    2    0    0  0.00000000000E+00  0.00000000000E+00 -0.59528042231E+03  0.60212793712E+03  0.90549828678E+02 0.  0.
    9000005    2    3    3    0    0 -0.37025855436E+02 -0.69009214456E+01 -0.45924153786E+03  0.46097158845E+03  0.13171126497E+02 0.  0.
         22    1    3    3    0    0  0.37025855436E+02  0.69009214456E+01 -0.13603888445E+03  0.14115634867E+03  0.00000000000E+00 0.  1.
         22    1    4    4    0    0 -0.27789508087E+02 -0.57373978338E+00 -0.27849218435E+03  0.27987583440E+03  0.00000000000E+00 0. -1.
         22    1    4    4    0    0 -0.92363473487E+01 -0.63271816622E+01 -0.18074935351E+03  0.18109575405E+03  0.00000000000E+00 0. -1.
<mgrwt>
<rscale>  0 0.90549829E+02</rscale>
<asrwt>0</asrwt>
<pdfrwt beam="2">  1        1 0.92108252E-01 0.90549829E+02</pdfrwt>
<pdfrwt beam="1">  1       -1 0.52673238E-03 0.90549829E+02</pdfrwt>
<totfact> 0.14417700E+05</totfact>
</mgrwt>
</event>
<event>
 7    1  0.3607059E-009  0.9186197E+02  0.7818608E-02  0.1298404E+00
          1   -1    0    0  501    0  0.00000000000E+00  0.00000000000E+00  0.27579621356E+01  0.27579667408E+01  0.50400000000E-02 0. -1.
         -1   -1    0    0    0  501 -0.00000000000E+00 -0.00000000000E+00 -0.76493196360E+03  0.76493196362E+03  0.50400000000E-02 0.  1.
         23    2    1    2    0    0  0.00000000000E+00  0.00000000000E+00 -0.76217400146E+03  0.76768993036E+03  0.91861965274E+02 0.  0.
    9000005    2    3    3    0    0  0.37426749122E+02 -0.14270384141E+02 -0.56433050580E+03  0.56583242073E+03  0.96438149907E+01 0.  0.
         22    1    3    3    0    0 -0.37426749122E+02  0.14270384141E+02 -0.19784349567E+03  0.20185750962E+03  0.00000000000E+00 0. -1.
         22    1    4    4    0    0  0.21111594039E+02 -0.34477007742E+01 -0.32433094114E+03  0.32503560639E+03  0.00000000000E+00 0. -1.
         22    1    4    4    0    0  0.16315155083E+02 -0.10822683367E+02 -0.23999956466E+03  0.24079681434E+03  0.00000000000E+00 0. -1.
<mgrwt>
<rscale>  0 0.91861965E+02</rscale>
<asrwt>0</asrwt>
<pdfrwt beam="1">  1        1 0.42430283E-03 0.91861965E+02</pdfrwt>
<pdfrwt beam="2">  1       -1 0.11768167E+00 0.91861965E+02</pdfrwt>
<totfact> 0.33404449E+04</totfact>
</mgrwt>
</event>
<event>
 7    1  0.3607059E-009  0.9215464E+02  0.7818608E-02  0.1297716E+00
         -1   -1    0    0    0  501 -0.00000000000E+00  0.00000000000E+00  0.18428639609E+02  0.18428640298E+02  0.50400000000E-02 0.  1.
          1   -1    0    0  501    0  0.00000000000E+00 -0.00000000000E+00 -0.11520758921E+03  0.11520758932E+03  0.50400000000E-02 0. -1.
         23    2    1    2    0    0  0.44408920985E-15  0.00000000000E+00 -0.96778949605E+02  0.13363622962E+03  0.92154635158E+02 0.  0.
    9000005    2    3    3    0    0 -0.11967148451E+01 -0.38357318305E+02 -0.15815916186E+02  0.44038636048E+02  0.14715375161E+02 0.  0.
         22    1    3    3    0    0  0.11967148451E+01  0.38357318305E+02 -0.80963033418E+02  0.89597593574E+02  0.00000000000E+00 0. -1.
         22    1    4    4    0    0 -0.57840194984E+01 -0.96134710652E+01 -0.83592820376E+01  0.13991115169E+02  0.00000000000E+00 0. -1.
         22    1    4    4    0    0  0.45873046532E+01 -0.28743847240E+02 -0.74566341486E+01  0.30047520879E+02  0.00000000000E+00 0. -1.
<mgrwt>
<rscale>  0 0.92154635E+02</rscale>
<asrwt>0</asrwt>
<pdfrwt beam="2">  1        1 0.17724244E-01 0.92154635E+02</pdfrwt>
<pdfrwt beam="1">  1       -1 0.28351755E-02 0.92154635E+02</pdfrwt>
<totfact> 0.10392383E+05</totfact>
</mgrwt>
</event>
<event>
 7    1  0.3607059E-009  0.9263256E+02  0.7818608E-02  0.1296599E+00
         -1   -1    0    0    0  501 -0.00000000000E+00  0.00000000000E+00  0.40684664257E+02  0.40684664570E+02  0.50400000000E-02 0.  1.
          1   -1    0    0  501    0  0.00000000000E+00 -0.00000000000E+00 -0.52727428732E+02  0.52727428973E+02  0.50400000000E-02 0. -1.
         23    2    1    2    0    0 -0.11102230246E-15  0.00000000000E+00 -0.12042764474E+02  0.93412093542E+02  0.92632559307E+02 0.  0.
    9000005    2    3    3    0    0  0.35977908815E+00  0.39307324159E+02 -0.30281350271E+02  0.50078028588E+02  0.67567447375E+01 0.  0.
         22    1    3    3    0    0 -0.35977908815E+00 -0.39307324159E+02  0.18238585797E+02  0.43334064954E+02  0.00000000000E+00 0.  1.
         22    1    4    4    0    0  0.27487271984E+01  0.15419742578E+02 -0.14534501572E+02  0.21367632025E+02  0.00000000000E+00 0.  1.
         22    1    4    4    0    0 -0.23889481103E+01  0.23887581581E+02 -0.15746848699E+02  0.28710396564E+02  0.00000000000E+00 0.  1.
<mgrwt>
<rscale>  0 0.92632559E+02</rscale>
<asrwt>0</asrwt>
<pdfrwt beam="2">  1        1 0.81119122E-02 0.92632559E+02</pdfrwt>
<pdfrwt beam="1">  1       -1 0.62591792E-02 0.92632559E+02</pdfrwt>
<totfact> 0.90421545E+04</totfact>
</mgrwt>
</event>
<event>
 7    1  0.3607059E-009  0.9063468E+02  0.7818608E-02  0.1301322E+00
         -1   -1    0    0    0  501 -0.00000000000E+00  0.00000000000E+00  0.89098407992E+02  0.89098408135E+02  0.50400000000E-02 0.  1.
          1   -1    0    0  501    0  0.00000000000E+00 -0.00000000000E+00 -0.23049361974E+02  0.23049362525E+02  0.50400000000E-02 0. -1.
         23    2    1    2    0    0  0.00000000000E+00  0.00000000000E+00  0.66049046019E+02  0.11214777066E+03  0.90634684221E+02 0.  0.
    9000005    2    3    3    0    0  0.10760414666E+02  0.28982830568E+02  0.73631501132E+02  0.80315638826E+02  0.85564530939E+01 0.  0.
         22    1    3    3    0    0 -0.10760414666E+02 -0.28982830568E+02 -0.75824551128E+01  0.31832131834E+02  0.00000000000E+00 0. -1.
         22    1    4    4    0    0  0.19348213435E+01  0.17435957924E+02  0.39863681599E+02  0.43553062728E+02  0.00000000000E+00 0.  1.
         22    1    4    4    0    0  0.88255933225E+01  0.11546872645E+02  0.33767819532E+02  0.36762576098E+02  0.00000000000E+00 0.  1.
<mgrwt>
<rscale>  0 0.90634684E+02</rscale>
<asrwt>0</asrwt>
<pdfrwt beam="2">  1        1 0.35460557E-02 0.90634684E+02</pdfrwt>
<pdfrwt beam="1">  1       -1 0.13707448E-01 0.90634684E+02</pdfrwt>
<totfact> 0.84371429E+04</totfact>
</mgrwt>
</event>
<event>
 7    1  0.3607059E-009  0.9289995E+02  0.7818608E-02  0.1295977E+00
          1   -1    0    0  501    0  0.00000000000E+00  0.00000000000E+00  0.33618195129E+02  0.33618195507E+02  0.50400000000E-02 0.  1.
         -1   -1    0    0    0  501 -0.00000000000E+00 -0.00000000000E+00 -0.64179541556E+02  0.64179541754E+02  0.50400000000E-02 0. -1.
         23    2    1    2    0    0  0.00000000000E+00  0.35527136788E-14 -0.30561346427E+02  0.97797737261E+02  0.92899954349E+02 0.  0.
    9000005    2    3    3    0    0  0.11655091556E+02  0.22974199585E+02 -0.54981455584E+02  0.62301304525E+02  0.13958405413E+02 0.  0.
         22    1    3    3    0    0 -0.11655091556E+02 -0.22974199585E+02  0.24420109157E+02  0.35496432736E+02  0.00000000000E+00 0.  1.
         22    1    4    4    0    0 -0.65613198997E+00  0.48859905225E+01 -0.23188345965E+02  0.23706598262E+02  0.00000000000E+00 0. -1.
         22    1    4    4    0    0  0.12311223546E+02  0.18088209062E+02 -0.31793109619E+02  0.38594706263E+02  0.00000000000E+00 0. -1.
<mgrwt>
<rscale>  0 0.92899954E+02</rscale>
<asrwt>0</asrwt>
<pdfrwt beam="1">  1        1 0.51720301E-02 0.92899954E+02</pdfrwt>
<pdfrwt beam="2">  1       -1 0.98737757E-02 0.92899954E+02</pdfrwt>
<totfact> 0.83666377E+04</totfact>
</mgrwt>
</event>
<event>
 7    1  0.3607059E-009  0.9113369E+02  0.7818608E-02  0.1300129E+00
         -1   -1    0    0    0  501 -0.00000000000E+00  0.00000000000E+00  0.37850834369E+02  0.37850834704E+02  0.50400000000E-02 0.  1.
          1   -1    0    0  501    0  0.00000000000E+00 -0.00000000000E+00 -0.54855784964E+02  0.54855785195E+02  0.50400000000E-02 0. -1.
         23    2    1    2    0    0  0.00000000000E+00  0.00000000000E+00 -0.17004950595E+02  0.92706619900E+02  0.91133687671E+02 0.  0.
    9000005    2    3    3    0    0 -0.16676377891E+02 -0.36572673014E+02  0.12641164363E+02  0.42761108359E+02  0.72836365037E+01 0.  0.
         22    1    3    3    0    0  0.16676377891E+02  0.36572673014E+02 -0.29646114958E+02  0.49945511540E+02  0.00000000000E+00 0. -1.
         22    1    4    4    0    0 -0.66367492694E+01 -0.18382462934E+02  0.95610372126E+01  0.21757178516E+02  0.00000000000E+00 0. -1.
         22    1    4    4    0    0 -0.10039628622E+02 -0.18190210079E+02  0.30801271504E+01  0.21003929843E+02  0.00000000000E+00 0. -1.
<mgrwt>
<rscale>  0 0.91133688E+02</rscale>
<asrwt>0</asrwt>
<pdfrwt beam="2">  1        1 0.84393516E-02 0.91133688E+02</pdfrwt>
<pdfrwt beam="1">  1       -1 0.58232053E-02 0.91133688E+02</pdfrwt>
<totfact> 0.95203149E+04</totfact>
</mgrwt>
</event>
<event>
 7    1  0.3607059E-009  0.9123914E+02  0.7818608E-02  0.1299878E+00
         -1   -1    0    0    0  501 -0.00000000000E+00  0.00000000000E+00  0.85689993917E+02  0.85689994065E+02  0.50400000000E-02 0.  1.
          1   -1    0    0  501    0  0.00000000000E+00 -0.00000000000E+00 -0.24286908397E+02  0.24286908920E+02  0.50400000000E-02 0. -1.
         23    2    1    2    0    0  0.00000000000E+00  0.00000000000E+00  0.61403085520E+02  0.10997690298E+03  0.91239137867E+02 0.  0.
    9000005    2    3    3    0    0  0.40246349596E+02  0.14301325051E+02  0.12561701438E+02  0.45094105935E+02  0.71683675292E+01 0.  0.
         22    1    3    3    0    0 -0.40246349596E+02 -0.14301325051E+02  0.48841384082E+02  0.64882797050E+02  0.00000000000E+00 0.  1.
         22    1    4    4    0    0  0.21819068943E+02  0.11517801731E+02  0.72438008025E+01  0.25713890727E+02  0.00000000000E+00 0. -1.
         22    1    4    4    0    0  0.18427280652E+02  0.27835233201E+01  0.53179006351E+01  0.19380215207E+02  0.00000000000E+00 0. -1.
<mgrwt>
<rscale>  0 0.91239138E+02</rscale>
<asrwt>0</asrwt>
<pdfrwt beam="2">  1        1 0.37364476E-02 0.91239138E+02</pdfrwt>
<pdfrwt beam="1">  1       -1 0.13183076E-01 0.91239138E+02</pdfrwt>
<totfact> 0.83513208E+04</totfact>
</mgrwt>
</event>
<event>
 7    1  0.3607059E-009  0.9119856E+02  0.7818608E-02  0.1299975E+00
         -1   -1    0    0    0  501 -0.00000000000E+00  0.00000000000E+00  0.81633207356E+02  0.81633207511E+02  0.50400000000E-02 0.  1.
          1   -1    0    0  501    0  0.00000000000E+00 -0.00000000000E+00 -0.25471181520E+02  0.25471182019E+02  0.50400000000E-02 0. -1.
         23    2    1    2    0    0  0.00000000000E+00 -0.88817841970E-15  0.56162025836E+02  0.10710438953E+03  0.91198558709E+02 0.  0.
    9000005    2    3    3    0    0 -0.24993792920E+02  0.77662692265E+01  0.70996739635E+02  0.77019952428E+02  0.14371200752E+02 0.  0.
         22    1    3    3    0    0  0.24993792920E+02 -0.77662692265E+01 -0.14834713799E+02  0.30084437102E+02  0.00000000000E+00 0. -1.
         22    1    4    4    0    0 -0.52409819541E+01 -0.27825449230E+01  0.67753091796E+01  0.90064011997E+01  0.00000000000E+00 0.  1.
         22    1    4    4    0    0 -0.19752810966E+02  0.10548814149E+02  0.64221430455E+02  0.68013551228E+02  0.00000000000E+00 0.  1.
<mgrwt>
<rscale>  0 0.91198559E+02</rscale>
<asrwt>0</asrwt>
<pdfrwt beam="2">  1        1 0.39186434E-02 0.91198559E+02</pdfrwt>
<pdfrwt beam="1">  1       -1 0.12558955E-01 0.91198559E+02</pdfrwt>
<totfact> 0.84309275E+04</totfact>
</mgrwt>
</event>
<event>
 7    1  0.3607059E-009  0.8959491E+02  0.7818608E-02  0.1303836E+00
          1   -1    0    0  501    0  0.00000000000E+00  0.00000000000E+00  0.14645864973E+03  0.14645864982E+03  0.50400000000E-02 0. -1.
         -1   -1    0    0    0  501 -0.00000000000E+00 -0.00000000000E+00 -0.13702243639E+02  0.13702244566E+02  0.50400000000E-02 0.  1.
         23    2    1    2    0    0  0.00000000000E+00  0.00000000000E+00  0.13275640609E+03  0.16016089438E+03  0.89594914651E+02 0.  0.
    9000005    2    3    3    0    0 -0.49573384164E+01 -0.43661133045E+02  0.67244682232E+02  0.81277082951E+02  0.12379304574E+02 0.  0.
         22    1    3    3    0    0  0.49573384164E+01  0.43661133045E+02  0.65511723858E+02  0.78883811430E+02  0.00000000000E+00 0. -1.
         22    1    4    4    0    0  0.40928974038E+00 -0.15315846288E+02  0.33792042786E+02  0.37103164572E+02  0.00000000000E+00 0.  1.
         22    1    4    4    0    0 -0.53666281568E+01 -0.28345286757E+02  0.33452639445E+02  0.44173918379E+02  0.00000000000E+00 0.  1.
<mgrwt>
<rscale>  0 0.89594915E+02</rscale>
<asrwt>0</asrwt>
<pdfrwt beam="1">  1        1 0.22532100E-01 0.89594915E+02</pdfrwt>
<pdfrwt beam="2">  1       -1 0.21080376E-02 0.89594915E+02</pdfrwt>
<totfact> 0.11703380E+05</totfact>
</mgrwt>
</event>
<event>
 7    1  0.3607059E-009  0.8964322E+02  0.7818608E-02  0.1303718E+00
          1   -1    0    0  501    0  0.00000000000E+00  0.00000000000E+00  0.10957743746E+02  0.10957744905E+02  0.50400000000E-02 0. -1.
         -1   -1    0    0    0  501 -0.00000000000E+00 -0.00000000000E+00 -0.18333851806E+03  0.18333851812E+03  0.50400000000E-02 0.  1.
         23    2    1    2    0    0  0.00000000000E+00  0.00000000000E+00 -0.17238077431E+03  0.19429626303E+03  0.89643217678E+02 0.  0.
    9000005    2    3    3    0    0 -0.42093475095E+02  0.10006007070E+02 -0.10759196161E+03  0.11638881105E+03  0.99168700407E+01 0.  0.
         22    1    3    3    0    0  0.42093475095E+02 -0.10006007070E+02 -0.64788812699E+02  0.77907451980E+02  0.00000000000E+00 0. -1.
         22    1    4    4    0    0 -0.70080085866E+01 -0.19036497848E+01 -0.15252047878E+02  0.16892632457E+02  0.00000000000E+00 0.  1.
         22    1    4    4    0    0 -0.35085466508E+02  0.11909656855E+02 -0.92339913733E+02  0.99496178593E+02  0.00000000000E+00 0.  1.
<mgrwt>
<rscale>  0 0.89643218E+02</rscale>
<asrwt>0</asrwt>
<pdfrwt beam="1">  1        1 0.16858070E-02 0.89643218E+02</pdfrwt>
<pdfrwt beam="2">  1       -1 0.28205924E-01 0.89643218E+02</pdfrwt>
<totfact> 0.74325822E+04</totfact>
</mgrwt>
</event>
<event>
 7    1  0.3607059E-009  0.9188805E+02  0.7818608E-02  0.1298343E+00
         -1   -1    0    0    0  501 -0.00000000000E+00  0.00000000000E+00  0.12554138666E+01  0.12554239834E+01  0.50400000000E-02 0. -1.
          1   -1    0    0  501    0  0.00000000000E+00 -0.00000000000E+00 -0.16813936329E+04  0.16813936329E+04  0.50400000000E-02 0.  1.
         23    2    1    2    0    0  0.00000000000E+00  0.00000000000E+00 -0.16801382191E+04  0.16826490569E+04  0.91888049275E+02 0.  0.
    9000005    2    3    3    0    0 -0.12333881934E+02 -0.55128061081E+01 -0.16431412122E+04  0.16432625847E+04  0.14709298863E+02 0.  0.
         22    1    3    3    0    0  0.12333881934E+02  0.55128061081E+01 -0.36997006872E+02  0.39386472198E+02  0.00000000000E+00 0. -1.
         22    1    4    4    0    0 -0.14156713629E+02 -0.60315799105E+00 -0.13522204845E+04  0.13522947220E+04  0.00000000000E+00 0. -1.
         22    1    4    4    0    0  0.18228316958E+01 -0.49096481170E+01 -0.29092072770E+03  0.29096786277E+03  0.00000000000E+00 0. -1.
<mgrwt>
<rscale>  0 0.91888049E+02</rscale>
<asrwt>0</asrwt>
<pdfrwt beam="2">  1        1 0.25867414E+00 0.91888049E+02</pdfrwt>
<pdfrwt beam="1">  1       -1 0.19314272E-03 0.91888049E+02</pdfrwt>
<totfact> 0.97332436E+04</totfact>
</mgrwt>
</event>
<event>
 7    1  0.3607059E-009  0.9189310E+02  0.7818608E-02  0.1298331E+00
          1   -1    0    0  501    0  0.00000000000E+00  0.00000000000E+00  0.97986301769E+02  0.97986301899E+02  0.50400000000E-02 0. -1.
         -1   -1    0    0    0  501 -0.00000000000E+00 -0.00000000000E+00 -0.21544699629E+02  0.21544700219E+02  0.50400000000E-02 0.  1.
         23    2    1    2    0    0 -0.35527136788E-14  0.00000000000E+00  0.76441602140E+02  0.11953100212E+03  0.91893100554E+02 0.  0.
    9000005    2    3    3    0    0 -0.28389489374E+02  0.43372511182E+01 -0.78814216497E+01  0.30451558949E+02  0.63565541770E+01 0.  0.
         22    1    3    3    0    0  0.28389489374E+02 -0.43372511182E+01  0.84323023790E+02  0.89079443169E+02  0.00000000000E+00 0. -1.
         22    1    4    4    0    0 -0.15687230755E+02  0.20753206501E+01 -0.75805610769E+01  0.17545970215E+02  0.00000000000E+00 0.  1.
         22    1    4    4    0    0 -0.12702258619E+02  0.22619304681E+01 -0.30086057284E+00  0.12905588733E+02  0.00000000000E+00 0.  1.
<mgrwt>
<rscale>  0 0.91893101E+02</rscale>
<asrwt>0</asrwt>
<pdfrwt beam="1">  1        1 0.15074816E-01 0.91893101E+02</pdfrwt>
<pdfrwt beam="2">  1       -1 0.33145692E-02 0.91893101E+02</pdfrwt>
<totfact> 0.10189838E+05</totfact>
</mgrwt>
</event>
<event>
 7    1  0.3607059E-009  0.8527933E+02  0.7818608E-02  0.1314704E+00
         -1   -1    0    0    0  501 -0.00000000000E+00  0.00000000000E+00  0.88020583644E+01  0.88020598073E+01  0.50400000000E-02 0.  1.
          1   -1    0    0  501    0  0.00000000000E+00 -0.00000000000E+00 -0.20655861956E+03  0.20655861963E+03  0.50400000000E-02 0. -1.
         23    2    1    2    0    0  0.00000000000E+00  0.00000000000E+00 -0.19775656120E+03  0.21536067943E+03  0.85279333653E+02 0.  0.
    9000005    2    3    3    0    0 -0.13524798659E+02 -0.11972273737E+02 -0.19587800583E+03  0.19720071006E+03  0.13916585930E+02 0.  0.
         22    1    3    3    0    0  0.13524798659E+02  0.11972273737E+02 -0.18785553681E+01  0.18159969369E+02  0.00000000000E+00 0.  1.
         22    1    4    4    0    0  0.11980585331E+01  0.20767090508E+01 -0.16827495969E+02  0.16997431727E+02  0.00000000000E+00 0. -1.
         22    1    4    4    0    0 -0.14722857192E+02 -0.14048982788E+02 -0.17905050986E+03  0.18020327834E+03  0.00000000000E+00 0. -1.
<mgrwt>
<rscale>  0 0.85279334E+02</rscale>
<asrwt>0</asrwt>
<pdfrwt beam="2">  1        1 0.31778246E-01 0.85279334E+02</pdfrwt>
<pdfrwt beam="1">  1       -1 0.13541631E-02 0.85279334E+02</pdfrwt>
<totfact> 0.14243024E+05</totfact>
</mgrwt>
</event>
<event>
 7    1  0.3607059E-009  0.9193825E+02  0.7818608E-02  0.1298225E+00
          1   -1    0    0  501    0  0.00000000000E+00  0.00000000000E+00  0.67191981256E+02  0.67191981445E+02  0.50400000000E-02 0. -1.
         -1   -1    0    0    0  501 -0.00000000000E+00 -0.00000000000E+00 -0.31449595053E+02  0.31449595457E+02  0.50400000000E-02 0.  1.
         23    2    1    2    0    0 -0.35527136788E-14 -0.17763568394E-14  0.35742386203E+02  0.98641576903E+02  0.91938253857E+02 0.  0.
    9000005    2    3    3    0    0  0.24106269984E+02  0.86296799902E+01 -0.20765747322E+02  0.36603259841E+02  0.15905934109E+02 0.  0.
         22    1    3    3    0    0 -0.24106269984E+02 -0.86296799902E+01  0.56508133526E+02  0.62038317061E+02  0.00000000000E+00 0. -1.
         22    1    4    4    0    0  0.14973710606E+02  0.99426642506E+01 -0.55549409238E+01  0.18812919773E+02  0.00000000000E+00 0. -1.
         22    1    4    4    0    0  0.91325593781E+01 -0.13129842604E+01 -0.15210806398E+02  0.17790340069E+02  0.00000000000E+00 0. -1.
<mgrwt>
<rscale>  0 0.91938254E+02</rscale>
<asrwt>0</asrwt>
<pdfrwt beam="1">  1        1 0.10337228E-01 0.91938254E+02</pdfrwt>
<pdfrwt beam="2">  1       -1 0.48383993E-02 0.91938254E+02</pdfrwt>
<totfact> 0.95817461E+04</totfact>
</mgrwt>
</event>
<event>
 6    1  0.5583893E-009  0.3136623E+03  0.7818608E-02  0.1078604E+00
         -1   -1    0    0    0  501 -0.00000000000E+00  0.00000000000E+00  0.83128809233E+02  0.83128809386E+02  0.50400000000E-02 0.  1.
          1   -1    0    0  501    0  0.00000000000E+00 -0.00000000000E+00 -0.29587827646E+03  0.29587827651E+03  0.50400000000E-02 0. -1.
    9000005    2    1    2    0    0  0.65453293337E+02  0.34308075663E+02 -0.27328754513E+03  0.28347679467E+03  0.14554488352E+02 0.  0.
         22    1    1    2    0    0 -0.65453293337E+02 -0.34308075663E+02  0.60538077900E+02  0.95530291218E+02  0.00000000000E+00 0.  1.
         22    1    3    3    0    0  0.25456580648E+02  0.18395501515E+02 -0.94597990765E+02  0.99675532760E+02  0.00000000000E+00 0.  1.
         22    1    3    3    0    0  0.39996712688E+02  0.15912574148E+02 -0.17868955437E+03  0.18380126191E+03  0.00000000000E+00 0.  1.
<mgrwt>
<rscale>  0 0.31366230E+03</rscale>
<asrwt>0</asrwt>
<pdfrwt beam="2">  1        1 0.45519734E-01 0.31366230E+03</pdfrwt>
<pdfrwt beam="1">  1       -1 0.12789048E-01 0.31366230E+03</pdfrwt>
<totfact> 0.36925838E+03</totfact>
</mgrwt>
</event>
<event>
 7    1  0.3607059E-009  0.8565206E+02  0.7818608E-02  0.1313736E+00
          1   -1    0    0  501    0  0.00000000000E+00  0.00000000000E+00  0.20162188502E+02  0.20162189132E+02  0.50400000000E-02 0. -1.
         -1   -1    0    0    0  501 -0.00000000000E+00 -0.00000000000E+00 -0.90965757183E+02  0.90965757322E+02  0.50400000000E-02 0.  1.
         23    2    1    2    0    0  0.00000000000E+00  0.44408920985E-15 -0.70803568681E+02  0.11112794645E+03  0.85652058617E+02 0.  0.
    9000005    2    3    3    0    0 -0.42447392585E+02 -0.26808901672E+01 -0.32623635483E+02  0.53973107566E+02  0.63108191890E+01 0.  0.
         22    1    3    3    0    0  0.42447392585E+02  0.26808901672E+01 -0.38179933197E+02  0.57154838888E+02  0.00000000000E+00 0. -1.
         22    1    4    4    0    0 -0.37629981076E+02 -0.43463621848E+01 -0.29278875288E+02  0.47876496093E+02  0.00000000000E+00 0.  1.
         22    1    4    4    0    0 -0.48174115097E+01  0.16654720175E+01 -0.33447601952E+01  0.60966114734E+01  0.00000000000E+00 0.  1.
<mgrwt>
<rscale>  0 0.85652059E+02</rscale>
<asrwt>0</asrwt>
<pdfrwt beam="1">  1        1 0.31018753E-02 0.85652059E+02</pdfrwt>
<pdfrwt beam="2">  1       -1 0.13994732E-01 0.85652059E+02</pdfrwt>
<totfact> 0.97178314E+04</totfact>
</mgrwt>
</event>
<event>
 7    1  0.3607059E-009  0.9228958E+02  0.7818608E-02  0.1297400E+00
         -1   -1    0    0    0  501 -0.00000000000E+00  0.00000000000E+00  0.10962614172E+03  0.10962614184E+03  0.50400000000E-02 0.  1.
          1   -1    0    0  501    0  0.00000000000E+00 -0.00000000000E+00 -0.19423666596E+02  0.19423667250E+02  0.50400000000E-02 0. -1.
         23    2    1    2    0    0  0.00000000000E+00  0.00000000000E+00  0.90202475124E+02  0.12904980909E+03  0.92289580704E+02 0.  0.
    9000005    2    3    3    0    0 -0.18416213374E+02  0.41327117406E+02  0.49867810004E+02  0.68436503958E+02  0.12233930326E+02 0.  0.
         22    1    3    3    0    0  0.18416213374E+02 -0.41327117406E+02  0.40334665120E+02  0.60613305128E+02  0.00000000000E+00 0.  1.
         22    1    4    4    0    0 -0.60479169103E+01  0.33243446660E+01  0.76389793438E+01  0.10294783719E+02  0.00000000000E+00 0. -1.
         22    1    4    4    0    0 -0.12368296463E+02  0.38002772740E+02  0.42228830660E+02  0.58141720238E+02  0.00000000000E+00 0. -1.
<mgrwt>
<rscale>  0 0.92289581E+02</rscale>
<asrwt>0</asrwt>
<pdfrwt beam="2">  1        1 0.29882565E-02 0.92289581E+02</pdfrwt>
<pdfrwt beam="1">  1       -1 0.16865560E-01 0.92289581E+02</pdfrwt>
<totfact> 0.77493244E+04</totfact>
</mgrwt>
</event>
<event>
 7    1  0.3607059E-009  0.9259686E+02  0.7818608E-02  0.1296682E+00
          1   -1    0    0  501    0  0.00000000000E+00  0.00000000000E+00  0.39546551352E+03  0.39546551355E+03  0.50400000000E-02 0. -1.
         -1   -1    0    0    0  501 -0.00000000000E+00 -0.00000000000E+00 -0.54203059385E+01  0.54203082817E+01  0.50400000000E-02 0.  1.
         23    2    1    2    0    0  0.00000000000E+00  0.00000000000E+00  0.39004520758E+03  0.40088582183E+03  0.92596858424E+02 0.  0.
    9000005    2    3    3    0    0 -0.36315618091E+02 -0.26982756991E+02  0.16775464853E+03  0.17403788613E+03  0.10033464559E+02 0.  0.
         22    1    3    3    0    0  0.36315618091E+02  0.26982756991E+02  0.22229055905E+03  0.22684793570E+03  0.00000000000E+00 0. -1.
         22    1    4    4    0    0 -0.29007040953E+02 -0.18789849141E+02  0.13969539732E+03  0.14390716065E+03  0.00000000000E+00 0.  1.
         22    1    4    4    0    0 -0.73085771381E+01 -0.81929078495E+01  0.28059251216E+02  0.30130725474E+02  0.00000000000E+00 0.  1.
<mgrwt>
<rscale>  0 0.92596858E+02</rscale>
<asrwt>0</asrwt>
<pdfrwt beam="1">  1        1 0.60840846E-01 0.92596858E+02</pdfrwt>
<pdfrwt beam="2">  1       -1 0.83389344E-03 0.92596858E+02</pdfrwt>
<totfact> 0.12921811E+05</totfact>
</mgrwt>
</event>
<event>
 7    1  0.3607059E-009  0.9016251E+02  0.7818608E-02  0.1302459E+00
         -1   -1    0    0    0  501 -0.00000000000E+00  0.00000000000E+00  0.16919228427E+02  0.16919229178E+02  0.50400000000E-02 0.  1.
          1   -1    0    0  501    0  0.00000000000E+00 -0.00000000000E+00 -0.12011893480E+03  0.12011893491E+03  0.50400000000E-02 0. -1.
         23    2    1    2    0    0  0.00000000000E+00  0.00000000000E+00 -0.10319970637E+03  0.13703816408E+03  0.90162514494E+02 0.  0.
    9000005    2    3    3    0    0  0.33519103858E+02  0.63538350506E+01 -0.94688865356E+02  0.10187659475E+03  0.15778396363E+02 0.  0.
         22    1    3    3    0    0 -0.33519103858E+02 -0.63538350506E+01 -0.85108410165E+01  0.35161569335E+02  0.00000000000E+00 0.  1.
         22    1    4    4    0    0  0.12881119736E+02  0.19780332207E+00 -0.17442456914E+02  0.21684134177E+02  0.00000000000E+00 0. -1.
         22    1    4    4    0    0  0.20637984121E+02  0.61560317285E+01 -0.77246408442E+02  0.80192460571E+02  0.00000000000E+00 0. -1.
<mgrwt>
<rscale>  0 0.90162514E+02</rscale>
<asrwt>0</asrwt>
<pdfrwt beam="2">  1        1 0.18479836E-01 0.90162514E+02</pdfrwt>
<pdfrwt beam="1">  1       -1 0.26029584E-02 0.90162514E+02</pdfrwt>
<totfact> 0.11107223E+05</totfact>
</mgrwt>
</event>
<event>
 7    1  0.3607059E-009  0.9102373E+02  0.7818608E-02  0.1300391E+00
          1   -1    0    0  501    0  0.00000000000E+00  0.00000000000E+00  0.24421133296E+02  0.24421133816E+02  0.50400000000E-02 0. -1.
         -1   -1    0    0    0  501 -0.00000000000E+00 -0.00000000000E+00 -0.84817099383E+02  0.84817099533E+02  0.50400000000E-02 0.  1.
         23    2    1    2    0    0  0.00000000000E+00 -0.17763568394E-14 -0.60395966087E+02  0.10923823335E+03  0.91023727157E+02 0.  0.
    9000005    2    3    3    0    0  0.92378605459E+01 -0.13179920102E+02 -0.81188591965E+02  0.82944096126E+02  0.53932601968E+01 0.  0.
         22    1    3    3    0    0 -0.92378605459E+01  0.13179920102E+02  0.20792625878E+02  0.26294137223E+02  0.00000000000E+00 0. -1.
         22    1    4    4    0    0  0.18564282255E+01 -0.61550117737E+01 -0.40024327799E+02  0.40537356986E+02  0.00000000000E+00 0. -1.
         22    1    4    4    0    0  0.73814323204E+01 -0.70249083286E+01 -0.41164264166E+02  0.42406739140E+02  0.00000000000E+00 0. -1.
<mgrwt>
<rscale>  0 0.91023727E+02</rscale>
<asrwt>0</asrwt>
<pdfrwt beam="1">  1        1 0.37570975E-02 0.91023727E+02</pdfrwt>
<pdfrwt beam="2">  1       -1 0.13048784E-01 0.91023727E+02</pdfrwt>
<totfact> 0.84170836E+04</totfact>
</mgrwt>
</event>
<event>
 7    1  0.3607059E-009  0.9053337E+02  0.7818608E-02  0.1301565E+00
          1   -1    0    0  501    0  0.00000000000E+00  0.00000000000E+00  0.13544771996E+02  0.13544772934E+02  0.50400000000E-02 0. -1.
         -1   -1    0    0    0  501 -0.00000000000E+00 -0.00000000000E+00 -0.15128145870E+03  0.15128145879E+03  0.50400000000E-02 0.  1.
         23    2    1    2    0    0  0.17763568394E-14 -0.71054273576E-14 -0.13773668671E+03  0.16482623172E+03  0.90533373947E+02 0.  0.
    9000005    2    3    3    0    0 -0.13611524249E+02  0.41617817716E+02 -0.57993862433E+02  0.73852420285E+02  0.13174807714E+02 0.  0.
         22    1    3    3    0    0  0.13611524249E+02 -0.41617817716E+02 -0.79742824275E+02  0.90973811436E+02  0.00000000000E+00 0. -1.
         22    1    4    4    0    0 -0.58873341491E+00  0.97299670871E+01 -0.21842900182E+02  0.23919263260E+02  0.00000000000E+00 0. -1.
         22    1    4    4    0    0 -0.13022790834E+02  0.31887850629E+02 -0.36150962251E+02  0.49933157025E+02  0.00000000000E+00 0. -1.
<mgrwt>
<rscale>  0 0.90533374E+02</rscale>
<asrwt>0</asrwt>
<pdfrwt beam="1">  1        1 0.20838113E-02 0.90533374E+02</pdfrwt>
<pdfrwt beam="2">  1       -1 0.23274069E-01 0.90533374E+02</pdfrwt>
<totfact> 0.76023222E+04</totfact>
</mgrwt>
</event>
<event>
 7    1  0.3607059E-009  0.9135047E+02  0.7818608E-02  0.1299614E+00
          1   -1    0    0  501    0  0.00000000000E+00  0.00000000000E+00  0.37925338266E+03  0.37925338269E+03  0.50400000000E-02 0. -1.
         -1   -1    0    0    0  501 -0.00000000000E+00 -0.00000000000E+00 -0.55008786047E+01  0.55008809136E+01  0.50400000000E-02 0.  1.
         23    2    1    2    0    0  0.00000000000E+00  0.00000000000E+00  0.37375250405E+03  0.38475426361E+03  0.91350473870E+02 0.  0.
    9000005    2    3    3    0    0  0.33626141639E+02 -0.13063998257E+02  0.30309115570E+03  0.30541693568E+03  0.10671011276E+02 0.  0.
         22    1    3    3    0    0 -0.33626141639E+02  0.13063998257E+02  0.70661348352E+02  0.79337327929E+02  0.00000000000E+00 0.  1.
         22    1    4    4    0    0  0.11494387808E+02 -0.65149277934E+01  0.15199215231E+03  0.15256532896E+03  0.00000000000E+00 0.  1.
         22    1    4    4    0    0  0.22131753830E+02 -0.65490704632E+01  0.15109900339E+03  0.15285160672E+03  0.00000000000E+00 0.  1.
<mgrwt>
<rscale>  0 0.91350474E+02</rscale>
<asrwt>0</asrwt>
<pdfrwt beam="1">  1        1 0.58346691E-01 0.91350474E+02</pdfrwt>
<pdfrwt beam="2">  1       -1 0.84628896E-03 0.91350474E+02</pdfrwt>
<totfact> 0.13301865E+05</totfact>
</mgrwt>
</event>
<event>
 7    1  0.3607059E-009  0.9598023E+02  0.7818608E-02  0.1288983E+00
          1   -1    0    0  501    0  0.00000000000E+00  0.00000000000E+00  0.14143897321E+03  0.14143897330E+03  0.50400000000E-02 0. -1.
         -1   -1    0    0    0  501 -0.00000000000E+00 -0.00000000000E+00 -0.16283003010E+02  0.16283003790E+02  0.50400000000E-02 0.  1.
         23    2    1    2    0    0  0.00000000000E+00  0.00000000000E+00  0.12515597020E+03  0.15772197709E+03  0.95980233278E+02 0.  0.
    9000005    2    3    3    0    0 -0.26913542001E+02  0.25602919406E+02  0.13093708091E+02  0.39663522016E+02  0.46799104717E+01 0.  0.
         22    1    3    3    0    0  0.26913542001E+02 -0.25602919406E+02  0.11206226211E+03  0.11805845507E+03  0.00000000000E+00 0. -1.
         22    1    4    4    0    0 -0.20027572415E+02  0.21600513990E+02  0.97888171522E+01  0.31040405968E+02  0.00000000000E+00 0.  1.
         22    1    4    4    0    0 -0.68859695861E+01  0.40024054162E+01  0.33048909386E+01  0.86231160477E+01  0.00000000000E+00 0.  1.
<mgrwt>
<rscale>  0 0.95980233E+02</rscale>
<asrwt>0</asrwt>
<pdfrwt beam="1">  1        1 0.21759842E-01 0.95980233E+02</pdfrwt>
<pdfrwt beam="2">  1       -1 0.25050775E-02 0.95980233E+02</pdfrwt>
<totfact> 0.96517944E+04</totfact>
</mgrwt>
</event>
<event>
 7    1  0.3607059E-009  0.9078709E+02  0.7818608E-02  0.1300957E+00
          1   -1    0    0  501    0  0.00000000000E+00  0.00000000000E+00  0.18668453576E+02  0.18668454256E+02  0.50400000000E-02 0. -1.
         -1   -1    0    0    0  501 -0.00000000000E+00 -0.00000000000E+00 -0.11037732530E+03  0.11037732541E+03  0.50400000000E-02 0.  1.
         23    2    1    2    0    0 -0.88817841970E-15  0.00000000000E+00 -0.91708871722E+02  0.12904577967E+03  0.90787092132E+02 0.  0.
    9000005    2    3    3    0    0 -0.69699196384E+01 -0.33580029974E+02 -0.86893995886E+02  0.94413695958E+02  0.13681420634E+02 0.  0.
         22    1    3    3    0    0  0.69699196384E+01  0.33580029974E+02 -0.48148758357E+01  0.34632083711E+02  0.00000000000E+00 0. -1.
         22    1    4    4    0    0 -0.37358234518E+01 -0.21548318877E+01 -0.19662803285E+02  0.20130213867E+02  0.00000000000E+00 0. -1.
         22    1    4    4    0    0 -0.32340961866E+01 -0.31425198086E+02 -0.67231192601E+02  0.74283482091E+02  0.00000000000E+00 0. -1.
<mgrwt>
<rscale>  0 0.90787092E+02</rscale>
<asrwt>0</asrwt>
<pdfrwt beam="1">  1        1 0.28720699E-02 0.90787092E+02</pdfrwt>
<pdfrwt beam="2">  1       -1 0.16981127E-01 0.90787092E+02</pdfrwt>
<totfact> 0.80741324E+04</totfact>
</mgrwt>
</event>
<event>
 7    1  0.3607059E-009  0.1006179E+03  0.7818608E-02  0.1279002E+00
          1   -1    0    0  501    0  0.00000000000E+00  0.00000000000E+00  0.63032195027E+01  0.63032215176E+01  0.50400000000E-02 0. -1.
         -1   -1    0    0    0  501 -0.00000000000E+00 -0.00000000000E+00 -0.40153919328E+03  0.40153919332E+03  0.50400000000E-02 0.  1.
         23    2    1    2    0    0  0.00000000000E+00  0.00000000000E+00 -0.39523597378E+03  0.40784241483E+03  0.10061789287E+03 0.  0.
    9000005    2    3    3    0    0  0.45497639406E+02  0.17452227867E+02 -0.16085027746E+03  0.16844469119E+03  0.11233288906E+02 0.  0.
         22    1    3    3    0    0 -0.45497639406E+02 -0.17452227867E+02 -0.23438569632E+03  0.23939772365E+03  0.00000000000E+00 0.  1.
         22    1    4    4    0    0  0.21563470000E+02  0.13325424634E+02 -0.71866209956E+02  0.76205658015E+02  0.00000000000E+00 0. -1.
         22    1    4    4    0    0  0.23934169407E+02  0.41268032327E+01 -0.88984067509E+02  0.92239033172E+02  0.00000000000E+00 0. -1.
<mgrwt>
<rscale>  0 0.10061789E+03</rscale>
<asrwt>0</asrwt>
<pdfrwt beam="1">  1        1 0.96972654E-03 0.10061789E+03</pdfrwt>
<pdfrwt beam="2">  1       -1 0.61775241E-01 0.10061789E+03</pdfrwt>
<totfact> 0.41044159E+04</totfact>
</mgrwt>
</event>
<event>
 7    1  0.3607059E-009  0.9289668E+02  0.7818608E-02  0.1295985E+00
         -1   -1    0    0    0  501 -0.00000000000E+00  0.00000000000E+00  0.32067838612E+01  0.32067878218E+01  0.50400000000E-02 0.  1.
          1   -1    0    0  501    0  0.00000000000E+00 -0.00000000000E+00 -0.67277597759E+03  0.67277597761E+03  0.50400000000E-02 0. -1.
         23    2    1    2    0    0  0.71054273576E-14  0.00000000000E+00 -0.66956919373E+03  0.67598276543E+03  0.92896684380E+02 0.  0.
    9000005    2    3    3    0    0  0.33053944433E+02  0.33002798800E+01 -0.57052338788E+03  0.57151493906E+03  0.53790671791E+01 0.  0.
         22    1    3    3    0    0 -0.33053944433E+02 -0.33002798800E+01 -0.99045805852E+02  0.10446782637E+03  0.00000000000E+00 0.  1.
         22    1    4    4    0    0  0.16102008488E+02  0.23701278443E+00 -0.31517396423E+03  0.31558510513E+03  0.00000000000E+00 0. -1.
         22    1    4    4    0    0  0.16951935945E+02  0.30632670956E+01 -0.25534942365E+03  0.25592983393E+03  0.00000000000E+00 0. -1.
<mgrwt>
<rscale>  0 0.92896684E+02</rscale>
<asrwt>0</asrwt>
<pdfrwt beam="2">  1        1 0.10350388E+00 0.92896684E+02</pdfrwt>
<pdfrwt beam="1">  1       -1 0.49335220E-03 0.92896684E+02</pdfrwt>
<totfact> 0.13530695E+05</totfact>
</mgrwt>
</event>
<event>
 7    1  0.3607059E-009  0.8958970E+02  0.7818608E-02  0.1303848E+00
         -1   -1    0    0    0  501 -0.00000000000E+00  0.00000000000E+00  0.64603438306E+02  0.64603438503E+02  0.50400000000E-02 0.  1.
          1   -1    0    0  501    0  0.00000000000E+00 -0.00000000000E+00 -0.31059936180E+02  0.31059936588E+02  0.50400000000E-02 0. -1.
         23    2    1    2    0    0  0.00000000000E+00  0.00000000000E+00  0.33543502127E+02  0.95663375091E+02  0.89589702527E+02 0.  0.
    9000005    2    3    3    0    0 -0.11786532044E+02  0.34513271625E+02 -0.10348036908E+02  0.38597137658E+02  0.72504421674E+01 0.  0.
         22    1    3    3    0    0  0.11786532044E+02 -0.34513271625E+02  0.43891539035E+02  0.57066237433E+02  0.00000000000E+00 0.  1.
         22    1    4    4    0    0 -0.42232311936E+01  0.16026631185E+02 -0.82492572089E+01  0.18513206998E+02  0.00000000000E+00 0. -1.
         22    1    4    4    0    0 -0.75633008509E+01  0.18486640440E+02 -0.20987796994E+01  0.20083930660E+02  0.00000000000E+00 0. -1.
<mgrwt>
<rscale>  0 0.89589703E+02</rscale>
<asrwt>0</asrwt>
<pdfrwt beam="2">  1        1 0.47784518E-02 0.89589703E+02</pdfrwt>
<pdfrwt beam="1">  1       -1 0.99389905E-02 0.89589703E+02</pdfrwt>
<totfact> 0.91655299E+04</totfact>
</mgrwt>
</event>
<event>
 7    1  0.3607059E-009  0.8158430E+02  0.7818608E-02  0.1324615E+00
          1   -1    0    0  501    0  0.00000000000E+00  0.00000000000E+00  0.58405168937E+02  0.58405169155E+02  0.50400000000E-02 0. -1.
         -1   -1    0    0    0  501 -0.00000000000E+00 -0.00000000000E+00 -0.28490621392E+02  0.28490621838E+02  0.50400000000E-02 0.  1.
         23    2    1    2    0    0 -0.17763568394E-14 -0.17763568394E-14  0.29914547546E+02  0.86895790992E+02  0.81584302028E+02 0.  0.
    9000005    2    3    3    0    0  0.15781977383E+02 -0.10000923974E+02 -0.22021737435E+02  0.31700981562E+02  0.13073102995E+02 0.  0.
         22    1    3    3    0    0 -0.15781977383E+02  0.10000923974E+02  0.51936284980E+02  0.55194809430E+02  0.00000000000E+00 0. -1.
         22    1    4    4    0    0  0.63238876654E+01  0.16309335920E+01 -0.22914280644E+01  0.69211373459E+01  0.00000000000E+00 0.  1.
         22    1    4    4    0    0  0.94580897172E+01 -0.11631857566E+02 -0.19730309370E+02  0.24779844216E+02  0.00000000000E+00 0.  1.
<mgrwt>
<rscale>  0 0.81584302E+02</rscale>
<asrwt>0</asrwt>
<pdfrwt beam="1">  1        1 0.89854106E-02 0.81584302E+02</pdfrwt>
<pdfrwt beam="2">  1       -1 0.43831726E-02 0.81584302E+02</pdfrwt>
<totfact> 0.13032980E+05</totfact>
</mgrwt>
</event>
<event>
 7    1  0.3607059E-009  0.9108018E+02  0.7818608E-02  0.1300257E+00
         -1   -1    0    0    0  501 -0.00000000000E+00  0.00000000000E+00  0.99110015069E+01  0.99110027884E+01  0.50400000000E-02 0.  1.
          1   -1    0    0  501    0  0.00000000000E+00 -0.00000000000E+00 -0.20925227499E+03  0.20925227505E+03  0.50400000000E-02 0. -1.
         23    2    1    2    0    0  0.00000000000E+00  0.71054273576E-14 -0.19934127349E+03  0.21916327784E+03  0.91080179180E+02 0.  0.
    9000005    2    3    3    0    0  0.41518867750E+01 -0.41060308899E+02 -0.60500748652E+02  0.74318952904E+02  0.12640373512E+02 0.  0.
         22    1    3    3    0    0 -0.41518867750E+01  0.41060308899E+02 -0.13884052483E+03  0.14484432494E+03  0.00000000000E+00 0. -1.
         22    1    4    4    0    0  0.32060733460E+01 -0.97333678059E+01 -0.73330083414E+01  0.12601204961E+02  0.00000000000E+00 0.  1.
         22    1    4    4    0    0  0.94581342900E+00 -0.31326941093E+02 -0.53167740311E+02  0.61717747942E+02  0.00000000000E+00 0.  1.
<mgrwt>
<rscale>  0 0.91080179E+02</rscale>
<asrwt>0</asrwt>
<pdfrwt beam="2">  1        1 0.32192655E-01 0.91080179E+02</pdfrwt>
<pdfrwt beam="1">  1       -1 0.15247697E-02 0.91080179E+02</pdfrwt>
<totfact> 0.11979142E+05</totfact>
</mgrwt>
</event>
<event>
 7    1  0.3607059E-009  0.9170706E+02  0.7818608E-02  0.1298770E+00
          1   -1    0    0  501    0  0.00000000000E+00  0.00000000000E+00  0.33996527542E+03  0.33996527546E+03  0.50400000000E-02 0. -1.
         -1   -1    0    0    0  501 -0.00000000000E+00 -0.00000000000E+00 -0.61845895426E+01  0.61845915962E+01  0.50400000000E-02 0.  1.
         23    2    1    2    0    0  0.00000000000E+00  0.71054273576E-14  0.33378068588E+03  0.34614986706E+03  0.91707056416E+02 0.  0.
    9000005    2    3    3    0    0 -0.22914446705E+02 -0.32611582932E+02  0.94761788616E+02  0.10383061388E+03  0.14574381238E+02 0.  0.
         22    1    3    3    0    0  0.22914446705E+02  0.32611582932E+02  0.23901889726E+03  0.24231925317E+03  0.00000000000E+00 0. -1.
         22    1    4    4    0    0 -0.58542170288E+01 -0.19542023760E+02  0.54484933077E+02  0.58178780342E+02  0.00000000000E+00 0. -1.
         22    1    4    4    0    0 -0.17060229676E+02 -0.13069559172E+02  0.40276855539E+02  0.45651833541E+02  0.00000000000E+00 0. -1.
<mgrwt>
<rscale>  0 0.91707056E+02</rscale>
<asrwt>0</asrwt>
<pdfrwt beam="1">  1        1 0.52302358E-01 0.91707056E+02</pdfrwt>
<pdfrwt beam="2">  1       -1 0.95147533E-03 0.91707056E+02</pdfrwt>
<totfact> 0.12913503E+05</totfact>
</mgrwt>
</event>
<event>
 7    1  0.3607059E-009  0.1154571E+03  0.7818608E-02  0.1250785E+00
          1   -1    0    0  501    0  0.00000000000E+00  0.00000000000E+00  0.14184759226E+03  0.14184759235E+03  0.50400000000E-02 0. -1.
         -1   -1    0    0    0  501 -0.00000000000E+00 -0.00000000000E+00 -0.23494112364E+02  0.23494112904E+02  0.50400000000E-02 0.  1.
         23    2    1    2    0    0  0.00000000000E+00  0.00000000000E+00  0.11835347989E+03  0.16534170525E+03  0.11545706255E+03 0.  0.
    9000005    2    3    3    0    0  0.16983922468E+02  0.53582726530E+02  0.72834443309E+02  0.93012285951E+02  0.13669930531E+02 0.  0.
         22    1    3    3    0    0 -0.16983922468E+02 -0.53582726530E+02  0.45519036585E+02  0.72329419301E+02  0.00000000000E+00 0.  1.
         22    1    4    4    0    0  0.90185885775E+01  0.34992974285E+02  0.36102480961E+02  0.51080645266E+02  0.00000000000E+00 0. -1.
         22    1    4    4    0    0  0.79653338904E+01  0.18589752245E+02  0.36731962348E+02  0.41931640684E+02  0.00000000000E+00 0. -1.
<mgrwt>
<rscale>  0 0.11545706E+03</rscale>
<asrwt>0</asrwt>
<pdfrwt beam="1">  1        1 0.21822706E-01 0.11545706E+03</pdfrwt>
<pdfrwt beam="2">  1       -1 0.36144790E-02 0.11545706E+03</pdfrwt>
<totfact> 0.58097245E+04</totfact>
</mgrwt>
</event>
<event>
 7    1  0.3607059E-009  0.9226255E+02  0.7818608E-02  0.1297463E+00
          1   -1    0    0  501    0  0.00000000000E+00  0.00000000000E+00  0.33995542010E+02  0.33995542383E+02  0.50400000000E-02 0. -1.
         -1   -1    0    0    0  501 -0.00000000000E+00 -0.00000000000E+00 -0.62599226812E+02  0.62599227015E+02  0.50400000000E-02 0.  1.
         23    2    1    2    0    0  0.00000000000E+00 -0.35527136788E-14 -0.28603684803E+02  0.96594769399E+02  0.92262553026E+02 0.  0.
    9000005    2    3    3    0    0  0.85834781803E+01 -0.31505007522E+02  0.18427642021E+02  0.39339312895E+02  0.11906382826E+02 0.  0.
         22    1    3    3    0    0 -0.85834781803E+01  0.31505007522E+02 -0.47031326824E+02  0.57255456503E+02  0.00000000000E+00 0.  1.
         22    1    4    4    0    0  0.34589721184E+01 -0.28528370712E+02  0.16328312861E+02  0.33052174278E+02  0.00000000000E+00 0. -1.
         22    1    4    4    0    0  0.51245060619E+01 -0.29766368101E+01  0.20993291599E+01  0.62871386178E+01  0.00000000000E+00 0. -1.
<mgrwt>
<rscale>  0 0.92262553E+02</rscale>
<asrwt>0</asrwt>
<pdfrwt beam="1">  1        1 0.52300834E-02 0.92262553E+02</pdfrwt>
<pdfrwt beam="2">  1       -1 0.96306503E-02 0.92262553E+02</pdfrwt>
<totfact> 0.85482591E+04</totfact>
</mgrwt>
</event>
<event>
 7    1  0.3607059E-009  0.7906487E+02  0.7818608E-02  0.1331726E+00
          1   -1    0    0  501    0  0.00000000000E+00  0.00000000000E+00  0.22422077623E+02  0.22422078190E+02  0.50400000000E-02 0. -1.
         -1   -1    0    0    0  501 -0.00000000000E+00 -0.00000000000E+00 -0.69699758887E+02  0.69699759069E+02  0.50400000000E-02 0.  1.
         23    2    1    2    0    0 -0.71054273576E-14  0.00000000000E+00 -0.47277681263E+02  0.92121837259E+02  0.79064870545E+02 0.  0.
    9000005    2    3    3    0    0 -0.34743079317E+02 -0.82113327231E+01 -0.43213295693E+02  0.56190976212E+02  0.39407280477E+01 0.  0.
         22    1    3    3    0    0  0.34743079317E+02  0.82113327231E+01 -0.40643855705E+01  0.35930861047E+02  0.00000000000E+00 0.  1.
         22    1    4    4    0    0 -0.16220515508E+02 -0.18239231251E+01 -0.19394481393E+02  0.25349116896E+02  0.00000000000E+00 0.  1.
         22    1    4    4    0    0 -0.18522563809E+02 -0.63874095980E+01 -0.23818814300E+02  0.30841859316E+02  0.00000000000E+00 0.  1.
<mgrwt>
<rscale>  0 0.79064871E+02</rscale>
<asrwt>0</asrwt>
<pdfrwt beam="1">  1        1 0.34495505E-02 0.79064871E+02</pdfrwt>
<pdfrwt beam="2">  1       -1 0.10723040E-01 0.79064871E+02</pdfrwt>
<totfact> 0.12444610E+05</totfact>
</mgrwt>
</event>
<event>
 7    1  0.3607059E-009  0.8910528E+02  0.7818608E-02  0.1305033E+00
         -1   -1    0    0    0  501 -0.00000000000E+00  0.00000000000E+00  0.26428691474E+03  0.26428691479E+03  0.50400000000E-02 0.  1.
          1   -1    0    0  501    0  0.00000000000E+00 -0.00000000000E+00 -0.75105404015E+01  0.75105420926E+01  0.50400000000E-02 0. -1.
         23    2    1    2    0    0  0.44408920985E-15  0.71054273576E-14  0.25677637434E+03  0.27179745688E+03  0.89105281260E+02 0.  0.
    9000005    2    3    3    0    0  0.21641534281E+01  0.36823861101E+02  0.59666804255E+02  0.71266005670E+02  0.12571226179E+02 0.  0.
         22    1    3    3    0    0 -0.21641534281E+01 -0.36823861101E+02  0.19710957008E+03  0.20053145121E+03  0.00000000000E+00 0.  1.
         22    1    4    4    0    0  0.60889463661E+01  0.17501148745E+02  0.22111283196E+02  0.28849164976E+02  0.00000000000E+00 0.  1.
         22    1    4    4    0    0 -0.39247929380E+01  0.19322712355E+02  0.37555521059E+02  0.42416840693E+02  0.00000000000E+00 0.  1.
<mgrwt>
<rscale>  0 0.89105281E+02</rscale>
<asrwt>0</asrwt>
<pdfrwt beam="2">  1        1 0.11554680E-02 0.89105281E+02</pdfrwt>
<pdfrwt beam="1">  1       -1 0.40659523E-01 0.89105281E+02</pdfrwt>
<totfact> 0.67453576E+04</totfact>
</mgrwt>
</event>
<event>
 7    1  0.3607059E-009  0.9573400E+02  0.7818608E-02  0.1289531E+00
          1   -1    0    0  501    0  0.00000000000E+00  0.00000000000E+00  0.24064031713E+02  0.24064032241E+02  0.50400000000E-02 0. -1.
         -1   -1    0    0    0  501 -0.00000000000E+00 -0.00000000000E+00 -0.95214698145E+02  0.95214698278E+02  0.50400000000E-02 0.  1.
         23    2    1    2    0    0  0.00000000000E+00  0.00000000000E+00 -0.71150666432E+02  0.11927873052E+03  0.95733997203E+02 0.  0.
    9000005    2    3    3    0    0 -0.28140540341E+02  0.37209044439E+02 -0.29971219491E+02  0.57052129703E+02  0.13426410802E+02 0.  0.
         22    1    3    3    0    0  0.28140540341E+02 -0.37209044439E+02 -0.41179446941E+02  0.62226600816E+02  0.00000000000E+00 0. -1.
         22    1    4    4    0    0 -0.36852962064E+01  0.12509366946E+02 -0.39280733207E+01  0.13619670684E+02  0.00000000000E+00 0. -1.
         22    1    4    4    0    0 -0.24455244135E+02  0.24699677493E+02 -0.26043146171E+02  0.43432459019E+02  0.00000000000E+00 0. -1.
<mgrwt>
<rscale>  0 0.95733997E+02</rscale>
<asrwt>0</asrwt>
<pdfrwt beam="1">  1        1 0.37021588E-02 0.95733997E+02</pdfrwt>
<pdfrwt beam="2">  1       -1 0.14648415E-01 0.95733997E+02</pdfrwt>
<totfact> 0.72413288E+04</totfact>
</mgrwt>
</event>
<event>
 7    1  0.3607059E-009  0.9276896E+02  0.7818608E-02  0.1296281E+00
          1   -1    0    0  501    0  0.00000000000E+00  0.00000000000E+00  0.10404485343E+02  0.10404486564E+02  0.50400000000E-02 0. -1.
         -1   -1    0    0    0  501 -0.00000000000E+00 -0.00000000000E+00 -0.20678771267E+03  0.20678771273E+03  0.50400000000E-02 0.  1.
         23    2    1    2    0    0  0.00000000000E+00 -0.71054273576E-14 -0.19638322733E+03  0.21719219930E+03  0.92768957412E+02 0.  0.
    9000005    2    3    3    0    0  0.18784841955E+02 -0.39862653545E+02 -0.69070278889E+02  0.82468451296E+02  0.94042861732E+01 0.  0.
         22    1    3    3    0    0 -0.18784841955E+02  0.39862653545E+02 -0.12731294844E+03  0.13472374800E+03  0.00000000000E+00 0.  1.
         22    1    4    4    0    0  0.14887773165E+02 -0.35844017102E+02 -0.54915519828E+02  0.67246960302E+02  0.00000000000E+00 0.  1.
         22    1    4    4    0    0  0.38970687905E+01 -0.40186364425E+01 -0.14154759060E+02  0.15221490994E+02  0.00000000000E+00 0.  1.
<mgrwt>
<rscale>  0 0.92768957E+02</rscale>
<asrwt>0</asrwt>
<pdfrwt beam="1">  1        1 0.16006903E-02 0.92768957E+02</pdfrwt>
<pdfrwt beam="2">  1       -1 0.31813491E-01 0.92768957E+02</pdfrwt>
<totfact> 0.65719544E+04</totfact>
</mgrwt>
</event>
<event>
 7    1  0.3607059E-009  0.8997730E+02  0.7818608E-02  0.1302907E+00
         -1   -1    0    0    0  501 -0.00000000000E+00  0.00000000000E+00  0.17099006034E+02  0.17099006777E+02  0.50400000000E-02 0.  1.
          1   -1    0    0  501    0  0.00000000000E+00 -0.00000000000E+00 -0.11836821128E+03  0.11836821139E+03  0.50400000000E-02 0. -1.
         23    2    1    2    0    0  0.35527136788E-14  0.00000000000E+00 -0.10126920525E+03  0.13546721817E+03  0.89977304173E+02 0.  0.
    9000005    2    3    3    0    0 -0.19173744246E+02 -0.56089261833E+01  0.72491284945E+01  0.25125379866E+02  0.13403071594E+02 0.  0.
         22    1    3    3    0    0  0.19173744246E+02  0.56089261833E+01 -0.10851833374E+03  0.11034183830E+03  0.00000000000E+00 0. -1.
         22    1    4    4    0    0  0.18575823844E+01 -0.11216926684E+01 -0.56946674263E+00  0.22434569593E+01  0.00000000000E+00 0. -1.
         22    1    4    4    0    0 -0.21031326630E+02 -0.44872335148E+01  0.78185952371E+01  0.22881922907E+02  0.00000000000E+00 0. -1.
<mgrwt>
<rscale>  0 0.89977304E+02</rscale>
<asrwt>0</asrwt>
<pdfrwt beam="2">  1        1 0.18210494E-01 0.89977304E+02</pdfrwt>
<pdfrwt beam="1">  1       -1 0.26306165E-02 0.89977304E+02</pdfrwt>
<totfact> 0.11140927E+05</totfact>
</mgrwt>
</event>
<event>
 7    1  0.3607059E-009  0.9014230E+02  0.7818608E-02  0.1302507E+00
          1   -1    0    0  501    0  0.00000000000E+00  0.00000000000E+00  0.32025234910E+03  0.32025234914E+03  0.50400000000E-02 0. -1.
         -1   -1    0    0    0  501 -0.00000000000E+00 -0.00000000000E+00 -0.63431479933E+01  0.63431499956E+01  0.50400000000E-02 0.  1.
         23    2    1    2    0    0  0.44408920985E-15  0.00000000000E+00  0.31390920110E+03  0.32659549913E+03  0.90142295932E+02 0.  0.
    9000005    2    3    3    0    0 -0.33801816128E+01 -0.36348509228E+02  0.25146789283E+03  0.25426599803E+03  0.90805769858E+01 0.  0.
         22    1    3    3    0    0  0.33801816128E+01  0.36348509228E+02  0.62441308269E+02  0.72329501099E+02  0.00000000000E+00 0.  1.
         22    1    4    4    0    0 -0.22155001253E+01 -0.76213215641E+01  0.81289447760E+02  0.81675989742E+02  0.00000000000E+00 0.  1.
         22    1    4    4    0    0 -0.11646814876E+01 -0.28727187664E+02  0.17017844507E+03  0.17259000829E+03  0.00000000000E+00 0.  1.
<mgrwt>
<rscale>  0 0.90142296E+02</rscale>
<asrwt>0</asrwt>
<pdfrwt beam="1">  1        1 0.49269588E-01 0.90142296E+02</pdfrwt>
<pdfrwt beam="2">  1       -1 0.97586916E-03 0.90142296E+02</pdfrwt>
<totfact> 0.13370737E+05</totfact>
</mgrwt>
</event>
<event>
 7    1  0.3607059E-009  0.9318896E+02  0.7818608E-02  0.1295308E+00
          1   -1    0    0  501    0  0.00000000000E+00  0.00000000000E+00  0.60584136347E+03  0.60584136349E+03  0.50400000000E-02 0.  1.
         -1   -1    0    0    0  501 -0.00000000000E+00 -0.00000000000E+00 -0.35835200022E+01  0.35835235464E+01  0.50400000000E-02 0. -1.
         23    2    1    2    0    0 -0.35527136788E-14  0.35527136788E-14  0.60225784346E+03  0.60942488703E+03  0.93188963520E+02 0.  0.
    9000005    2    3    3    0    0  0.19743461640E+02 -0.27172518603E+02  0.50836216164E+03  0.50970252690E+03  0.15376231647E+02 0.  0.
         22    1    3    3    0    0 -0.19743461640E+02  0.27172518603E+02  0.93895681823E+02  0.99722360129E+02  0.00000000000E+00 0. -1.
         22    1    4    4    0    0  0.21597251509E+02 -0.27452108348E+02  0.49054530230E+03  0.49178730477E+03  0.00000000000E+00 0. -1.
         22    1    4    4    0    0 -0.18537898693E+01  0.27958974538E+00  0.17816859341E+02  0.17915222133E+02  0.00000000000E+00 0. -1.
<mgrwt>
<rscale>  0 0.93188964E+02</rscale>
<asrwt>0</asrwt>
<pdfrwt beam="1">  1        1 0.93206431E-01 0.93188964E+02</pdfrwt>
<pdfrwt beam="2">  1       -1 0.55131065E-03 0.93188964E+02</pdfrwt>
<totfact> 0.13370420E+05</totfact>
</mgrwt>
</event>
<event>
 7    1  0.3607059E-009  0.9083202E+02  0.7818608E-02  0.1300849E+00
         -1   -1    0    0    0  501 -0.00000000000E+00  0.00000000000E+00  0.17295145773E+02  0.17295146507E+02  0.50400000000E-02 0.  1.
          1   -1    0    0  501    0  0.00000000000E+00 -0.00000000000E+00 -0.11925969296E+03  0.11925969307E+03  0.50400000000E-02 0. -1.
         23    2    1    2    0    0  0.00000000000E+00 -0.35527136788E-14 -0.10196454719E+03  0.13655483958E+03  0.90832017088E+02 0.  0.
    9000005    2    3    3    0    0  0.10564242859E+02 -0.18331331834E+02 -0.11130169818E+03  0.11342859166E+03  0.55078520600E+01 0.  0.
         22    1    3    3    0    0 -0.10564242859E+02  0.18331331834E+02  0.93371509913E+01  0.23126247915E+02  0.00000000000E+00 0.  1.
         22    1    4    4    0    0  0.19364210449E+01 -0.12318977919E+01 -0.20555580331E+02  0.20683306829E+02  0.00000000000E+00 0. -1.
         22    1    4    4    0    0  0.86278218142E+01 -0.17099434042E+02 -0.90746117852E+02  0.92745284834E+02  0.00000000000E+00 0. -1.
<mgrwt>
<rscale>  0 0.90832017E+02</rscale>
<asrwt>0</asrwt>
<pdfrwt beam="2">  1        1 0.18347645E-01 0.90832017E+02</pdfrwt>
<pdfrwt beam="1">  1       -1 0.26607918E-02 0.90832017E+02</pdfrwt>
<totfact> 0.10873450E+05</totfact>
</mgrwt>
</event>
<event>
 7    1  0.4025140E-009  0.9376358E+02  0.7818608E-02  0.1293985E+00
          1   -1    0    0  501    0  0.00000000000E+00  0.00000000000E+00  0.69709630380E+02  0.69709630562E+02  0.50400000000E-02 0. -1.
         -1   -1    0    0    0  501 -0.00000000000E+00 -0.00000000000E+00 -0.31529393915E+02  0.31529394318E+02  0.50400000000E-02 0.  1.
         23    2    1    2    0    0  0.00000000000E+00  0.00000000000E+00  0.38180236465E+02  0.10123902488E+03  0.93763584094E+02 0.  0.
    9000005    2    3    3    0    0  0.51308314503E+00  0.28338945917E+02  0.58201412685E+02  0.66537344702E+02  0.15377083321E+02 0.  0.
         22    1    3    3    0    0 -0.51308314503E+00 -0.28338945917E+02 -0.20021176220E+02  0.34701680179E+02  0.00000000000E+00 0.  1.
         22    1    4    4    0    0  0.54989411153E+01  0.18359430006E+02  0.24929122424E+02  0.31444684263E+02  0.00000000000E+00 0. -1.
         22    1    4    4    0    0 -0.49858579703E+01  0.99795159110E+01  0.33272290261E+02  0.35092660439E+02  0.00000000000E+00 0. -1.
<mgrwt>
<rscale>  0 0.93763584E+02</rscale>
<asrwt>0</asrwt>
<pdfrwt beam="1">  1        1 0.10724558E-01 0.93763584E+02</pdfrwt>
<pdfrwt beam="2">  1       -1 0.48506761E-02 0.93763584E+02</pdfrwt>
<totfact> 0.91260496E+04</totfact>
</mgrwt>
</event>
<event>
 7    1  0.3607059E-009  0.9691470E+02  0.7818608E-02  0.1286921E+00
          1   -1    0    0  501    0  0.00000000000E+00  0.00000000000E+00  0.22355951382E+03  0.22355951387E+03  0.50400000000E-02 0. -1.
         -1   -1    0    0    0  501 -0.00000000000E+00 -0.00000000000E+00 -0.10503309810E+02  0.10503311019E+02  0.50400000000E-02 0.  1.
         23    2    1    2    0    0  0.00000000000E+00  0.00000000000E+00  0.21305620401E+03  0.23406282489E+03  0.96914704410E+02 0.  0.
    9000005    2    3    3    0    0 -0.24104728624E+02 -0.40546417808E+02  0.12288707001E+03  0.13230073635E+03  0.13311758853E+02 0.  0.
         22    1    3    3    0    0  0.24104728624E+02  0.40546417808E+02  0.90169133998E+02  0.10176208854E+03  0.00000000000E+00 0.  1.
         22    1    4    4    0    0 -0.71185454152E+01 -0.30761836528E+01  0.16340424834E+02  0.18087179948E+02  0.00000000000E+00 0. -1.
         22    1    4    4    0    0 -0.16986183208E+02 -0.37470234155E+02  0.10654664517E+03  0.11421355640E+03  0.00000000000E+00 0. -1.
<mgrwt>
<rscale>  0 0.96914704E+02</rscale>
<asrwt>0</asrwt>
<pdfrwt beam="1">  1        1 0.34393771E-01 0.96914704E+02</pdfrwt>
<pdfrwt beam="2">  1       -1 0.16158939E-02 0.96914704E+02</pdfrwt>
<totfact> 0.10269981E+05</totfact>
</mgrwt>
</event>
<event>
 7    1  0.3607059E-009  0.9109686E+02  0.7818608E-02  0.1300217E+00
          1   -1    0    0  501    0  0.00000000000E+00  0.00000000000E+00  0.76435653922E+02  0.76435654088E+02  0.50400000000E-02 0. -1.
         -1   -1    0    0    0  501 -0.00000000000E+00 -0.00000000000E+00 -0.27142560720E+02  0.27142561188E+02  0.50400000000E-02 0.  1.
         23    2    1    2    0    0  0.00000000000E+00  0.00000000000E+00  0.49293093201E+02  0.10357821528E+03  0.91096858576E+02 0.  0.
    9000005    2    3    3    0    0 -0.25644698501E+02  0.10632787168E+02 -0.15158721772E+02  0.33401700846E+02  0.10732196862E+02 0.  0.
         22    1    3    3    0    0  0.25644698501E+02 -0.10632787168E+02  0.64451814973E+02  0.70176514430E+02  0.00000000000E+00 0. -1.
         22    1    4    4    0    0 -0.25786056933E+02  0.90378853534E+01 -0.15925574662E+02  0.31626381900E+02  0.00000000000E+00 0. -1.
         22    1    4    4    0    0  0.14135843160E+00  0.15949018148E+01  0.76685289001E+00  0.17753189460E+01  0.00000000000E+00 0. -1.
<mgrwt>
<rscale>  0 0.91096859E+02</rscale>
<asrwt>0</asrwt>
<pdfrwt beam="1">  1        1 0.11759331E-01 0.91096859E+02</pdfrwt>
<pdfrwt beam="2">  1       -1 0.41757786E-02 0.91096859E+02</pdfrwt>
<totfact> 0.10026707E+05</totfact>
</mgrwt>
</event>
<event>
 7    1  0.3607059E-009  0.9167153E+02  0.7818608E-02  0.1298854E+00
          1   -1    0    0  501    0  0.00000000000E+00  0.00000000000E+00  0.70187000280E+02  0.70187000461E+02  0.50400000000E-02 0. -1.
         -1   -1    0    0    0  501 -0.00000000000E+00 -0.00000000000E+00 -0.29933139151E+02  0.29933139575E+02  0.50400000000E-02 0.  1.
         23    2    1    2    0    0 -0.35527136788E-14  0.00000000000E+00  0.40253861130E+02  0.10012014004E+03  0.91671528323E+02 0.  0.
    9000005    2    3    3    0    0 -0.30983987591E+02  0.20913637257E+02 -0.69728333549E+01  0.39889347394E+02  0.12047901070E+02 0.  0.
         22    1    3    3    0    0  0.30983987591E+02 -0.20913637257E+02  0.47226694485E+02  0.60230792642E+02  0.00000000000E+00 0.  1.
         22    1    4    4    0    0 -0.29528425049E+02  0.15670159752E+02 -0.39417023753E+01  0.33660344772E+02  0.00000000000E+00 0. -1.
         22    1    4    4    0    0 -0.14555625422E+01  0.52434775049E+01 -0.30311309796E+01  0.62290026227E+01  0.00000000000E+00 0. -1.
<mgrwt>
<rscale>  0 0.91671528E+02</rscale>
<asrwt>0</asrwt>
<pdfrwt beam="1">  1        1 0.10798000E-01 0.91671528E+02</pdfrwt>
<pdfrwt beam="2">  1       -1 0.46050984E-02 0.91671528E+02</pdfrwt>
<totfact> 0.97243701E+04</totfact>
</mgrwt>
</event>
<event>
 7    1  0.3607059E-009  0.9515992E+02  0.7818608E-02  0.1290816E+00
         -1   -1    0    0    0  501 -0.00000000000E+00  0.00000000000E+00  0.55351167833E+03  0.55351167835E+03  0.50400000000E-02 0.  1.
          1   -1    0    0  501    0  0.00000000000E+00 -0.00000000000E+00 -0.40899801846E+01  0.40899832899E+01  0.50400000000E-02 0. -1.
         23    2    1    2    0    0  0.00000000000E+00  0.71054273576E-14  0.54942169815E+03  0.55760166164E+03  0.95159921574E+02 0.  0.
    9000005    2    3    3    0    0 -0.32342720893E+01 -0.43181158584E+02  0.38763938062E+03  0.39012452518E+03  0.76014978693E+01 0.  0.
         22    1    3    3    0    0  0.32342720893E+01  0.43181158584E+02  0.16178231753E+03  0.16747713646E+03  0.00000000000E+00 0. -1.
         22    1    4    4    0    0  0.21082925279E+00 -0.35940697201E+02  0.31909818367E+03  0.32111591208E+03  0.00000000000E+00 0. -1.
         22    1    4    4    0    0 -0.34451013421E+01 -0.72404613828E+01  0.68541196944E+02  0.69008613106E+02  0.00000000000E+00 0. -1.
<mgrwt>
<rscale>  0 0.95159922E+02</rscale>
<asrwt>0</asrwt>
<pdfrwt beam="2">  1        1 0.62922735E-03 0.95159922E+02</pdfrwt>
<pdfrwt beam="1">  1       -1 0.85155726E-01 0.95159922E+02</pdfrwt>
<totfact> 0.39364258E+04</totfact>
</mgrwt>
</event>
<event>
 7    1  0.3607059E-009  0.1007392E+03  0.7818608E-02  0.1278749E+00
         -1   -1    0    0    0  501 -0.00000000000E+00  0.00000000000E+00  0.16583431455E+03  0.16583431463E+03  0.50400000000E-02 0.  1.
          1   -1    0    0  501    0  0.00000000000E+00 -0.00000000000E+00 -0.15298983469E+02  0.15298984299E+02  0.50400000000E-02 0. -1.
         23    2    1    2    0    0  0.00000000000E+00  0.00000000000E+00  0.15053533109E+03  0.18113329893E+03  0.10073919831E+03 0.  0.
    9000005    2    3    3    0    0  0.52176125252E+01  0.44329245576E+02  0.11483008196E+03  0.12397413248E+03  0.13832292222E+02 0.  0.
         22    1    3    3    0    0 -0.52176125252E+01 -0.44329245576E+02  0.35705249126E+02  0.57159166447E+02  0.00000000000E+00 0.  1.
         22    1    4    4    0    0  0.29742186207E+01  0.18467776475E+02  0.30894601827E+02  0.36116217499E+02  0.00000000000E+00 0.  1.
         22    1    4    4    0    0  0.22433939046E+01  0.25861469101E+02  0.83935480133E+02  0.87857914984E+02  0.00000000000E+00 0.  1.
<mgrwt>
<rscale>  0 0.10073920E+03</rscale>
<asrwt>0</asrwt>
<pdfrwt beam="2">  1        1 0.23536900E-02 0.10073920E+03</pdfrwt>
<pdfrwt beam="1">  1       -1 0.25512970E-01 0.10073920E+03</pdfrwt>
<totfact> 0.56280072E+04</totfact>
</mgrwt>
</event>
<event>
 7    1  0.3607059E-009  0.8436999E+02  0.7818608E-02  0.1317088E+00
          1   -1    0    0  501    0  0.00000000000E+00  0.00000000000E+00  0.10714390206E+03  0.10714390218E+03  0.50400000000E-02 0. -1.
         -1   -1    0    0    0  501 -0.00000000000E+00 -0.00000000000E+00 -0.16609191444E+02  0.16609192209E+02  0.50400000000E-02 0.  1.
         23    2    1    2    0    0  0.00000000000E+00  0.44408920985E-15  0.90534710621E+02  0.12375309439E+03  0.84369986040E+02 0.  0.
    9000005    2    3    3    0    0 -0.32346080496E+02 -0.21126199642E+01  0.83137568200E+02  0.90504789133E+02  0.15117192967E+02 0.  0.
         22    1    3    3    0    0  0.32346080496E+02  0.21126199642E+01  0.73971424207E+01  0.33248305259E+02  0.00000000000E+00 0. -1.
         22    1    4    4    0    0 -0.32157481434E+02 -0.49304938927E+01  0.79503245181E+02  0.85902150011E+02  0.00000000000E+00 0. -1.
         22    1    4    4    0    0 -0.18859906289E+00  0.28178739284E+01  0.36343230190E+01  0.46026391223E+01  0.00000000000E+00 0. -1.
<mgrwt>
<rscale>  0 0.84369986E+02</rscale>
<asrwt>0</asrwt>
<pdfrwt beam="1">  1        1 0.16483677E-01 0.84369986E+02</pdfrwt>
<pdfrwt beam="2">  1       -1 0.25552603E-02 0.84369986E+02</pdfrwt>
<totfact> 0.13034519E+05</totfact>
</mgrwt>
</event>
<event>
 7    1  0.3607059E-009  0.8902400E+02  0.7818608E-02  0.1305233E+00
         -1   -1    0    0    0  501 -0.00000000000E+00  0.00000000000E+00  0.41731615367E+02  0.41731615671E+02  0.50400000000E-02 0.  1.
          1   -1    0    0  501    0  0.00000000000E+00 -0.00000000000E+00 -0.47477624017E+02  0.47477624285E+02  0.50400000000E-02 0. -1.
         23    2    1    2    0    0  0.71054273576E-14  0.35527136788E-14 -0.57460086499E+01  0.89209239956E+02  0.89023996080E+02 0.  0.
    9000005    2    3    3    0    0  0.37909197329E+02  0.20151879554E+02  0.52564197422E+01  0.44889279191E+02  0.12008827841E+02 0.  0.
         22    1    3    3    0    0 -0.37909197329E+02 -0.20151879554E+02 -0.11002428392E+02  0.44319960765E+02  0.00000000000E+00 0. -1.
         22    1    4    4    0    0  0.31944785452E+02  0.14556774334E+02 -0.11450492794E+00  0.35105300282E+02  0.00000000000E+00 0. -1.
         22    1    4    4    0    0  0.59644118771E+01  0.55951052209E+01  0.53709246702E+01  0.97839789087E+01  0.00000000000E+00 0. -1.
<mgrwt>
<rscale>  0 0.89023996E+02</rscale>
<asrwt>0</asrwt>
<pdfrwt beam="2">  1        1 0.73042499E-02 0.89023996E+02</pdfrwt>
<pdfrwt beam="1">  1       -1 0.64202486E-02 0.89023996E+02</pdfrwt>
<totfact> 0.99461483E+04</totfact>
</mgrwt>
</event>
<event>
 7    1  0.3607059E-009  0.9458160E+02  0.7818608E-02  0.1292121E+00
         -1   -1    0    0    0  501 -0.00000000000E+00  0.00000000000E+00  0.28900835340E+02  0.28900835779E+02  0.50400000000E-02 0.  1.
          1   -1    0    0  501    0  0.00000000000E+00 -0.00000000000E+00 -0.77382534703E+02  0.77382534867E+02  0.50400000000E-02 0. -1.
         23    2    1    2    0    0  0.00000000000E+00 -0.17763568394E-14 -0.48481699363E+02  0.10628337065E+03  0.94581603406E+02 0.  0.
    9000005    2    3    3    0    0 -0.34303897287E+01  0.10684560777E+02 -0.75736979415E+02  0.76808335389E+02  0.61239629069E+01 0.  0.
         22    1    3    3    0    0  0.34303897287E+01 -0.10684560777E+02  0.27255280052E+02  0.29475035257E+02  0.00000000000E+00 0.  1.
         22    1    4    4    0    0 -0.44343463909E+01  0.95940556470E+01 -0.72255786176E+02  0.73024707926E+02  0.00000000000E+00 0.  1.
         22    1    4    4    0    0  0.10039566622E+01  0.10905051304E+01 -0.34811932385E+01  0.37836274635E+01  0.00000000000E+00 0.  1.
<mgrwt>
<rscale>  0 0.94581603E+02</rscale>
<asrwt>0</asrwt>
<pdfrwt beam="2">  1        1 0.11905005E-01 0.94581603E+02</pdfrwt>
<pdfrwt beam="1">  1       -1 0.44462824E-02 0.94581603E+02</pdfrwt>
<totfact> 0.90581641E+04</totfact>
</mgrwt>
</event>
<event>
 7    1  0.3607059E-009  0.9439784E+02  0.7818608E-02  0.1292538E+00
          1   -1    0    0  501    0  0.00000000000E+00  0.00000000000E+00  0.20500509600E+02  0.20500510220E+02  0.50400000000E-02 0. -1.
         -1   -1    0    0    0  501 -0.00000000000E+00 -0.00000000000E+00 -0.10866744814E+03  0.10866744826E+03  0.50400000000E-02 0.  1.
         23    2    1    2    0    0  0.00000000000E+00  0.00000000000E+00 -0.88166938538E+02  0.12916795848E+03  0.94397841318E+02 0.  0.
    9000005    2    3    3    0    0  0.31303406563E+02 -0.33766336860E+02 -0.55405580313E+02  0.72658000414E+02  0.94518742551E+01 0.  0.
         22    1    3    3    0    0 -0.31303406563E+02  0.33766336860E+02 -0.32761358226E+02  0.56509958062E+02  0.00000000000E+00 0. -1.
         22    1    4    4    0    0  0.12574599618E+02 -0.73272185618E+01 -0.18747489107E+02  0.23733458139E+02  0.00000000000E+00 0. -1.
         22    1    4    4    0    0  0.18728806945E+02 -0.26439118298E+02 -0.36658091206E+02  0.48924542275E+02  0.00000000000E+00 0. -1.
<mgrwt>
<rscale>  0 0.94397841E+02</rscale>
<asrwt>0</asrwt>
<pdfrwt beam="1">  1        1 0.31539247E-02 0.94397841E+02</pdfrwt>
<pdfrwt beam="2">  1       -1 0.16718069E-01 0.94397841E+02</pdfrwt>
<totfact> 0.73224431E+04</totfact>
</mgrwt>
</event>
<event>
 7    1  0.3607059E-009  0.9043246E+02  0.7818608E-02  0.1301808E+00
          1   -1    0    0  501    0  0.00000000000E+00  0.00000000000E+00  0.20381996601E+02  0.20381997224E+02  0.50400000000E-02 0. -1.
         -1   -1    0    0    0  501 -0.00000000000E+00 -0.00000000000E+00 -0.10030947451E+03  0.10030947464E+03  0.50400000000E-02 0.  1.
         23    2    1    2    0    0  0.00000000000E+00  0.35527136788E-14 -0.79927477912E+02  0.12069147186E+03  0.90432459081E+02 0.  0.
    9000005    2    3    3    0    0  0.16549516094E+02  0.23355145237E+02 -0.86618722669E+02  0.91295518939E+02  0.35664225253E+01 0.  0.
         22    1    3    3    0    0 -0.16549516094E+02 -0.23355145237E+02  0.66912447566E+01  0.29395952925E+02  0.00000000000E+00 0. -1.
         22    1    4    4    0    0  0.11177457045E+02  0.18342775241E+02 -0.63100329617E+02  0.66656166611E+02  0.00000000000E+00 0. -1.
         22    1    4    4    0    0  0.53720590491E+01  0.50123699954E+01 -0.23518393052E+02  0.24639352328E+02  0.00000000000E+00 0. -1.
<mgrwt>
<rscale>  0 0.90432459E+02</rscale>
<asrwt>0</asrwt>
<pdfrwt beam="1">  1        1 0.31356919E-02 0.90432459E+02</pdfrwt>
<pdfrwt beam="2">  1       -1 0.15432227E-01 0.90432459E+02</pdfrwt>
<totfact> 0.83057581E+04</totfact>
</mgrwt>
</event>
<event>
 7    1  0.3607059E-009  0.8955523E+02  0.7818608E-02  0.1303932E+00
         -1   -1    0    0    0  501 -0.00000000000E+00  0.00000000000E+00  0.19044506259E+02  0.19044506926E+02  0.50400000000E-02 0.  1.
          1   -1    0    0  501    0  0.00000000000E+00 -0.00000000000E+00 -0.10528151970E+03  0.10528151982E+03  0.50400000000E-02 0. -1.
         23    2    1    2    0    0  0.00000000000E+00  0.00000000000E+00 -0.86237013437E+02  0.12432602674E+03  0.89555225638E+02 0.  0.
    9000005    2    3    3    0    0  0.21662231954E+02  0.75999259263E+01  0.95445253601E+01  0.25831791675E+02  0.70122984455E+01 0.  0.
         22    1    3    3    0    0 -0.21662231954E+02 -0.75999259263E+01 -0.95781538797E+02  0.98494235068E+02  0.00000000000E+00 0. -1.
         22    1    4    4    0    0  0.19392767159E+02  0.89542019174E+01  0.85601759600E+01  0.23011600608E+02  0.00000000000E+00 0. -1.
         22    1    4    4    0    0  0.22694647943E+01 -0.13542759911E+01  0.98434940006E+00  0.28201910670E+01  0.00000000000E+00 0. -1.
<mgrwt>
<rscale>  0 0.89555226E+02</rscale>
<asrwt>0</asrwt>
<pdfrwt beam="2">  1        1 0.16197157E-01 0.89555226E+02</pdfrwt>
<pdfrwt beam="1">  1       -1 0.29299242E-02 0.89555226E+02</pdfrwt>
<totfact> 0.11061897E+05</totfact>
</mgrwt>
</event>
<event>
 7    1  0.3607059E-009  0.9017371E+02  0.7818608E-02  0.1302432E+00
         -1   -1    0    0    0  501 -0.00000000000E+00  0.00000000000E+00  0.22960009126E+01  0.22960064443E+01  0.50400000000E-02 0.  1.
          1   -1    0    0  501    0  0.00000000000E+00 -0.00000000000E+00 -0.88537506335E+03  0.88537506337E+03  0.50400000000E-02 0. -1.
         23    2    1    2    0    0  0.00000000000E+00  0.00000000000E+00 -0.88307906244E+03  0.88767106981E+03  0.90173708252E+02 0.  0.
    9000005    2    3    3    0    0 -0.23518098133E+02 -0.24170565902E+02 -0.72864461958E+03  0.72959730748E+03  0.15872373627E+02 0.  0.
         22    1    3    3    0    0  0.23518098133E+02  0.24170565902E+02 -0.15443444286E+03  0.15807376233E+03  0.00000000000E+00 0.  1.
         22    1    4    4    0    0 -0.10212068207E+02 -0.71586814096E+01 -0.42624831282E+03  0.42643071798E+03  0.00000000000E+00 0.  1.
         22    1    4    4    0    0 -0.13306029926E+02 -0.17011884492E+02 -0.30239630676E+03  0.30316658950E+03  0.00000000000E+00 0.  1.
<mgrwt>
<rscale>  0 0.90173708E+02</rscale>
<asrwt>0</asrwt>
<pdfrwt beam="2">  1        1 0.13621128E+00 0.90173708E+02</pdfrwt>
<pdfrwt beam="1">  1       -1 0.35323204E-03 0.90173708E+02</pdfrwt>
<totfact> 0.14369570E+05</totfact>
</mgrwt>
</event>
<event>
 7    1  0.3607059E-009  0.8965823E+02  0.7818608E-02  0.1303681E+00
         -1   -1    0    0    0  501 -0.00000000000E+00  0.00000000000E+00  0.15765436000E+02  0.15765436806E+02  0.50400000000E-02 0.  1.
          1   -1    0    0  501    0  0.00000000000E+00 -0.00000000000E+00 -0.12747187132E+03  0.12747187142E+03  0.50400000000E-02 0. -1.
         23    2    1    2    0    0  0.17763568394E-14  0.00000000000E+00 -0.11170643532E+03  0.14323730822E+03  0.89658233173E+02 0.  0.
    9000005    2    3    3    0    0  0.14045329061E+02  0.23499710513E+02 -0.11232123140E+03  0.11585326840E+03  0.75108663604E+01 0.  0.
         22    1    3    3    0    0 -0.14045329061E+02 -0.23499710513E+02  0.61479608438E+00  0.27384039820E+02  0.00000000000E+00 0.  1.
         22    1    4    4    0    0  0.14850285650E+02  0.21244498902E+02 -0.10024141868E+03  0.10353840706E+03  0.00000000000E+00 0. -1.
         22    1    4    4    0    0 -0.80495658856E+00  0.22552116108E+01 -0.12079812720E+02  0.12314861342E+02  0.00000000000E+00 0. -1.
<mgrwt>
<rscale>  0 0.89658233E+02</rscale>
<asrwt>0</asrwt>
<pdfrwt beam="2">  1        1 0.19611057E-01 0.89658233E+02</pdfrwt>
<pdfrwt beam="1">  1       -1 0.24254518E-02 0.89658233E+02</pdfrwt>
<totfact> 0.11394498E+05</totfact>
</mgrwt>
</event>
<event>
 7    1  0.3607059E-009  0.9046478E+02  0.7818608E-02  0.1301730E+00
          1   -1    0    0  501    0  0.00000000000E+00  0.00000000000E+00  0.90102939988E+02  0.90102940129E+02  0.50400000000E-02 0. -1.
         -1   -1    0    0    0  501 -0.00000000000E+00 -0.00000000000E+00 -0.22707019500E+02  0.22707020059E+02  0.50400000000E-02 0.  1.
         23    2    1    2    0    0  0.00000000000E+00  0.00000000000E+00  0.67395920488E+02  0.11280996019E+03  0.90464783310E+02 0.  0.
    9000005    2    3    3    0    0 -0.29667542843E+02 -0.28500528525E+02  0.11682684191E+02  0.43553856318E+02  0.82468215515E+01 0.  0.
         22    1    3    3    0    0  0.29667542843E+02  0.28500528525E+02  0.55713236297E+02  0.69256103870E+02  0.00000000000E+00 0. -1.
         22    1    4    4    0    0 -0.12007068751E+02 -0.17033080451E+02  0.46367595529E+01  0.21349357573E+02  0.00000000000E+00 0. -1.
         22    1    4    4    0    0 -0.17660474093E+02 -0.11467448074E+02  0.70459246378E+01  0.22204498745E+02  0.00000000000E+00 0. -1.
<mgrwt>
<rscale>  0 0.90464783E+02</rscale>
<asrwt>0</asrwt>
<pdfrwt beam="1">  1        1 0.13861991E-01 0.90464783E+02</pdfrwt>
<pdfrwt beam="2">  1       -1 0.34933876E-02 0.90464783E+02</pdfrwt>
<totfact> 0.10490204E+05</totfact>
</mgrwt>
</event>
<event>
 7    1  0.3607059E-009  0.9745529E+02  0.7818608E-02  0.1285740E+00
          1   -1    0    0  501    0  0.00000000000E+00  0.00000000000E+00  0.21794110306E+03  0.21794110312E+03  0.50400000000E-02 0. -1.
         -1   -1    0    0    0  501 -0.00000000000E+00 -0.00000000000E+00 -0.10894609497E+02  0.10894610662E+02  0.50400000000E-02 0.  1.
         23    2    1    2    0    0  0.00000000000E+00  0.00000000000E+00  0.20704649356E+03  0.22883571378E+03  0.97455289259E+02 0.  0.
    9000005    2    3    3    0    0  0.46670411856E+02  0.75034017116E+01  0.95318645472E+02  0.10751984335E+03  0.15506261917E+02 0.  0.
         22    1    3    3    0    0 -0.46670411856E+02 -0.75034017116E+01  0.11172784809E+03  0.12131587043E+03  0.00000000000E+00 0. -1.
         22    1    4    4    0    0  0.23736238754E+02 -0.32275193348E+01  0.53755436188E+02  0.58851277225E+02  0.00000000000E+00 0.  1.
         22    1    4    4    0    0  0.22934173102E+02  0.10730921046E+02  0.41563209284E+02  0.48668566122E+02  0.00000000000E+00 0.  1.
<mgrwt>
<rscale>  0 0.97455289E+02</rscale>
<asrwt>0</asrwt>
<pdfrwt beam="1">  1        1 0.33529400E-01 0.97455289E+02</pdfrwt>
<pdfrwt beam="2">  1       -1 0.16760939E-02 0.97455289E+02</pdfrwt>
<totfact> 0.10066136E+05</totfact>
</mgrwt>
</event>
<event>
 7    1  0.3607059E-009  0.9233897E+02  0.7818608E-02  0.1297284E+00
         -1   -1    0    0    0  501 -0.00000000000E+00  0.00000000000E+00  0.96592215686E+02  0.96592215817E+02  0.50400000000E-02 0.  1.
          1   -1    0    0  501    0  0.00000000000E+00 -0.00000000000E+00 -0.22068251437E+02  0.22068252013E+02  0.50400000000E-02 0. -1.
         23    2    1    2    0    0  0.35527136788E-14  0.00000000000E+00  0.74523964249E+02  0.11866046783E+03  0.92338969987E+02 0.  0.
    9000005    2    3    3    0    0  0.29912065674E+02 -0.76896664291E+01 -0.37946041469E+01  0.34472221630E+02  0.14834837404E+02 0.  0.
         22    1    3    3    0    0 -0.29912065674E+02  0.76896664291E+01  0.78318568395E+02  0.84188246200E+02  0.00000000000E+00 0.  1.
         22    1    4    4    0    0  0.91917211333E+01 -0.97466882882E+01 -0.64089538491E+00  0.13412546994E+02  0.00000000000E+00 0.  1.
         22    1    4    4    0    0  0.20720344541E+02  0.20570218591E+01 -0.31537087620E+01  0.21059674636E+02  0.00000000000E+00 0.  1.
<mgrwt>
<rscale>  0 0.92338970E+02</rscale>
<asrwt>0</asrwt>
<pdfrwt beam="2">  1        1 0.33951157E-02 0.92338970E+02</pdfrwt>
<pdfrwt beam="1">  1       -1 0.14860341E-01 0.92338970E+02</pdfrwt>
<totfact> 0.79263896E+04</totfact>
</mgrwt>
</event>
<event>
 7    1  0.3607059E-009  0.9219272E+02  0.7818608E-02  0.1297627E+00
         -1   -1    0    0    0  501 -0.00000000000E+00  0.00000000000E+00  0.92011063281E+02  0.92011063419E+02  0.50400000000E-02 0.  1.
          1   -1    0    0  501    0  0.00000000000E+00 -0.00000000000E+00 -0.23093681327E+02  0.23093681877E+02  0.50400000000E-02 0. -1.
         23    2    1    2    0    0  0.00000000000E+00  0.00000000000E+00  0.68917381953E+02  0.11510474530E+03  0.92192715842E+02 0.  0.
    9000005    2    3    3    0    0 -0.44143295785E+01 -0.10972361761E+02  0.89449644093E+02  0.91409749689E+02  0.14650067627E+02 0.  0.
         22    1    3    3    0    0  0.44143295785E+01  0.10972361761E+02 -0.20532262140E+02  0.23694995607E+02  0.00000000000E+00 0. -1.
         22    1    4    4    0    0 -0.29796655664E+01 -0.89550941180E+01  0.88073137712E+02  0.88577365642E+02  0.00000000000E+00 0. -1.
         22    1    4    4    0    0 -0.14346640121E+01 -0.20172676431E+01  0.13765063809E+01  0.28323840468E+01  0.00000000000E+00 0. -1.
<mgrwt>
<rscale>  0 0.92192716E+02</rscale>
<asrwt>0</asrwt>
<pdfrwt beam="2">  1        1 0.35528742E-02 0.92192716E+02</pdfrwt>
<pdfrwt beam="1">  1       -1 0.14155548E-01 0.92192716E+02</pdfrwt>
<totfact> 0.80294152E+04</totfact>
</mgrwt>
</event>
<event>
 7    1  0.3607059E-009  0.9189244E+02  0.7818608E-02  0.1298333E+00
         -1   -1    0    0    0  501 -0.00000000000E+00  0.00000000000E+00  0.46082372177E+01  0.46082399739E+01  0.50400000000E-02 0.  1.
          1   -1    0    0  501    0  0.00000000000E+00 -0.00000000000E+00 -0.45810457986E+03  0.45810457989E+03  0.50400000000E-02 0. -1.
         23    2    1    2    0    0  0.00000000000E+00  0.00000000000E+00 -0.45349634265E+03  0.46271281987E+03  0.91892441879E+02 0.  0.
    9000005    2    3    3    0    0 -0.31758000353E+02 -0.23831758244E+02 -0.33929655955E+03  0.34180742815E+03  0.11560247675E+02 0.  0.
         22    1    3    3    0    0  0.31758000353E+02  0.23831758244E+02 -0.11419978309E+03  0.12090539171E+03  0.00000000000E+00 0.  1.
         22    1    4    4    0    0 -0.63264826992E+01 -0.81989390469E+01 -0.12712158448E+03  0.12754271529E+03  0.00000000000E+00 0. -1.
         22    1    4    4    0    0 -0.25431517654E+02 -0.15632819198E+02 -0.21217497508E+03  0.21426471286E+03  0.00000000000E+00 0. -1.
<mgrwt>
<rscale>  0 0.91892442E+02</rscale>
<asrwt>0</asrwt>
<pdfrwt beam="2">  1        1 0.70477592E-01 0.91892442E+02</pdfrwt>
<pdfrwt beam="1">  1       -1 0.70896015E-03 0.91892442E+02</pdfrwt>
<totfact> 0.13487547E+05</totfact>
</mgrwt>
</event>
<event>
 7    1  0.3607059E-009  0.9207798E+02  0.7818608E-02  0.1297896E+00
          1   -1    0    0  501    0  0.00000000000E+00  0.00000000000E+00  0.28547007286E+03  0.28547007290E+03  0.50400000000E-02 0. -1.
         -1   -1    0    0    0  501 -0.00000000000E+00 -0.00000000000E+00 -0.74249060342E+01  0.74249077447E+01  0.50400000000E-02 0.  1.
         23    2    1    2    0    0  0.35527136788E-14  0.00000000000E+00  0.27804516682E+03  0.29289498065E+03  0.92077982679E+02 0.  0.
    9000005    2    3    3    0    0 -0.20964447653E+02 -0.32522975132E+02  0.21409178832E+03  0.21814682616E+03  0.15984115918E+02 0.  0.
         22    1    3    3    0    0  0.20964447653E+02  0.32522975132E+02  0.63953378502E+02  0.74748154483E+02  0.00000000000E+00 0.  1.
         22    1    4    4    0    0 -0.20045903575E+02 -0.34332170147E+02  0.20625965587E+03  0.21005613963E+03  0.00000000000E+00 0.  1.
         22    1    4    4    0    0 -0.91854407818E+00  0.18091950151E+01  0.78321324486E+01  0.80906865295E+01  0.00000000000E+00 0.  1.
<mgrwt>
<rscale>  0 0.92077983E+02</rscale>
<asrwt>0</asrwt>
<pdfrwt beam="1">  1        1 0.43918466E-01 0.92077983E+02</pdfrwt>
<pdfrwt beam="2">  1       -1 0.11422936E-02 0.92077983E+02</pdfrwt>
<totfact> 0.12361873E+05</totfact>
</mgrwt>
</event>
<event>
 7    1  0.3607059E-009  0.9091949E+02  0.7818608E-02  0.1300640E+00
          1   -1    0    0  501    0  0.00000000000E+00  0.00000000000E+00  0.54018431161E+02  0.54018431396E+02  0.50400000000E-02 0. -1.
         -1   -1    0    0    0  501 -0.00000000000E+00 -0.00000000000E+00 -0.38257093697E+02  0.38257094029E+02  0.50400000000E-02 0.  1.
         23    2    1    2    0    0  0.00000000000E+00  0.00000000000E+00  0.15761337463E+02  0.92275525425E+02  0.90919485447E+02 0.  0.
    9000005    2    3    3    0    0 -0.17682350648E+02 -0.40019606975E+02  0.40171433581E+00  0.45905788640E+02  0.13890485572E+02 0.  0.
         22    1    3    3    0    0  0.17682350648E+02  0.40019606975E+02  0.15359623128E+02  0.46369736785E+02  0.00000000000E+00 0. -1.
         22    1    4    4    0    0 -0.17004841720E+02 -0.23815076848E+02 -0.27209800785E+01  0.29389220129E+02  0.00000000000E+00 0.  1.
         22    1    4    4    0    0 -0.67750892773E+00 -0.16204530127E+02  0.31226944143E+01  0.16516568511E+02  0.00000000000E+00 0.  1.
<mgrwt>
<rscale>  0 0.90919485E+02</rscale>
<asrwt>0</asrwt>
<pdfrwt beam="1">  1        1 0.83105279E-02 0.90919485E+02</pdfrwt>
<pdfrwt beam="2">  1       -1 0.58857068E-02 0.90919485E+02</pdfrwt>
<totfact> 0.95607947E+04</totfact>
</mgrwt>
</event>
<event>
 7    1  0.3607059E-009  0.9467585E+02  0.7818608E-02  0.1291908E+00
          1   -1    0    0  501    0  0.00000000000E+00  0.00000000000E+00  0.31461105559E+02  0.31461105962E+02  0.50400000000E-02 0. -1.
         -1   -1    0    0    0  501 -0.00000000000E+00 -0.00000000000E+00 -0.71226962093E+02  0.71226962271E+02  0.50400000000E-02 0.  1.
         23    2    1    2    0    0  0.35527136788E-14  0.00000000000E+00 -0.39765856535E+02  0.10268806823E+03  0.94675847034E+02 0.  0.
    9000005    2    3    3    0    0  0.27952692364E+02  0.27360533687E+02  0.71670750265E+01  0.41592635680E+02  0.12191331527E+02 0.  0.
         22    1    3    3    0    0 -0.27952692364E+02 -0.27360533687E+02 -0.46932931561E+02  0.61095432554E+02  0.00000000000E+00 0.  1.
         22    1    4    4    0    0  0.55867319820E+01  0.70580331809E+01 -0.33544421737E+01  0.96062317752E+01  0.00000000000E+00 0.  1.
         22    1    4    4    0    0  0.22365960382E+02  0.20302500506E+02  0.10521517200E+02  0.31986403905E+02  0.00000000000E+00 0.  1.
<mgrwt>
<rscale>  0 0.94675847E+02</rscale>
<asrwt>0</asrwt>
<pdfrwt beam="1">  1        1 0.48401702E-02 0.94675847E+02</pdfrwt>
<pdfrwt beam="2">  1       -1 0.10957994E-01 0.94675847E+02</pdfrwt>
<totfact> 0.78383092E+04</totfact>
</mgrwt>
</event>
<event>
 7    1  0.3607059E-009  0.9252005E+02  0.7818608E-02  0.1296861E+00
          1   -1    0    0  501    0  0.00000000000E+00  0.00000000000E+00  0.35164075964E+03  0.35164075967E+03  0.50400000000E-02 0. -1.
         -1   -1    0    0    0  501 -0.00000000000E+00 -0.00000000000E+00 -0.60857262344E+01  0.60857283214E+01  0.50400000000E-02 0.  1.
         23    2    1    2    0    0  0.00000000000E+00  0.17763568394E-14  0.34555503340E+03  0.35772648800E+03  0.92520047033E+02 0.  0.
    9000005    2    3    3    0    0 -0.42322860251E+02  0.14701027957E+02  0.21534471318E+03  0.22002364774E+03  0.54511783818E+01 0.  0.
         22    1    3    3    0    0  0.42322860251E+02 -0.14701027957E+02  0.13021032022E+03  0.13770284026E+03  0.00000000000E+00 0.  1.
         22    1    4    4    0    0 -0.15203706575E+02  0.34695761344E+01  0.84495854217E+02  0.85922872578E+02  0.00000000000E+00 0. -1.
         22    1    4    4    0    0 -0.27119153676E+02  0.11231451823E+02  0.13084885896E+03  0.13410077516E+03  0.00000000000E+00 0. -1.
<mgrwt>
<rscale>  0 0.92520047E+02</rscale>
<asrwt>0</asrwt>
<pdfrwt beam="1">  1        1 0.54098581E-01 0.92520047E+02</pdfrwt>
<pdfrwt beam="2">  1       -1 0.93626570E-03 0.92520047E+02</pdfrwt>
<totfact> 0.12690382E+05</totfact>
</mgrwt>
</event>
<event>
 7    1  0.3607059E-009  0.9041538E+02  0.7818608E-02  0.1301849E+00
          1   -1    0    0  501    0  0.00000000000E+00  0.00000000000E+00  0.33203859135E+03  0.33203859139E+03  0.50400000000E-02 0. -1.
         -1   -1    0    0    0  501 -0.00000000000E+00 -0.00000000000E+00 -0.61551130540E+01  0.61551151175E+01  0.50400000000E-02 0.  1.
         23    2    1    2    0    0  0.00000000000E+00  0.00000000000E+00  0.32588347830E+03  0.33819370651E+03  0.90415384166E+02 0.  0.
    9000005    2    3    3    0    0 -0.24640282657E+02  0.17969128910E+02  0.28600130393E+03  0.28798792043E+03  0.14500460049E+02 0.  0.
         22    1    3    3    0    0  0.24640282657E+02 -0.17969128910E+02  0.39882174367E+02  0.50205786075E+02  0.00000000000E+00 0.  1.
         22    1    4    4    0    0 -0.10973887071E+02  0.78114634786E+01  0.67919367898E+02  0.69242224796E+02  0.00000000000E+00 0.  1.
         22    1    4    4    0    0 -0.13666395586E+02  0.10157665431E+02  0.21808193603E+03  0.21874569564E+03  0.00000000000E+00 0.  1.
<mgrwt>
<rscale>  0 0.90415384E+02</rscale>
<asrwt>0</asrwt>
<pdfrwt beam="1">  1        1 0.51082864E-01 0.90415384E+02</pdfrwt>
<pdfrwt beam="2">  1       -1 0.94694056E-03 0.90415384E+02</pdfrwt>
<totfact> 0.13352514E+05</totfact>
</mgrwt>
</event>
<event>
 7    1  0.3607059E-009  0.9059697E+02  0.7818608E-02  0.1301412E+00
         -1   -1    0    0    0  501 -0.00000000000E+00  0.00000000000E+00  0.87894569601E+01  0.87894584051E+01  0.50400000000E-02 0.  1.
          1   -1    0    0  501    0  0.00000000000E+00 -0.00000000000E+00 -0.23345610825E+03  0.23345610830E+03  0.50400000000E-02 0. -1.
         23    2    1    2    0    0  0.00000000000E+00  0.35527136788E-14 -0.22466665129E+03  0.24224556671E+03  0.90596966774E+02 0.  0.
    9000005    2    3    3    0    0 -0.33278655440E+02 -0.26206617744E+02 -0.78707680815E+02  0.90264394245E+02  0.12589921671E+02 0.  0.
         22    1    3    3    0    0  0.33278655440E+02  0.26206617744E+02 -0.14595897047E+03  0.15198117246E+03  0.00000000000E+00 0. -1.
         22    1    4    4    0    0 -0.98239033981E+00 -0.56203848323E+01 -0.13235247426E+02  0.14412688537E+02  0.00000000000E+00 0. -1.
         22    1    4    4    0    0 -0.32296265101E+02 -0.20586232912E+02 -0.65472433389E+02  0.75851705708E+02  0.00000000000E+00 0. -1.
<mgrwt>
<rscale>  0 0.90596967E+02</rscale>
<asrwt>0</asrwt>
<pdfrwt beam="2">  1        1 0.35916320E-01 0.90596967E+02</pdfrwt>
<pdfrwt beam="1">  1       -1 0.13522244E-02 0.90596967E+02</pdfrwt>
<totfact> 0.12412831E+05</totfact>
</mgrwt>
</event>
<event>
 7    1  0.3607059E-009  0.9085005E+02  0.7818608E-02  0.1300806E+00
          1   -1    0    0  501    0  0.00000000000E+00  0.00000000000E+00  0.33952669121E+02  0.33952669495E+02  0.50400000000E-02 0. -1.
         -1   -1    0    0    0  501 -0.00000000000E+00 -0.00000000000E+00 -0.60773807367E+02  0.60773807576E+02  0.50400000000E-02 0.  1.
         23    2    1    2    0    0  0.00000000000E+00  0.44408920985E-15 -0.26821138247E+02  0.94726477071E+02  0.90850052291E+02 0.  0.
    9000005    2    3    3    0    0 -0.33176618029E+02 -0.31614697565E+01  0.17844584091E+02  0.38997583067E+02  0.95759818728E+01 0.  0.
         22    1    3    3    0    0  0.33176618029E+02  0.31614697565E+01 -0.44665722337E+02  0.55728894003E+02  0.00000000000E+00 0.  1.
         22    1    4    4    0    0 -0.89661207237E+01  0.14912495984E+01  0.10113395842E+01  0.91453788304E+01  0.00000000000E+00 0.  1.
         22    1    4    4    0    0 -0.24210497306E+02 -0.46527193549E+01  0.16833244507E+02  0.29852204237E+02  0.00000000000E+00 0.  1.
<mgrwt>
<rscale>  0 0.90850052E+02</rscale>
<asrwt>0</asrwt>
<pdfrwt beam="1">  1        1 0.52234876E-02 0.90850052E+02</pdfrwt>
<pdfrwt beam="2">  1       -1 0.93498165E-02 0.90850052E+02</pdfrwt>
<totfact> 0.89313138E+04</totfact>
</mgrwt>
</event>
<event>
 7    1  0.3607059E-009  0.8898041E+02  0.7818608E-02  0.1305340E+00
          1   -1    0    0  501    0  0.00000000000E+00  0.00000000000E+00  0.13510694037E+04  0.13510694037E+04  0.50400000000E-02 0. -1.
         -1   -1    0    0    0  501 -0.00000000000E+00 -0.00000000000E+00 -0.14650411522E+01  0.14650498214E+01  0.50400000000E-02 0.  1.
         23    2    1    2    0    0  0.17763568394E-14  0.00000000000E+00  0.13496043626E+04  0.13525344536E+04  0.88980405595E+02 0.  0.
    9000005    2    3    3    0    0 -0.10979542437E+02 -0.26773230116E+01  0.13287059235E+04  0.13287760199E+04  0.76525624713E+01 0.  0.
         22    1    3    3    0    0  0.10979542437E+02  0.26773230116E+01  0.20898439112E+02  0.23758433617E+02  0.00000000000E+00 0.  1.
         22    1    4    4    0    0 -0.50928592162E-01 -0.11139601423E+01  0.26679986736E+02  0.26703280569E+02  0.00000000000E+00 0.  1.
         22    1    4    4    0    0 -0.10928613845E+02 -0.15633628693E+01  0.13020259367E+04  0.13020727394E+04  0.00000000000E+00 0.  1.
<mgrwt>
<rscale>  0 0.88980406E+02</rscale>
<asrwt>0</asrwt>
<pdfrwt beam="1">  1        1 0.20785808E+00 0.88980406E+02</pdfrwt>
<pdfrwt beam="2">  1       -1 0.22539027E-03 0.88980406E+02</pdfrwt>
<totfact> 0.12717301E+05</totfact>
</mgrwt>
</event>
<event>
 7    1  0.3607059E-009  0.9066531E+02  0.7818608E-02  0.1301249E+00
         -1   -1    0    0    0  501 -0.00000000000E+00  0.00000000000E+00  0.44629446307E+02  0.44629446592E+02  0.50400000000E-02 0.  1.
          1   -1    0    0  501    0  0.00000000000E+00 -0.00000000000E+00 -0.46046941975E+02  0.46046942251E+02  0.50400000000E-02 0. -1.
         23    2    1    2    0    0  0.00000000000E+00  0.00000000000E+00 -0.14174956682E+01  0.90676388843E+02  0.90665308688E+02 0.  0.
    9000005    2    3    3    0    0 -0.40715621044E+02  0.18135955144E+02  0.32784420629E+01  0.45857570282E+02  0.10271022533E+02 0.  0.
         22    1    3    3    0    0  0.40715621044E+02 -0.18135955144E+02 -0.46959377310E+01  0.44818818560E+02  0.00000000000E+00 0.  1.
         22    1    4    4    0    0 -0.13260193364E+02  0.10863023624E+02 -0.81838468785E+00  0.17161228505E+02  0.00000000000E+00 0. -1.
         22    1    4    4    0    0 -0.27455427680E+02  0.72729315205E+01  0.40968267507E+01  0.28696341777E+02  0.00000000000E+00 0. -1.
<mgrwt>
<rscale>  0 0.90665309E+02</rscale>
<asrwt>0</asrwt>
<pdfrwt beam="2">  1        1 0.70841450E-02 0.90665309E+02</pdfrwt>
<pdfrwt beam="1">  1       -1 0.68660687E-02 0.90665309E+02</pdfrwt>
<totfact> 0.94083606E+04</totfact>
</mgrwt>
</event>
<event>
 7    1  0.3607059E-009  0.9168145E+02  0.7818608E-02  0.1298830E+00
         -1   -1    0    0    0  501 -0.00000000000E+00  0.00000000000E+00  0.52462697982E+03  0.52462697985E+03  0.50400000000E-02 0.  1.
          1   -1    0    0  501    0  0.00000000000E+00 -0.00000000000E+00 -0.40054578597E+01  0.40054610306E+01  0.50400000000E-02 0. -1.
         23    2    1    2    0    0  0.00000000000E+00  0.00000000000E+00  0.52062152196E+03  0.52863244088E+03  0.91681450780E+02 0.  0.
    9000005    2    3    3    0    0  0.10711696421E+02  0.38861973785E+02  0.38214309175E+03  0.38440599018E+03  0.10470399568E+02 0.  0.
         22    1    3    3    0    0 -0.10711696421E+02 -0.38861973785E+02  0.13847843021E+03  0.14422645070E+03  0.00000000000E+00 0. -1.
         22    1    4    4    0    0  0.60281757005E+01  0.81702418589E+01  0.71918786883E+02  0.72631974096E+02  0.00000000000E+00 0.  1.
         22    1    4    4    0    0  0.46835207204E+01  0.30691731926E+02  0.31022430487E+03  0.31177401608E+03  0.00000000000E+00 0.  1.
<mgrwt>
<rscale>  0 0.91681451E+02</rscale>
<asrwt>0</asrwt>
<pdfrwt beam="2">  1        1 0.61622457E-03 0.91681451E+02</pdfrwt>
<pdfrwt beam="1">  1       -1 0.80711839E-01 0.91681451E+02</pdfrwt>
<totfact> 0.44980970E+04</totfact>
</mgrwt>
</event>
<event>
 7    1  0.3607059E-009  0.9218249E+02  0.7818608E-02  0.1297651E+00
          1   -1    0    0  501    0  0.00000000000E+00  0.00000000000E+00  0.12658692969E+03  0.12658692979E+03  0.50400000000E-02 0. -1.
         -1   -1    0    0    0  501 -0.00000000000E+00 -0.00000000000E+00 -0.16782165403E+02  0.16782166160E+02  0.50400000000E-02 0.  1.
         23    2    1    2    0    0 -0.35527136788E-14 -0.35527136788E-14  0.10980476429E+03  0.14336909595E+03  0.92182489735E+02 0.  0.
    9000005    2    3    3    0    0 -0.25685159414E+02 -0.26848668135E+02  0.15097773527E+02  0.41634183096E+02  0.11175152880E+02 0.  0.
         22    1    3    3    0    0  0.25685159414E+02  0.26848668135E+02  0.94706990761E+02  0.10173491286E+03  0.00000000000E+00 0. -1.
         22    1    4    4    0    0  0.89333540239E+00 -0.27624626682E+01  0.15591553896E+01  0.32954838284E+01  0.00000000000E+00 0.  1.
         22    1    4    4    0    0 -0.26578494816E+02 -0.24086205467E+02  0.13538618138E+02  0.38338699268E+02  0.00000000000E+00 0.  1.
<mgrwt>
<rscale>  0 0.92182490E+02</rscale>
<asrwt>0</asrwt>
<pdfrwt beam="1">  1        1 0.19474912E-01 0.92182490E+02</pdfrwt>
<pdfrwt beam="2">  1       -1 0.25818717E-02 0.92182490E+02</pdfrwt>
<totfact> 0.10556457E+05</totfact>
</mgrwt>
</event>
<event>
 7    1  0.3607059E-009  0.9235599E+02  0.7818608E-02  0.1297245E+00
         -1   -1    0    0    0  501 -0.00000000000E+00  0.00000000000E+00  0.12862871586E+02  0.12862872573E+02  0.50400000000E-02 0.  1.
          1   -1    0    0  501    0  0.00000000000E+00 -0.00000000000E+00 -0.16578003565E+03  0.16578003573E+03  0.50400000000E-02 0. -1.
         23    2    1    2    0    0  0.00000000000E+00  0.17763568394E-14 -0.15291716407E+03  0.17864290830E+03  0.92355993961E+02 0.  0.
    9000005    2    3    3    0    0 -0.40682889957E+02  0.15277864599E+02 -0.10140279279E+03  0.11124675760E+03  0.14310975095E+02 0.  0.
         22    1    3    3    0    0  0.40682889957E+02 -0.15277864599E+02 -0.51514371277E+02  0.67396150706E+02  0.00000000000E+00 0. -1.
         22    1    4    4    0    0 -0.41712261967E+02  0.15611110707E+02 -0.97391889010E+02  0.10709248163E+03  0.00000000000E+00 0. -1.
         22    1    4    4    0    0  0.10293720106E+01 -0.33324610785E+00 -0.40109037790E+01  0.41542759693E+01  0.00000000000E+00 0. -1.
<mgrwt>
<rscale>  0 0.92355994E+02</rscale>
<asrwt>0</asrwt>
<pdfrwt beam="2">  1        1 0.25504619E-01 0.92355994E+02</pdfrwt>
<pdfrwt beam="1">  1       -1 0.19789035E-02 0.92355994E+02</pdfrwt>
<totfact> 0.11034543E+05</totfact>
</mgrwt>
</event>
<event>
 7    1  0.3607059E-009  0.9385254E+02  0.7818608E-02  0.1293782E+00
         -1   -1    0    0    0  501 -0.00000000000E+00  0.00000000000E+00  0.30918379139E+01  0.30918420218E+01  0.50400000000E-02 0.  1.
          1   -1    0    0  501    0  0.00000000000E+00 -0.00000000000E+00 -0.71222142675E+03  0.71222142676E+03  0.50400000000E-02 0. -1.
         23    2    1    2    0    0  0.00000000000E+00  0.00000000000E+00 -0.70912958883E+03  0.71531326879E+03  0.93852537225E+02 0.  0.
    9000005    2    3    3    0    0 -0.22983934604E+02 -0.38332514739E+02 -0.46310023366E+03  0.46525710201E+03  0.21683216573E+01 0.  0.
         22    1    3    3    0    0  0.22983934604E+02  0.38332514739E+02 -0.24602935517E+03  0.25005616678E+03  0.00000000000E+00 0.  1.
         22    1    4    4    0    0 -0.11645034629E+02 -0.18913949772E+02 -0.21918632469E+03  0.22030884971E+03  0.00000000000E+00 0. -1.
         22    1    4    4    0    0 -0.11338899975E+02 -0.19418564967E+02 -0.24391390897E+03  0.24494825230E+03  0.00000000000E+00 0. -1.
<mgrwt>
<rscale>  0 0.93852537E+02</rscale>
<asrwt>0</asrwt>
<pdfrwt beam="2">  1        1 0.10957240E+00 0.93852537E+02</pdfrwt>
<pdfrwt beam="1">  1       -1 0.47566826E-03 0.93852537E+02</pdfrwt>
<totfact> 0.13165854E+05</totfact>
</mgrwt>
</event>
<event>
 7    1  0.3607059E-009  0.9121722E+02  0.7818608E-02  0.1299931E+00
         -1   -1    0    0    0  501 -0.00000000000E+00  0.00000000000E+00  0.12129121460E+02  0.12129122507E+02  0.50400000000E-02 0.  1.
          1   -1    0    0  501    0  0.00000000000E+00 -0.00000000000E+00 -0.17150005672E+03  0.17150005679E+03  0.50400000000E-02 0. -1.
         23    2    1    2    0    0  0.00000000000E+00  0.00000000000E+00 -0.15937093526E+03  0.18362917930E+03  0.91217215947E+02 0.  0.
    9000005    2    3    3    0    0 -0.43287119353E+02 -0.12653468795E+02 -0.70220060150E+02  0.83720403373E+02  0.66606395466E+01 0.  0.
         22    1    3    3    0    0  0.43287119353E+02  0.12653468795E+02 -0.89150875109E+02  0.99908775926E+02  0.00000000000E+00 0. -1.
         22    1    4    4    0    0 -0.23361662601E+02 -0.63633030727E+01 -0.31594235382E+02  0.39805208389E+02  0.00000000000E+00 0.  1.
         22    1    4    4    0    0 -0.19925456752E+02 -0.62901657222E+01 -0.38625824767E+02  0.43915194984E+02  0.00000000000E+00 0.  1.
<mgrwt>
<rscale>  0 0.91217216E+02</rscale>
<asrwt>0</asrwt>
<pdfrwt beam="2">  1        1 0.26384623E-01 0.91217216E+02</pdfrwt>
<pdfrwt beam="1">  1       -1 0.18660189E-02 0.91217216E+02</pdfrwt>
<totfact> 0.11482874E+05</totfact>
</mgrwt>
</event>
<event>
 7    1  0.3607059E-009  0.9148333E+02  0.7818608E-02  0.1299299E+00
          1   -1    0    0  501    0  0.00000000000E+00  0.00000000000E+00  0.56590244362E+03  0.56590244364E+03  0.50400000000E-02 0. -1.
         -1   -1    0    0    0  501 -0.00000000000E+00 -0.00000000000E+00 -0.36972784796E+01  0.36972819148E+01  0.50400000000E-02 0.  1.
         23    2    1    2    0    0 -0.35527136788E-14  0.00000000000E+00  0.56220516514E+03  0.56959972555E+03  0.91483329871E+02 0.  0.
    9000005    2    3    3    0    0 -0.19237490843E+02  0.24355407044E+02  0.48955149018E+03  0.49059451439E+03  0.76843416402E+01 0.  0.
         22    1    3    3    0    0  0.19237490843E+02 -0.24355407044E+02  0.72653674959E+02  0.79005211165E+02  0.00000000000E+00 0. -1.
         22    1    4    4    0    0 -0.19638532845E+02  0.21989173558E+02  0.46137195273E+03  0.46231296163E+03  0.00000000000E+00 0.  1.
         22    1    4    4    0    0  0.40104200267E+00  0.23662334860E+01  0.28179537444E+02  0.28281552753E+02  0.00000000000E+00 0.  1.
<mgrwt>
<rscale>  0 0.91483330E+02</rscale>
<asrwt>0</asrwt>
<pdfrwt beam="1">  1        1 0.87061874E-01 0.91483330E+02</pdfrwt>
<pdfrwt beam="2">  1       -1 0.56881260E-03 0.91483330E+02</pdfrwt>
<totfact> 0.13975646E+05</totfact>
</mgrwt>
</event>
<event>
 6    1  0.3607059E-009  0.1728378E+03  0.7818608E-02  0.1174920E+00
         -1   -1    0    0    0  501 -0.00000000000E+00  0.00000000000E+00  0.44678323528E+01  0.44678351956E+01  0.50400000000E-02 0.  1.
          1   -1    0    0  501    0  0.00000000000E+00 -0.00000000000E+00 -0.16715532921E+04  0.16715532921E+04  0.50400000000E-02 0. -1.
    9000005    2    1    2    0    0 -0.42629447621E+02  0.42671331968E+02 -0.14309026550E+04  0.14322580669E+04  0.15577215121E+02 0.  0.
         22    1    1    2    0    0  0.42629447621E+02 -0.42671331968E+02 -0.23618280470E+03  0.24376306040E+03  0.00000000000E+00 0.  1.
         22    1    3    3    0    0 -0.38702849010E+02  0.32549490489E+02 -0.12570011837E+04  0.12580180267E+04  0.00000000000E+00 0. -1.
         22    1    3    3    0    0 -0.39265986107E+01  0.10121841479E+02 -0.17390147135E+03  0.17424004014E+03  0.00000000000E+00 0. -1.
<mgrwt>
<rscale>  0 0.17283775E+03</rscale>
<asrwt>0</asrwt>
<pdfrwt beam="2">  1        1 0.25716155E+00 0.17283775E+03</pdfrwt>
<pdfrwt beam="1">  1       -1 0.68736038E-03 0.17283775E+03</pdfrwt>
<totfact> 0.17474237E+04</totfact>
</mgrwt>
</event>
<event>
 7    1  0.3607059E-009  0.9417230E+02  0.7818608E-02  0.1293051E+00
          1   -1    0    0  501    0  0.00000000000E+00  0.00000000000E+00  0.57658475936E+01  0.57658497963E+01  0.50400000000E-02 0. -1.
         -1   -1    0    0    0  501 -0.00000000000E+00 -0.00000000000E+00 -0.38452369055E+03  0.38452369058E+03  0.50400000000E-02 0.  1.
         23    2    1    2    0    0  0.00000000000E+00  0.35527136788E-14 -0.37875784295E+03  0.39028954038E+03  0.94172298095E+02 0.  0.
    9000005    2    3    3    0    0  0.30736529058E+02  0.30743911534E+02 -0.25403418559E+03  0.25820656259E+03  0.15727021367E+02 0.  0.
         22    1    3    3    0    0 -0.30736529058E+02 -0.30743911534E+02 -0.12472365737E+03  0.13208297779E+03  0.00000000000E+00 0. -1.
         22    1    4    4    0    0  0.53543369392E+01  0.15351941342E+02 -0.76611420031E+02  0.78317690889E+02  0.00000000000E+00 0. -1.
         22    1    4    4    0    0  0.25382192119E+02  0.15391970192E+02 -0.17742276555E+03  0.17988887170E+03  0.00000000000E+00 0. -1.
<mgrwt>
<rscale>  0 0.94172298E+02</rscale>
<asrwt>0</asrwt>
<pdfrwt beam="1">  1        1 0.88705395E-03 0.94172298E+02</pdfrwt>
<pdfrwt beam="2">  1       -1 0.59157471E-01 0.94172298E+02</pdfrwt>
<totfact> 0.49925086E+04</totfact>
</mgrwt>
</event>
<event>
 7    1  0.3607059E-009  0.8951325E+02  0.7818608E-02  0.1304035E+00
         -1   -1    0    0    0  501 -0.00000000000E+00  0.00000000000E+00  0.13431918668E+02  0.13431919613E+02  0.50400000000E-02 0.  1.
          1   -1    0    0  501    0  0.00000000000E+00 -0.00000000000E+00 -0.14913395806E+03  0.14913395815E+03  0.50400000000E-02 0. -1.
         23    2    1    2    0    0  0.00000000000E+00  0.35527136788E-14 -0.13570203940E+03  0.16256587776E+03  0.89513245480E+02 0.  0.
    9000005    2    3    3    0    0 -0.32944772896E+02 -0.30121981695E+02 -0.63293711435E+02  0.77503207921E+02  0.28216109604E+01 0.  0.
         22    1    3    3    0    0  0.32944772896E+02  0.30121981695E+02 -0.72408327960E+02  0.85062669841E+02  0.00000000000E+00 0.  1.
         22    1    4    4    0    0 -0.13935812019E+02 -0.12490496725E+02 -0.24162453158E+02  0.30562125379E+02  0.00000000000E+00 0. -1.
         22    1    4    4    0    0 -0.19008960877E+02 -0.17631484970E+02 -0.39131258277E+02  0.46941082542E+02  0.00000000000E+00 0. -1.
<mgrwt>
<rscale>  0 0.89513245E+02</rscale>
<asrwt>0</asrwt>
<pdfrwt beam="2">  1        1 0.22943685E-01 0.89513245E+02</pdfrwt>
<pdfrwt beam="1">  1       -1 0.20664492E-02 0.89513245E+02</pdfrwt>
<totfact> 0.11770890E+05</totfact>
</mgrwt>
</event>
<event>
 7    1  0.3607059E-009  0.9151012E+02  0.7818608E-02  0.1299235E+00
         -1   -1    0    0    0  501 -0.00000000000E+00  0.00000000000E+00  0.46696174842E+02  0.46696175113E+02  0.50400000000E-02 0.  1.
          1   -1    0    0  501    0  0.00000000000E+00 -0.00000000000E+00 -0.44832912461E+02  0.44832912744E+02  0.50400000000E-02 0. -1.
         23    2    1    2    0    0  0.00000000000E+00  0.00000000000E+00  0.18632623804E+01  0.91529087858E+02  0.91510120628E+02 0.  0.
    9000005    2    3    3    0    0  0.36895368719E+02 -0.21520765187E+02 -0.13763710025E+02  0.46047071261E+02  0.10318986909E+02 0.  0.
         22    1    3    3    0    0 -0.36895368719E+02  0.21520765187E+02  0.15626972406E+02  0.45482016597E+02  0.00000000000E+00 0.  1.
         22    1    4    4    0    0  0.94746146828E+01 -0.27721434414E+01 -0.71200401631E+01  0.12171609367E+02  0.00000000000E+00 0. -1.
         22    1    4    4    0    0  0.27420754037E+02 -0.18748621746E+02 -0.66436698624E+01  0.33875461894E+02  0.00000000000E+00 0. -1.
<mgrwt>
<rscale>  0 0.91510121E+02</rscale>
<asrwt>0</asrwt>
<pdfrwt beam="2">  1        1 0.68973712E-02 0.91510121E+02</pdfrwt>
<pdfrwt beam="1">  1       -1 0.71840269E-02 0.91510121E+02</pdfrwt>
<totfact> 0.91298320E+04</totfact>
</mgrwt>
</event>
<event>
 7    1  0.3607059E-009  0.9122527E+02  0.7818608E-02  0.1299911E+00
         -1   -1    0    0    0  501 -0.00000000000E+00  0.00000000000E+00  0.63893524214E+02  0.63893524413E+02  0.50400000000E-02 0.  1.
          1   -1    0    0  501    0  0.00000000000E+00 -0.00000000000E+00 -0.32562182630E+02  0.32562183020E+02  0.50400000000E-02 0. -1.
         23    2    1    2    0    0 -0.22204460493E-15  0.00000000000E+00  0.31331341584E+02  0.96455707433E+02  0.91225273532E+02 0.  0.
    9000005    2    3    3    0    0 -0.18402503827E+01 -0.41051064622E+02  0.35476964023E+02  0.55154828344E+02  0.97397990364E+01 0.  0.
         22    1    3    3    0    0  0.18402503827E+01  0.41051064622E+02 -0.41456224393E+01  0.41300879089E+02  0.00000000000E+00 0. -1.
         22    1    4    4    0    0 -0.35538727549E+01 -0.31905983195E+02  0.22567069497E+02  0.39241488261E+02  0.00000000000E+00 0. -1.
         22    1    4    4    0    0  0.17136223722E+01 -0.91450814270E+01  0.12909894526E+02  0.15913340083E+02  0.00000000000E+00 0. -1.
<mgrwt>
<rscale>  0 0.91225274E+02</rscale>
<asrwt>0</asrwt>
<pdfrwt beam="2">  1        1 0.50095666E-02 0.91225274E+02</pdfrwt>
<pdfrwt beam="1">  1       -1 0.98297730E-02 0.91225274E+02</pdfrwt>
<totfact> 0.87691995E+04</totfact>
</mgrwt>
</event>
<event>
 7    1  0.3607059E-009  0.8843635E+02  0.7818608E-02  0.1306683E+00
          1   -1    0    0  501    0  0.00000000000E+00  0.00000000000E+00  0.22774381682E+03  0.22774381688E+03  0.50400000000E-02 0. -1.
         -1   -1    0    0    0  501 -0.00000000000E+00 -0.00000000000E+00 -0.85852901034E+01  0.85852915828E+01  0.50400000000E-02 0.  1.
         23    2    1    2    0    0  0.00000000000E+00  0.00000000000E+00  0.21915852672E+03  0.23632910846E+03  0.88436348140E+02 0.  0.
    9000005    2    3    3    0    0 -0.40905088564E+01 -0.43739316226E+02  0.11318423314E+03  0.12161027415E+03  0.69662113268E+01 0.  0.
         22    1    3    3    0    0  0.40905088564E+01  0.43739316226E+02  0.10597429358E+03  0.11471883432E+03  0.00000000000E+00 0. -1.
         22    1    4    4    0    0  0.14310600996E+01 -0.14518666373E+02  0.42110817319E+02  0.44566361098E+02  0.00000000000E+00 0. -1.
         22    1    4    4    0    0 -0.55215689561E+01 -0.29220649853E+02  0.71073415818E+02  0.77043913047E+02  0.00000000000E+00 0. -1.
<mgrwt>
<rscale>  0 0.88436348E+02</rscale>
<asrwt>0</asrwt>
<pdfrwt beam="1">  1        1 0.35037507E-01 0.88436348E+02</pdfrwt>
<pdfrwt beam="2">  1       -1 0.13208141E-02 0.88436348E+02</pdfrwt>
<totfact> 0.13174856E+05</totfact>
</mgrwt>
</event>
<event>
 7    1  0.3607059E-009  0.9418115E+02  0.7818608E-02  0.1293031E+00
         -1   -1    0    0    0  501 -0.00000000000E+00  0.00000000000E+00  0.36751843078E+02  0.36751843424E+02  0.50400000000E-02 0.  1.
          1   -1    0    0  501    0  0.00000000000E+00 -0.00000000000E+00 -0.60337718830E+02  0.60337719040E+02  0.50400000000E-02 0. -1.
         23    2    1    2    0    0  0.00000000000E+00  0.35527136788E-14 -0.23585875752E+02  0.97089562464E+02  0.94181153128E+02 0.  0.
    9000005    2    3    3    0    0 -0.32589105750E+02 -0.30685325514E+02 -0.25907224146E+02  0.52267384094E+02  0.75535529102E+01 0.  0.
         22    1    3    3    0    0  0.32589105750E+02  0.30685325514E+02  0.23213483947E+01  0.44822178370E+02  0.00000000000E+00 0. -1.
         22    1    4    4    0    0 -0.13734494903E+02 -0.17158526462E+02 -0.10086509772E+02  0.24182412203E+02  0.00000000000E+00 0.  1.
         22    1    4    4    0    0 -0.18854610847E+02 -0.13526799052E+02 -0.15820714374E+02  0.28084971891E+02  0.00000000000E+00 0.  1.
<mgrwt>
<rscale>  0 0.94181153E+02</rscale>
<asrwt>0</asrwt>
<pdfrwt beam="2">  1        1 0.92827260E-02 0.94181153E+02</pdfrwt>
<pdfrwt beam="1">  1       -1 0.56541297E-02 0.94181153E+02</pdfrwt>
<totfact> 0.88133516E+04</totfact>
</mgrwt>
</event>
<event>
 7    1  0.3607059E-009  0.8974746E+02  0.7818608E-02  0.1303464E+00
          1   -1    0    0  501    0  0.00000000000E+00  0.00000000000E+00  0.32349896585E+02  0.32349896978E+02  0.50400000000E-02 0. -1.
         -1   -1    0    0    0  501 -0.00000000000E+00 -0.00000000000E+00 -0.62246002438E+02  0.62246002642E+02  0.50400000000E-02 0.  1.
         23    2    1    2    0    0  0.00000000000E+00  0.00000000000E+00 -0.29896105853E+02  0.94595899620E+02  0.89747462804E+02 0.  0.
    9000005    2    3    3    0    0 -0.23222543850E+02  0.27211608642E+02  0.12470632975E+02  0.39145933465E+02  0.98554163939E+01 0.  0.
         22    1    3    3    0    0  0.23222543850E+02 -0.27211608642E+02 -0.42366738828E+02  0.55449966155E+02  0.00000000000E+00 0.  1.
         22    1    4    4    0    0 -0.24566720127E+01  0.61190362259E+01  0.58510385334E+01  0.88154689967E+01  0.00000000000E+00 0. -1.
         22    1    4    4    0    0 -0.20765871837E+02  0.21092572416E+02  0.66195944414E+01  0.30330464468E+02  0.00000000000E+00 0. -1.
<mgrwt>
<rscale>  0 0.89747463E+02</rscale>
<asrwt>0</asrwt>
<pdfrwt beam="1">  1        1 0.49769072E-02 0.89747463E+02</pdfrwt>
<pdfrwt beam="2">  1       -1 0.95763081E-02 0.89747463E+02</pdfrwt>
<totfact> 0.91778125E+04</totfact>
</mgrwt>
</event>
<event>
 7    1  0.3607059E-009  0.9375383E+02  0.7818608E-02  0.1294008E+00
          1   -1    0    0  501    0  0.00000000000E+00  0.00000000000E+00  0.41756901726E+02  0.41756902030E+02  0.50400000000E-02 0. -1.
         -1   -1    0    0    0  501 -0.00000000000E+00 -0.00000000000E+00 -0.52624713048E+02  0.52624713290E+02  0.50400000000E-02 0.  1.
         23    2    1    2    0    0  0.00000000000E+00 -0.71054273576E-14 -0.10867811322E+02  0.94381615320E+02  0.93753826522E+02 0.  0.
    9000005    2    3    3    0    0 -0.12062186283E+02 -0.41900276806E+02  0.10347205197E+02  0.45892374655E+02  0.98952443963E+01 0.  0.
         22    1    3    3    0    0  0.12062186283E+02  0.41900276806E+02 -0.21215016520E+02  0.48489240665E+02  0.00000000000E+00 0.  1.
         22    1    4    4    0    0 -0.23714810616E+01 -0.83518461735E+01  0.63246664550E+01  0.10741446025E+02  0.00000000000E+00 0. -1.
         22    1    4    4    0    0 -0.96907052213E+01 -0.33548430633E+02  0.40225387423E+01  0.35150928630E+02  0.00000000000E+00 0. -1.
<mgrwt>
<rscale>  0 0.93753827E+02</rscale>
<asrwt>0</asrwt>
<pdfrwt beam="1">  1        1 0.64241387E-02 0.93753827E+02</pdfrwt>
<pdfrwt beam="2">  1       -1 0.80961098E-02 0.93753827E+02</pdfrwt>
<totfact> 0.84339731E+04</totfact>
</mgrwt>
</event>
<event>
 7    1  0.3607059E-009  0.9527214E+02  0.7818608E-02  0.1290564E+00
         -1   -1    0    0    0  501 -0.00000000000E+00  0.00000000000E+00  0.11583935079E+03  0.11583935090E+03  0.50400000000E-02 0.  1.
          1   -1    0    0  501    0  0.00000000000E+00 -0.00000000000E+00 -0.19589155023E+02  0.19589155671E+02  0.50400000000E-02 0. -1.
         23    2    1    2    0    0  0.00000000000E+00  0.00000000000E+00  0.96250195766E+02  0.13542850657E+03  0.95272137620E+02 0.  0.
    9000005    2    3    3    0    0 -0.19666406111E+02 -0.35247560321E+02  0.83737007687E+02  0.93170514262E+02  0.63008121328E+01 0.  0.
         22    1    3    3    0    0  0.19666406111E+02  0.35247560321E+02  0.12513188079E+02  0.42257992307E+02  0.00000000000E+00 0. -1.
         22    1    4    4    0    0 -0.32022056981E+01 -0.87536644660E+01  0.24686832723E+02  0.26387884963E+02  0.00000000000E+00 0. -1.
         22    1    4    4    0    0 -0.16464200413E+02 -0.26493895855E+02  0.59050174964E+02  0.66782629300E+02  0.00000000000E+00 0. -1.
<mgrwt>
<rscale>  0 0.95272138E+02</rscale>
<asrwt>0</asrwt>
<pdfrwt beam="2">  1        1 0.30137163E-02 0.95272138E+02</pdfrwt>
<pdfrwt beam="1">  1       -1 0.17821438E-01 0.95272138E+02</pdfrwt>
<totfact> 0.70593597E+04</totfact>
</mgrwt>
</event>
<event>
 7    1  0.3607059E-009  0.9221167E+02  0.7818608E-02  0.1297583E+00
          1   -1    0    0  501    0  0.00000000000E+00  0.00000000000E+00  0.18323394638E+03  0.18323394645E+03  0.50400000000E-02 0. -1.
         -1   -1    0    0    0  501 -0.00000000000E+00 -0.00000000000E+00 -0.11601277761E+02  0.11601278855E+02  0.50400000000E-02 0.  1.
         23    2    1    2    0    0  0.00000000000E+00 -0.17763568394E-14  0.17163266862E+03  0.19483522530E+03  0.92211669989E+02 0.  0.
    9000005    2    3    3    0    0  0.34461067555E+02 -0.96835834292E+01  0.14507524188E+03  0.15026355403E+03  0.15842124171E+02 0.  0.
         22    1    3    3    0    0 -0.34461067555E+02  0.96835834292E+01  0.26557426737E+02  0.44571671272E+02  0.00000000000E+00 0.  1.
         22    1    4    4    0    0  0.34175404250E+02 -0.11661808894E+02  0.12565470033E+03  0.13074042893E+03  0.00000000000E+00 0. -1.
         22    1    4    4    0    0  0.28566330513E+00  0.19782254647E+01  0.19420541549E+02  0.19523125098E+02  0.00000000000E+00 0. -1.
<mgrwt>
<rscale>  0 0.92211670E+02</rscale>
<asrwt>0</asrwt>
<pdfrwt beam="1">  1        1 0.28189837E-01 0.92211670E+02</pdfrwt>
<pdfrwt beam="2">  1       -1 0.17848121E-02 0.92211670E+02</pdfrwt>
<totfact> 0.11294113E+05</totfact>
</mgrwt>
</event>
<event>
 7    1  0.3607059E-009  0.9037303E+02  0.7818608E-02  0.1301951E+00
         -1   -1    0    0    0  501 -0.00000000000E+00  0.00000000000E+00  0.20870195325E+02  0.20870195934E+02  0.50400000000E-02 0.  1.
          1   -1    0    0  501    0  0.00000000000E+00 -0.00000000000E+00 -0.97834302051E+02  0.97834302181E+02  0.50400000000E-02 0. -1.
         23    2    1    2    0    0  0.00000000000E+00  0.00000000000E+00 -0.76964106726E+02  0.11870449811E+03  0.90373027771E+02 0.  0.
    9000005    2    3    3    0    0 -0.42529676520E+02  0.61287984485E+01 -0.23441042998E+02  0.50067380560E+02  0.10532072162E+02 0.  0.
         22    1    3    3    0    0  0.42529676520E+02 -0.61287984485E+01 -0.53523063728E+02  0.68637117554E+02  0.00000000000E+00 0. -1.
         22    1    4    4    0    0 -0.34764042891E+02  0.87476361813E+01 -0.17167440032E+02  0.39746456624E+02  0.00000000000E+00 0.  1.
         22    1    4    4    0    0 -0.77656336288E+01 -0.26188377328E+01 -0.62736029662E+01  0.10320923937E+02  0.00000000000E+00 0.  1.
<mgrwt>
<rscale>  0 0.90373028E+02</rscale>
<asrwt>0</asrwt>
<pdfrwt beam="2">  1        1 0.15051431E-01 0.90373028E+02</pdfrwt>
<pdfrwt beam="1">  1       -1 0.32107994E-02 0.90373028E+02</pdfrwt>
<totfact> 0.10661457E+05</totfact>
</mgrwt>
</event>
<event>
 7    1  0.3607059E-009  0.9147276E+02  0.7818608E-02  0.1299324E+00
          1   -1    0    0  501    0  0.00000000000E+00  0.00000000000E+00  0.10545469447E+03  0.10545469459E+03  0.50400000000E-02 0. -1.
         -1   -1    0    0    0  501 -0.00000000000E+00 -0.00000000000E+00 -0.19836161247E+02  0.19836161887E+02  0.50400000000E-02 0.  1.
         23    2    1    2    0    0  0.00000000000E+00  0.00000000000E+00  0.85618533227E+02  0.12529085648E+03  0.91472758163E+02 0.  0.
    9000005    2    3    3    0    0  0.88741477224E+01  0.28775965198E+02 -0.13404038810E+01  0.33265515331E+02  0.14070933047E+02 0.  0.
         22    1    3    3    0    0 -0.88741477224E+01 -0.28775965198E+02  0.86958937108E+02  0.92025341150E+02  0.00000000000E+00 0. -1.
         22    1    4    4    0    0 -0.23763999676E+01  0.15818830358E+02 -0.18155820017E+01  0.16099037508E+02  0.00000000000E+00 0. -1.
         22    1    4    4    0    0  0.11250547690E+02  0.12957134840E+02  0.47517812071E+00  0.17166477823E+02  0.00000000000E+00 0. -1.
<mgrwt>
<rscale>  0 0.91472758E+02</rscale>
<asrwt>0</asrwt>
<pdfrwt beam="1">  1        1 0.16223799E-01 0.91472758E+02</pdfrwt>
<pdfrwt beam="2">  1       -1 0.30517172E-02 0.91472758E+02</pdfrwt>
<totfact> 0.10445774E+05</totfact>
</mgrwt>
</event>
<event>
 7    1  0.3607059E-009  0.9113945E+02  0.7818608E-02  0.1300116E+00
          1   -1    0    0  501    0  0.00000000000E+00  0.00000000000E+00  0.15069003982E+02  0.15069004824E+02  0.50400000000E-02 0. -1.
         -1   -1    0    0    0  501 -0.00000000000E+00 -0.00000000000E+00 -0.13780604862E+03  0.13780604871E+03  0.50400000000E-02 0.  1.
         23    2    1    2    0    0  0.00000000000E+00  0.00000000000E+00 -0.12273704464E+03  0.15287505353E+03  0.91139452857E+02 0.  0.
    9000005    2    3    3    0    0  0.15359082177E+02  0.20773993044E+01 -0.13317182403E+03  0.13419079240E+03  0.56760070507E+01 0.  0.
         22    1    3    3    0    0 -0.15359082177E+02 -0.20773993044E+01  0.10434779393E+02  0.18684261136E+02  0.00000000000E+00 0. -1.
         22    1    4    4    0    0  0.88235877561E+01  0.37379373424E+01 -0.87643865872E+02  0.88166178898E+02  0.00000000000E+00 0. -1.
         22    1    4    4    0    0  0.65354944211E+01 -0.16605380380E+01 -0.45527958158E+02  0.46024613501E+02  0.00000000000E+00 0. -1.
<mgrwt>
<rscale>  0 0.91139453E+02</rscale>
<asrwt>0</asrwt>
<pdfrwt beam="1">  1        1 0.23183085E-02 0.91139453E+02</pdfrwt>
<pdfrwt beam="2">  1       -1 0.21200930E-01 0.91139453E+02</pdfrwt>
<totfact> 0.76329535E+04</totfact>
</mgrwt>
</event>
<event>
 7    1  0.3607059E-009  0.9115172E+02  0.7818608E-02  0.1300086E+00
          1   -1    0    0  501    0  0.00000000000E+00  0.00000000000E+00  0.20295858982E+03  0.20295858989E+03  0.50400000000E-02 0. -1.
         -1   -1    0    0    0  501 -0.00000000000E+00 -0.00000000000E+00 -0.10234398488E+02  0.10234399729E+02  0.50400000000E-02 0.  1.
         23    2    1    2    0    0  0.00000000000E+00  0.00000000000E+00  0.19272419134E+03  0.21319298961E+03  0.91151724586E+02 0.  0.
    9000005    2    3    3    0    0 -0.13930312828E+02 -0.32599414795E+02  0.16256898522E+03  0.16665148216E+03  0.93416320724E+01 0.  0.
         22    1    3    3    0    0  0.13930312828E+02  0.32599414795E+02  0.30155206117E+02  0.46541507458E+02  0.00000000000E+00 0.  1.
         22    1    4    4    0    0 -0.11214299694E+02 -0.22736024692E+02  0.95539005289E+02  0.98845277419E+02  0.00000000000E+00 0.  1.
         22    1    4    4    0    0 -0.27160131345E+01 -0.98633901031E+01  0.67029979929E+02  0.67806204738E+02  0.00000000000E+00 0.  1.
<mgrwt>
<rscale>  0 0.91151725E+02</rscale>
<asrwt>0</asrwt>
<pdfrwt beam="1">  1        1 0.31224397E-01 0.91151725E+02</pdfrwt>
<pdfrwt beam="2">  1       -1 0.15745230E-02 0.91151725E+02</pdfrwt>
<totfact> 0.11883175E+05</totfact>
</mgrwt>
</event>
<event>
 6    1  0.3607059E-009  0.1475889E+03  0.7818608E-02  0.1203467E+00
         -1   -1    0    0    0  501 -0.00000000000E+00  0.00000000000E+00  0.26215709044E+03  0.26215709049E+03  0.50400000000E-02 0.  1.
          1   -1    0    0  501    0  0.00000000000E+00 -0.00000000000E+00 -0.20772344143E+02  0.20772344754E+02  0.50400000000E-02 0. -1.
    9000005    2    1    2    0    0 -0.29415130972E+02 -0.64851435489E+02  0.87288878740E+02  0.11317521582E+03  0.10877614997E+02 0.  0.
         22    1    1    2    0    0  0.29415130972E+02  0.64851435489E+02  0.15409586755E+03  0.16975421942E+03  0.00000000000E+00 0.  1.
         22    1    3    3    0    0 -0.22675900055E+02 -0.54371440668E+02  0.77396054663E+02  0.97265612017E+02  0.00000000000E+00 0.  1.
         22    1    3    3    0    0 -0.67392309170E+01 -0.10479994821E+02  0.98928240774E+01  0.15909603798E+02  0.00000000000E+00 0.  1.
<mgrwt>
<rscale>  0 0.14758885E+03</rscale>
<asrwt>0</asrwt>
<pdfrwt beam="2">  1        1 0.31957452E-02 0.14758885E+03</pdfrwt>
<pdfrwt beam="1">  1       -1 0.40331861E-01 0.14758885E+03</pdfrwt>
<totfact> 0.17800262E+04</totfact>
</mgrwt>
</event>
<event>
 7    1  0.3607059E-009  0.9058116E+02  0.7818608E-02  0.1301450E+00
         -1   -1    0    0    0  501 -0.00000000000E+00  0.00000000000E+00  0.13691666137E+03  0.13691666146E+03  0.50400000000E-02 0. -1.
          1   -1    0    0  501    0  0.00000000000E+00 -0.00000000000E+00 -0.14981642908E+02  0.14981643756E+02  0.50400000000E-02 0.  1.
         23    2    1    2    0    0  0.00000000000E+00  0.00000000000E+00  0.12193501846E+03  0.15189830522E+03  0.90581159195E+02 0.  0.
    9000005    2    3    3    0    0 -0.17931183492E+02 -0.25974491921E+02  0.10429091581E+02  0.36011406471E+02  0.13851132548E+02 0.  0.
         22    1    3    3    0    0  0.17931183492E+02  0.25974491921E+02  0.11150592688E+03  0.11588689875E+03  0.00000000000E+00 0. -1.
         22    1    4    4    0    0 -0.71828885335E+01 -0.18943445805E+02  0.11191355725E+02  0.23145074414E+02  0.00000000000E+00 0.  1.
         22    1    4    4    0    0 -0.10748294958E+02 -0.70310461152E+01 -0.76226414315E+00  0.12866332057E+02  0.00000000000E+00 0.  1.
<mgrwt>
<rscale>  0 0.90581159E+02</rscale>
<asrwt>0</asrwt>
<pdfrwt beam="2">  1        1 0.23048682E-02 0.90581159E+02</pdfrwt>
<pdfrwt beam="1">  1       -1 0.21064102E-01 0.90581159E+02</pdfrwt>
<totfact> 0.77665150E+04</totfact>
</mgrwt>
</event>
<event>
 7    1  0.3607059E-009  0.9153653E+02  0.7818608E-02  0.1299173E+00
          1   -1    0    0  501    0  0.00000000000E+00  0.00000000000E+00  0.31839491206E+03  0.31839491210E+03  0.50400000000E-02 0. -1.
         -1   -1    0    0    0  501 -0.00000000000E+00 -0.00000000000E+00 -0.65790424987E+01  0.65790444292E+01  0.50400000000E-02 0.  1.
         23    2    1    2    0    0  0.00000000000E+00  0.17763568394E-14  0.31181586957E+03  0.32497395653E+03  0.91536527747E+02 0.  0.
    9000005    2    3    3    0    0 -0.40905594218E+02  0.13824980917E+02  0.19920675504E+03  0.20437043084E+03  0.14817017649E+02 0.  0.
         22    1    3    3    0    0  0.40905594218E+02 -0.13824980917E+02  0.11260911453E+03  0.12060352569E+03  0.00000000000E+00 0.  1.
         22    1    4    4    0    0 -0.17791025326E+02  0.33040439769E+00  0.58725918363E+02  0.61362555658E+02  0.00000000000E+00 0.  1.
         22    1    4    4    0    0 -0.23114568892E+02  0.13494576519E+02  0.14048083668E+03  0.14300787518E+03  0.00000000000E+00 0.  1.
<mgrwt>
<rscale>  0 0.91536528E+02</rscale>
<asrwt>0</asrwt>
<pdfrwt beam="1">  1        1 0.48983832E-01 0.91536528E+02</pdfrwt>
<pdfrwt beam="2">  1       -1 0.10121605E-02 0.91536528E+02</pdfrwt>
<totfact> 0.12821746E+05</totfact>
</mgrwt>
</event>
<event>
 7    1  0.3607059E-009  0.9074027E+02  0.7818608E-02  0.1301069E+00
         -1   -1    0    0    0  501 -0.00000000000E+00  0.00000000000E+00  0.10583745972E+02  0.10583747172E+02  0.50400000000E-02 0.  1.
          1   -1    0    0  501    0  0.00000000000E+00 -0.00000000000E+00 -0.19449155136E+03  0.19449155143E+03  0.50400000000E-02 0. -1.
         23    2    1    2    0    0  0.00000000000E+00  0.00000000000E+00 -0.18390780539E+03  0.20507529860E+03  0.90740273375E+02 0.  0.
    9000005    2    3    3    0    0 -0.16827717970E+02  0.25752330901E+02 -0.20888669984E+02  0.39178966067E+02  0.12340997103E+02 0.  0.
         22    1    3    3    0    0  0.16827717970E+02 -0.25752330901E+02 -0.16301913541E+03  0.16589633253E+03  0.00000000000E+00 0. -1.
         22    1    4    4    0    0 -0.96480930073E+01  0.12709498504E+02 -0.35899893294E+01  0.16355582359E+02  0.00000000000E+00 0. -1.
         22    1    4    4    0    0 -0.71796249630E+01  0.13042832396E+02 -0.17298680654E+02  0.22823383708E+02  0.00000000000E+00 0. -1.
<mgrwt>
<rscale>  0 0.90740273E+02</rscale>
<asrwt>0</asrwt>
<pdfrwt beam="2">  1        1 0.29921775E-01 0.90740273E+02</pdfrwt>
<pdfrwt beam="1">  1       -1 0.16282688E-02 0.90740273E+02</pdfrwt>
<totfact> 0.11929300E+05</totfact>
</mgrwt>
</event>
<event>
 7    1  0.3607059E-009  0.9934323E+02  0.7818608E-02  0.1281683E+00
         -1   -1    0    0    0  501 -0.00000000000E+00  0.00000000000E+00  0.91724120662E+02  0.91724120801E+02  0.50400000000E-02 0.  1.
          1   -1    0    0  501    0  0.00000000000E+00 -0.00000000000E+00 -0.26898805283E+02  0.26898805755E+02  0.50400000000E-02 0. -1.
         23    2    1    2    0    0  0.71054273576E-14 -0.35527136788E-14  0.64825315379E+02  0.11862292656E+03  0.99343229214E+02 0.  0.
    9000005    2    3    3    0    0 -0.26457248819E+02  0.22405028616E+02  0.73692391613E+02  0.82837505456E+02  0.15149666866E+02 0.  0.
         22    1    3    3    0    0  0.26457248819E+02 -0.22405028616E+02 -0.88670762338E+01  0.35785421100E+02  0.00000000000E+00 0. -1.
         22    1    4    4    0    0  0.40085734029E+00  0.32320314405E+01  0.17715751146E+01  0.37074509068E+01  0.00000000000E+00 0.  1.
         22    1    4    4    0    0 -0.26858106160E+02  0.19172997176E+02  0.71920816498E+02  0.79130054549E+02  0.00000000000E+00 0.  1.
<mgrwt>
<rscale>  0 0.99343229E+02</rscale>
<asrwt>0</asrwt>
<pdfrwt beam="2">  1        1 0.41382777E-02 0.99343229E+02</pdfrwt>
<pdfrwt beam="1">  1       -1 0.14111404E-01 0.99343229E+02</pdfrwt>
<totfact> 0.66284458E+04</totfact>
</mgrwt>
</event>
<event>
 7    1  0.3607059E-009  0.8951292E+02  0.7818608E-02  0.1304036E+00
          1   -1    0    0  501    0  0.00000000000E+00  0.00000000000E+00  0.56485652935E+03  0.56485652937E+03  0.50400000000E-02 0. -1.
         -1   -1    0    0    0  501 -0.00000000000E+00 -0.00000000000E+00 -0.35462805766E+01  0.35462841580E+01  0.50400000000E-02 0.  1.
         23    2    1    2    0    0  0.71054273576E-14  0.88817841970E-15  0.56131024877E+03  0.56840281353E+03  0.89512921142E+02 0.  0.
    9000005    2    3    3    0    0  0.43290783119E+02  0.68194544163E+01  0.30420209128E+03  0.30758640011E+03  0.12242725588E+02 0.  0.
         22    1    3    3    0    0 -0.43290783119E+02 -0.68194544163E+01  0.25710815750E+03  0.26081641343E+03  0.00000000000E+00 0. -1.
         22    1    4    4    0    0 -0.65461577808E+00  0.54374357084E+00  0.26199101937E+01  0.27546521215E+01  0.00000000000E+00 0.  1.
         22    1    4    4    0    0  0.43945398898E+02  0.62757108454E+01  0.30158218109E+03  0.30483174798E+03  0.00000000000E+00 0.  1.
<mgrwt>
<rscale>  0 0.89512921E+02</rscale>
<asrwt>0</asrwt>
<pdfrwt beam="1">  1        1 0.86901034E-01 0.89512921E+02</pdfrwt>
<pdfrwt beam="2">  1       -1 0.54558172E-03 0.89512921E+02</pdfrwt>
<totfact> 0.14802022E+05</totfact>
</mgrwt>
</event>
<event>
 7    1  0.3607059E-009  0.9306570E+02  0.7818608E-02  0.1295593E+00
         -1   -1    0    0    0  501 -0.00000000000E+00  0.00000000000E+00  0.20009968932E+02  0.20009969567E+02  0.50400000000E-02 0.  1.
          1   -1    0    0  501    0  0.00000000000E+00 -0.00000000000E+00 -0.10821135771E+03  0.10821135783E+03  0.50400000000E-02 0. -1.
         23    2    1    2    0    0  0.88817841970E-15  0.00000000000E+00 -0.88201388777E+02  0.12822132739E+03  0.93065696239E+02 0.  0.
    9000005    2    3    3    0    0 -0.52347049301E+01 -0.38556729479E+02 -0.93394875468E+01  0.40282581727E+02  0.46299934298E+01 0.  0.
         22    1    3    3    0    0  0.52347049301E+01  0.38556729479E+02 -0.78861901230E+02  0.87938745666E+02  0.00000000000E+00 0. -1.
         22    1    4    4    0    0 -0.57834324830E+01 -0.37460543321E+02 -0.86601855680E+01  0.38881090665E+02  0.00000000000E+00 0.  1.
         22    1    4    4    0    0  0.54872755300E+00 -0.10961861573E+01 -0.67930197871E+00  0.14014910621E+01  0.00000000000E+00 0.  1.
<mgrwt>
<rscale>  0 0.93065696E+02</rscale>
<asrwt>0</asrwt>
<pdfrwt beam="2">  1        1 0.16647901E-01 0.93065696E+02</pdfrwt>
<pdfrwt beam="1">  1       -1 0.30784569E-02 0.93065696E+02</pdfrwt>
<totfact> 0.10009074E+05</totfact>
</mgrwt>
</event>
<event>
 7    1  0.3607059E-009  0.9634462E+02  0.7818608E-02  0.1288176E+00
         -1   -1    0    0    0  501 -0.00000000000E+00  0.00000000000E+00  0.59384576257E+02  0.59384576471E+02  0.50400000000E-02 0.  1.
          1   -1    0    0  501    0  0.00000000000E+00 -0.00000000000E+00 -0.39077006431E+02  0.39077006756E+02  0.50400000000E-02 0. -1.
         23    2    1    2    0    0  0.35527136788E-14  0.71054273576E-14  0.20307569826E+02  0.98461583227E+02  0.96344620915E+02 0.  0.
    9000005    2    3    3    0    0  0.23056190019E+02  0.41287301326E+02  0.82955237812E+01  0.49671026772E+02  0.12734442933E+02 0.  0.
         22    1    3    3    0    0 -0.23056190019E+02 -0.41287301326E+02  0.12012046045E+02  0.48790556455E+02  0.00000000000E+00 0.  1.
         22    1    4    4    0    0  0.72195786171E+01  0.39455208730E+01 -0.19975362375E+00  0.82297844369E+01  0.00000000000E+00 0.  1.
         22    1    4    4    0    0  0.15836611402E+02  0.37341780453E+02  0.84952774049E+01  0.41441242335E+02  0.00000000000E+00 0.  1.
<mgrwt>
<rscale>  0 0.96344621E+02</rscale>
<asrwt>0</asrwt>
<pdfrwt beam="2">  1        1 0.60118472E-02 0.96344621E+02</pdfrwt>
<pdfrwt beam="1">  1       -1 0.91360886E-02 0.96344621E+02</pdfrwt>
<totfact> 0.77230665E+04</totfact>
</mgrwt>
</event>
<event>
 7    1  0.3607059E-009  0.8978664E+02  0.7818608E-02  0.1303369E+00
          1   -1    0    0  501    0  0.00000000000E+00  0.00000000000E+00  0.36125352903E+02  0.36125353255E+02  0.50400000000E-02 0. -1.
         -1   -1    0    0    0  501 -0.00000000000E+00 -0.00000000000E+00 -0.55789356957E+02  0.55789357184E+02  0.50400000000E-02 0.  1.
         23    2    1    2    0    0  0.00000000000E+00  0.00000000000E+00 -0.19664004054E+02  0.91914710439E+02  0.89786641209E+02 0.  0.
    9000005    2    3    3    0    0 -0.29822393929E+02 -0.74167959259E+01  0.22421377288E+02  0.39803642861E+02  0.11714426322E+02 0.  0.
         22    1    3    3    0    0  0.29822393929E+02  0.74167959259E+01 -0.42085381342E+02  0.52111067578E+02  0.00000000000E+00 0.  1.
         22    1    4    4    0    0 -0.30897022332E+02 -0.73237499243E+01  0.22067972097E+02  0.38668575024E+02  0.00000000000E+00 0.  1.
         22    1    4    4    0    0  0.10746284036E+01 -0.93046001581E-01  0.35340519106E+00  0.11350678364E+01  0.00000000000E+00 0.  1.
<mgrwt>
<rscale>  0 0.89786641E+02</rscale>
<asrwt>0</asrwt>
<pdfrwt beam="1">  1        1 0.55577466E-02 0.89786641E+02</pdfrwt>
<pdfrwt beam="2">  1       -1 0.85829781E-02 0.89786641E+02</pdfrwt>
<totfact> 0.93232779E+04</totfact>
</mgrwt>
</event>
<event>
 7    1  0.3607059E-009  0.8721438E+02  0.7818608E-02  0.1309741E+00
         -1   -1    0    0    0  501 -0.00000000000E+00  0.00000000000E+00  0.39292742753E+02  0.39292743076E+02  0.50400000000E-02 0.  1.
          1   -1    0    0  501    0  0.00000000000E+00 -0.00000000000E+00 -0.48395372041E+02  0.48395372304E+02  0.50400000000E-02 0. -1.
         23    2    1    2    0    0  0.00000000000E+00  0.00000000000E+00 -0.91026292883E+01  0.87688115380E+02  0.87214377937E+02 0.  0.
    9000005    2    3    3    0    0 -0.74049515958E+01  0.40790983567E+02  0.36922005052E+01  0.44300959240E+02  0.15172507917E+02 0.  0.
         22    1    3    3    0    0  0.74049515958E+01 -0.40790983567E+02 -0.12794829794E+02  0.43387156140E+02  0.00000000000E+00 0.  1.
         22    1    4    4    0    0 -0.10354423023E+02  0.33715570165E+02 -0.10531726147E+01  0.35285449129E+02  0.00000000000E+00 0. -1.
         22    1    4    4    0    0  0.29494714270E+01  0.70754134021E+01  0.47453731199E+01  0.90155101108E+01  0.00000000000E+00 0. -1.
<mgrwt>
<rscale>  0 0.87214378E+02</rscale>
<asrwt>0</asrwt>
<pdfrwt beam="2">  1        1 0.74454419E-02 0.87214378E+02</pdfrwt>
<pdfrwt beam="1">  1       -1 0.60450374E-02 0.87214378E+02</pdfrwt>
<totfact> 0.10560567E+05</totfact>
</mgrwt>
</event>
<event>
 7    1  0.3607059E-009  0.9056947E+02  0.7818608E-02  0.1301478E+00
          1   -1    0    0  501    0  0.00000000000E+00  0.00000000000E+00  0.41644977036E+02  0.41644977341E+02  0.50400000000E-02 0. -1.
         -1   -1    0    0    0  501 -0.00000000000E+00 -0.00000000000E+00 -0.49242606236E+02  0.49242606494E+02  0.50400000000E-02 0.  1.
         23    2    1    2    0    0 -0.17763568394E-14  0.00000000000E+00 -0.75976291996E+01  0.90887583835E+02  0.90569470165E+02 0.  0.
    9000005    2    3    3    0    0  0.11264874603E+02  0.55321289780E+01 -0.46881929773E+02  0.49647335019E+02  0.10461390176E+02 0.  0.
         22    1    3    3    0    0 -0.11264874603E+02 -0.55321289780E+01  0.39284300574E+02  0.41240248816E+02  0.00000000000E+00 0. -1.
         22    1    4    4    0    0  0.75501325320E+01  0.73644003059E+01 -0.41701529856E+02  0.43014607814E+02  0.00000000000E+00 0. -1.
         22    1    4    4    0    0  0.37147420708E+01 -0.18322713279E+01 -0.51803999175E+01  0.66327272050E+01  0.00000000000E+00 0. -1.
<mgrwt>
<rscale>  0 0.90569470E+02</rscale>
<asrwt>0</asrwt>
<pdfrwt beam="1">  1        1 0.64069196E-02 0.90569470E+02</pdfrwt>
<pdfrwt beam="2">  1       -1 0.75757856E-02 0.90569470E+02</pdfrwt>
<totfact> 0.92952549E+04</totfact>
</mgrwt>
</event>
<event>
 7    1  0.3607059E-009  0.9280521E+02  0.7818608E-02  0.1296197E+00
         -1   -1    0    0    0  501 -0.00000000000E+00  0.00000000000E+00  0.31440368400E+03  0.31440368404E+03  0.50400000000E-02 0.  1.
          1   -1    0    0  501    0  0.00000000000E+00 -0.00000000000E+00 -0.68485243439E+01  0.68485261985E+01  0.50400000000E-02 0. -1.
         23    2    1    2    0    0  0.00000000000E+00  0.00000000000E+00  0.30755515966E+03  0.32125221024E+03  0.92805206494E+02 0.  0.
    9000005    2    3    3    0    0 -0.22435651579E+02 -0.29408615750E+02  0.24863529727E+03  0.25168371646E+03  0.12528245859E+02 0.  0.
         22    1    3    3    0    0  0.22435651579E+02  0.29408615750E+02  0.58919862391E+02  0.69568493777E+02  0.00000000000E+00 0. -1.
         22    1    4    4    0    0 -0.74124818463E+01 -0.19063034241E+02  0.11429235901E+03  0.11610808538E+03  0.00000000000E+00 0. -1.
         22    1    4    4    0    0 -0.15023169733E+02 -0.10345581509E+02  0.13434293825E+03  0.13557563109E+03  0.00000000000E+00 0. -1.
<mgrwt>
<rscale>  0 0.92805206E+02</rscale>
<asrwt>0</asrwt>
<pdfrwt beam="2">  1        1 0.10536193E-02 0.92805206E+02</pdfrwt>
<pdfrwt beam="1">  1       -1 0.48369798E-01 0.92805206E+02</pdfrwt>
<totfact> 0.56762552E+04</totfact>
</mgrwt>
</event>
<event>
 7    1  0.3607059E-009  0.9033295E+02  0.7818608E-02  0.1302047E+00
          1   -1    0    0  501    0  0.00000000000E+00  0.00000000000E+00  0.19535259749E+03  0.19535259756E+03  0.50400000000E-02 0. -1.
         -1   -1    0    0    0  501 -0.00000000000E+00 -0.00000000000E+00 -0.10442709416E+02  0.10442710632E+02  0.50400000000E-02 0.  1.
         23    2    1    2    0    0  0.35527136788E-14  0.00000000000E+00  0.18490988808E+03  0.20579530819E+03  0.90332951707E+02 0.  0.
    9000005    2    3    3    0    0  0.31437575650E+02 -0.15212649648E+02  0.15689260744E+03  0.16102127681E+03  0.96340771666E+01 0.  0.
         22    1    3    3    0    0 -0.31437575650E+02  0.15212649648E+02  0.28017280638E+02  0.44774031384E+02  0.00000000000E+00 0.  1.
         22    1    4    4    0    0  0.26819994870E+02 -0.14894204470E+02  0.12086760629E+03  0.12470015117E+03  0.00000000000E+00 0.  1.
         22    1    4    4    0    0  0.46175807799E+01 -0.31844517813E+00  0.36025001148E+02  0.36321125633E+02  0.00000000000E+00 0.  1.
<mgrwt>
<rscale>  0 0.90332952E+02</rscale>
<asrwt>0</asrwt>
<pdfrwt beam="1">  1        1 0.30054243E-01 0.90332952E+02</pdfrwt>
<pdfrwt beam="2">  1       -1 0.16065709E-02 0.90332952E+02</pdfrwt>
<totfact> 0.12084245E+05</totfact>
</mgrwt>
</event>
<event>
 7    1  0.3607059E-009  0.9364301E+02  0.7818608E-02  0.1294262E+00
          1   -1    0    0  501    0  0.00000000000E+00  0.00000000000E+00  0.58789098677E+02  0.58789098893E+02  0.50400000000E-02 0. -1.
         -1   -1    0    0    0  501 -0.00000000000E+00 -0.00000000000E+00 -0.37290134288E+02  0.37290134629E+02  0.50400000000E-02 0.  1.
         23    2    1    2    0    0 -0.71054273576E-14 -0.88817841970E-15  0.21498964389E+02  0.96079233522E+02  0.93643011722E+02 0.  0.
    9000005    2    3    3    0    0  0.39512626059E+02  0.62864536675E+01 -0.12031853324E+02  0.43876907384E+02  0.13403372314E+02 0.  0.
         22    1    3    3    0    0 -0.39512626059E+02 -0.62864536675E+01  0.33530817713E+02  0.52202326138E+02  0.00000000000E+00 0. -1.
         22    1    4    4    0    0  0.38196681973E+02  0.76057044642E+01 -0.84697489251E+01  0.39856867676E+02  0.00000000000E+00 0.  1.
         22    1    4    4    0    0  0.13159440861E+01 -0.13192507967E+01 -0.35621043988E+01  0.40200397076E+01  0.00000000000E+00 0.  1.
<mgrwt>
<rscale>  0 0.93643012E+02</rscale>
<asrwt>0</asrwt>
<pdfrwt beam="1">  1        1 0.90444767E-02 0.93643012E+02</pdfrwt>
<pdfrwt beam="2">  1       -1 0.57369438E-02 0.93643012E+02</pdfrwt>
<totfact> 0.89194395E+04</totfact>
</mgrwt>
</event>
<event>
 6    1  0.3607059E-009  0.5308035E+03  0.7818608E-02  0.1006037E+00
          1   -1    0    0  501    0  0.00000000000E+00  0.00000000000E+00  0.62625450983E+03  0.62625450985E+03  0.50400000000E-02 0. -1.
         -1   -1    0    0    0  501 -0.00000000000E+00 -0.00000000000E+00 -0.11247517033E+03  0.11247517044E+03  0.50400000000E-02 0.  1.
    9000005    2    1    2    0    0 -0.13242555433E+03 -0.19275937232E+03  0.43147139585E+03  0.49080368196E+03  0.52901539469E+01 0.  0.
         22    1    1    2    0    0  0.13242555433E+03  0.19275937232E+03  0.82307943651E+02  0.24792599833E+03  0.00000000000E+00 0.  1.
         22    1    3    3    0    0 -0.12700162301E+03 -0.18396263753E+03  0.41434306686E+03  0.47079915177E+03  0.00000000000E+00 0. -1.
         22    1    3    3    0    0 -0.54239313168E+01 -0.87967347917E+01  0.17128328994E+02  0.20004530188E+02  0.00000000000E+00 0. -1.
<mgrwt>
<rscale>  0 0.53080348E+03</rscale>
<asrwt>0</asrwt>
<pdfrwt beam="1">  1        1 0.96346850E-01 0.53080348E+03</pdfrwt>
<pdfrwt beam="2">  1       -1 0.17303872E-01 0.53080348E+03</pdfrwt>
<totfact> 0.84331387E+02</totfact>
</mgrwt>
</event>
<event>
 7    1  0.3607059E-009  0.8859909E+02  0.7818608E-02  0.1306280E+00
         -1   -1    0    0    0  501 -0.00000000000E+00  0.00000000000E+00  0.27287985269E+01  0.27288031813E+01  0.50400000000E-02 0.  1.
          1   -1    0    0  501    0  0.00000000000E+00 -0.00000000000E+00 -0.71916185376E+03  0.71916185377E+03  0.50400000000E-02 0. -1.
         23    2    1    2    0    0  0.00000000000E+00  0.00000000000E+00 -0.71643305523E+03  0.72189065696E+03  0.88599085628E+02 0.  0.
    9000005    2    3    3    0    0 -0.11152155811E+01 -0.30236375710E+02 -0.62122222234E+03  0.62198778002E+03  0.60221951403E+01 0.  0.
         22    1    3    3    0    0  0.11152155811E+01  0.30236375710E+02 -0.95210832885E+02  0.99902876938E+02  0.00000000000E+00 0.  1.
         22    1    4    4    0    0 -0.13254565607E+01 -0.73564796628E+01 -0.20604201314E+03  0.20617755893E+03  0.00000000000E+00 0.  1.
         22    1    4    4    0    0  0.21024097968E+00 -0.22879896047E+02 -0.41518020921E+03  0.41581022109E+03  0.00000000000E+00 0.  1.
<mgrwt>
<rscale>  0 0.88599086E+02</rscale>
<asrwt>0</asrwt>
<pdfrwt beam="2">  1        1 0.11064013E+00 0.88599086E+02</pdfrwt>
<pdfrwt beam="1">  1       -1 0.41981609E-03 0.88599086E+02</pdfrwt>
<totfact> 0.15329360E+05</totfact>
</mgrwt>
</event>
<event>
 7    1  0.3607059E-009  0.9023912E+02  0.7818608E-02  0.1302274E+00
          1   -1    0    0  501    0  0.00000000000E+00  0.00000000000E+00  0.52860528634E+02  0.52860528874E+02  0.50400000000E-02 0. -1.
         -1   -1    0    0    0  501 -0.00000000000E+00 -0.00000000000E+00 -0.38512190641E+02  0.38512190971E+02  0.50400000000E-02 0.  1.
         23    2    1    2    0    0  0.00000000000E+00  0.00000000000E+00  0.14348337993E+02  0.91372719845E+02  0.90239121941E+02 0.  0.
    9000005    2    3    3    0    0  0.42102583778E+01  0.27338300531E+02  0.42320848374E+02  0.52033549944E+02  0.12301510524E+02 0.  0.
         22    1    3    3    0    0 -0.42102583778E+01 -0.27338300531E+02 -0.27972510381E+02  0.39339169901E+02  0.00000000000E+00 0.  1.
         22    1    4    4    0    0  0.24969144364E+01  0.28174014361E+02  0.38609970985E+02  0.47861670744E+02  0.00000000000E+00 0.  1.
         22    1    4    4    0    0  0.17133439415E+01 -0.83571382999E+00  0.37108773885E+01  0.41718792001E+01  0.00000000000E+00 0.  1.
<mgrwt>
<rscale>  0 0.90239122E+02</rscale>
<asrwt>0</asrwt>
<pdfrwt beam="1">  1        1 0.81323890E-02 0.90239122E+02</pdfrwt>
<pdfrwt beam="2">  1       -1 0.59249525E-02 0.90239122E+02</pdfrwt>
<totfact> 0.97310790E+04</totfact>
</mgrwt>
</event>
<event>
 7    1  0.3607059E-009  0.9169842E+02  0.7818608E-02  0.1298790E+00
         -1   -1    0    0    0  501 -0.00000000000E+00  0.00000000000E+00  0.35136348165E+03  0.35136348169E+03  0.50400000000E-02 0.  1.
          1   -1    0    0  501    0  0.00000000000E+00 -0.00000000000E+00 -0.59828345927E+01  0.59828367156E+01  0.50400000000E-02 0. -1.
         23    2    1    2    0    0  0.00000000000E+00  0.00000000000E+00  0.34538064706E+03  0.35734631840E+03  0.91698418272E+02 0.  0.
    9000005    2    3    3    0    0 -0.17932039514E+02  0.14798739321E+02  0.32600011910E+03  0.32707809099E+03  0.12784335206E+02 0.  0.
         22    1    3    3    0    0  0.17932039514E+02 -0.14798739321E+02  0.19380527955E+02  0.30268227408E+02  0.00000000000E+00 0. -1.
         22    1    4    4    0    0  0.61899825026E+00 -0.16321410807E+01  0.19779942806E+02  0.19856816984E+02  0.00000000000E+00 0. -1.
         22    1    4    4    0    0 -0.18551037764E+02  0.16430880401E+02  0.30622017630E+03  0.30722127401E+03  0.00000000000E+00 0. -1.
<mgrwt>
<rscale>  0 0.91698418E+02</rscale>
<asrwt>0</asrwt>
<pdfrwt beam="2">  1        1 0.92043598E-03 0.91698418E+02</pdfrwt>
<pdfrwt beam="1">  1       -1 0.54055937E-01 0.91698418E+02</pdfrwt>
<totfact> 0.55847105E+04</totfact>
</mgrwt>
</event>
<event>
 7    1  0.3607059E-009  0.9218637E+02  0.7818608E-02  0.1297642E+00
         -1   -1    0    0    0  501 -0.00000000000E+00  0.00000000000E+00  0.10393526849E+02  0.10393528071E+02  0.50400000000E-02 0.  1.
          1   -1    0    0  501    0  0.00000000000E+00 -0.00000000000E+00 -0.20441391376E+03  0.20441391382E+03  0.50400000000E-02 0. -1.
         23    2    1    2    0    0 -0.17763568394E-14 -0.71054273576E-14 -0.19402038691E+03  0.21480744189E+03  0.92186368601E+02 0.  0.
    9000005    2    3    3    0    0  0.86202804431E+01  0.42466463159E+02 -0.71866773398E+02  0.85195656078E+02  0.14688668005E+02 0.  0.
         22    1    3    3    0    0 -0.86202804431E+01 -0.42466463159E+02 -0.12215361351E+03  0.12961178582E+03  0.00000000000E+00 0. -1.
         22    1    4    4    0    0  0.18640436240E+01  0.20967991694E+01 -0.39502800869E+00  0.28332441682E+01  0.00000000000E+00 0. -1.
         22    1    4    4    0    0  0.67562368191E+01  0.40369663989E+02 -0.71471745389E+02  0.82362411910E+02  0.00000000000E+00 0. -1.
<mgrwt>
<rscale>  0 0.92186369E+02</rscale>
<asrwt>0</asrwt>
<pdfrwt beam="2">  1        1 0.31448291E-01 0.92186369E+02</pdfrwt>
<pdfrwt beam="1">  1       -1 0.15990044E-02 0.92186369E+02</pdfrwt>
<totfact> 0.11544541E+05</totfact>
</mgrwt>
</event>
<event>
 7    1  0.3607059E-009  0.1024396E+03  0.7818608E-02  0.1275248E+00
         -1   -1    0    0    0  501 -0.00000000000E+00  0.00000000000E+00  0.12734901895E+03  0.12734901905E+03  0.50400000000E-02 0.  1.
          1   -1    0    0  501    0  0.00000000000E+00 -0.00000000000E+00 -0.20600626480E+02  0.20600627097E+02  0.50400000000E-02 0. -1.
         23    2    1    2    0    0  0.00000000000E+00  0.00000000000E+00  0.10674839247E+03  0.14794964615E+03  0.10243963344E+03 0.  0.
    9000005    2    3    3    0    0 -0.26639812840E+02 -0.40670847027E+02  0.75826265021E+02  0.90330418524E+02  0.67944549074E+01 0.  0.
         22    1    3    3    0    0  0.26639812840E+02  0.40670847027E+02  0.30922127450E+02  0.57619227625E+02  0.00000000000E+00 0.  1.
         22    1    4    4    0    0 -0.16216907575E+02 -0.18667636569E+02  0.37038682271E+02  0.44534623954E+02  0.00000000000E+00 0.  1.
         22    1    4    4    0    0 -0.10422905266E+02 -0.22003210457E+02  0.38787582750E+02  0.45795794569E+02  0.00000000000E+00 0.  1.
<mgrwt>
<rscale>  0 0.10243963E+03</rscale>
<asrwt>0</asrwt>
<pdfrwt beam="2">  1        1 0.31693272E-02 0.10243963E+03</pdfrwt>
<pdfrwt beam="1">  1       -1 0.19592157E-01 0.10243963E+03</pdfrwt>
<totfact> 0.57328787E+04</totfact>
</mgrwt>
</event>
<event>
 7    1  0.3607059E-009  0.9027183E+02  0.7818608E-02  0.1302195E+00
         -1   -1    0    0    0  501 -0.00000000000E+00  0.00000000000E+00  0.63914309227E+01  0.63914329098E+01  0.50400000000E-02 0.  1.
          1   -1    0    0  501    0  0.00000000000E+00 -0.00000000000E+00 -0.31874719032E+03  0.31874719036E+03  0.50400000000E-02 0. -1.
         23    2    1    2    0    0  0.00000000000E+00  0.00000000000E+00 -0.31235575939E+03  0.32513862327E+03  0.90271833442E+02 0.  0.
    9000005    2    3    3    0    0 -0.42414649789E+02 -0.14577598625E+02 -0.16888834787E+03  0.17482426245E+03  0.53609510629E+01 0.  0.
         22    1    3    3    0    0  0.42414649789E+02  0.14577598625E+02 -0.14346741152E+03  0.15031436082E+03  0.00000000000E+00 0.  1.
         22    1    4    4    0    0 -0.26887982598E+02 -0.73901877282E+01 -0.97057272307E+02  0.10098362536E+03  0.00000000000E+00 0. -1.
         22    1    4    4    0    0 -0.15526667191E+02 -0.71874108966E+01 -0.71831075564E+02  0.73840637092E+02  0.00000000000E+00 0. -1.
<mgrwt>
<rscale>  0 0.90271833E+02</rscale>
<asrwt>0</asrwt>
<pdfrwt beam="2">  1        1 0.49038017E-01 0.90271833E+02</pdfrwt>
<pdfrwt beam="1">  1       -1 0.98329747E-03 0.90271833E+02</pdfrwt>
<totfact> 0.13308121E+05</totfact>
</mgrwt>
</event>
<event>
 7    1  0.3607059E-009  0.9067068E+02  0.7818608E-02  0.1301236E+00
         -1   -1    0    0    0  501 -0.00000000000E+00  0.00000000000E+00  0.11232129521E+03  0.11232129532E+03  0.50400000000E-02 0.  1.
          1   -1    0    0  501    0  0.00000000000E+00 -0.00000000000E+00 -0.18298338055E+02  0.18298338749E+02  0.50400000000E-02 0. -1.
         23    2    1    2    0    0  0.17763568394E-14  0.00000000000E+00  0.94022957152E+02  0.13061963407E+03  0.90670680667E+02 0.  0.
    9000005    2    3    3    0    0  0.14236699820E+02  0.25999352557E+02  0.96395516425E+02  0.10088280518E+03  0.25680416799E+01 0.  0.
         22    1    3    3    0    0 -0.14236699820E+02 -0.25999352557E+02 -0.23725592726E+01  0.29736828894E+02  0.00000000000E+00 0. -1.
         22    1    4    4    0    0  0.12682799249E+02  0.21423381124E+02  0.79165024266E+02  0.82987443162E+02  0.00000000000E+00 0. -1.
         22    1    4    4    0    0  0.15539005711E+01  0.45759714330E+01  0.17230492159E+02  0.17895362013E+02  0.00000000000E+00 0. -1.
<mgrwt>
<rscale>  0 0.90670681E+02</rscale>
<asrwt>0</asrwt>
<pdfrwt beam="2">  1        1 0.28151290E-02 0.90670681E+02</pdfrwt>
<pdfrwt beam="1">  1       -1 0.17280199E-01 0.90670681E+02</pdfrwt>
<totfact> 0.80731942E+04</totfact>
</mgrwt>
</event>
<event>
 7    1  0.3607059E-009  0.9216429E+02  0.7818608E-02  0.1297694E+00
          1   -1    0    0  501    0  0.00000000000E+00  0.00000000000E+00  0.13812018119E+03  0.13812018128E+03  0.50400000000E-02 0. -1.
         -1   -1    0    0    0  501 -0.00000000000E+00 -0.00000000000E+00 -0.15374753931E+02  0.15374754757E+02  0.50400000000E-02 0.  1.
         23    2    1    2    0    0  0.34694469520E-17  0.35527136788E-14  0.12274542726E+03  0.15349493604E+03  0.92164285253E+02 0.  0.
    9000005    2    3    3    0    0 -0.28650250474E-01 -0.30066739537E+02  0.11951252048E+03  0.12325487431E+03  0.21241092422E+01 0.  0.
         22    1    3    3    0    0  0.28650250474E-01  0.30066739537E+02  0.32329067712E+01  0.30240061730E+02  0.00000000000E+00 0.  1.
         22    1    4    4    0    0 -0.26677775362E+00 -0.78946413138E+01  0.35197363586E+02  0.36072855934E+02  0.00000000000E+00 0.  1.
         22    1    4    4    0    0  0.23812750314E+00 -0.22172098224E+02  0.84315156898E+02  0.87182018371E+02  0.00000000000E+00 0.  1.
<mgrwt>
<rscale>  0 0.92164285E+02</rscale>
<asrwt>0</asrwt>
<pdfrwt beam="1">  1        1 0.21249259E-01 0.92164285E+02</pdfrwt>
<pdfrwt beam="2">  1       -1 0.23653468E-02 0.92164285E+02</pdfrwt>
<totfact> 0.10728545E+05</totfact>
</mgrwt>
</event>
<event>
 7    1  0.3607059E-009  0.8715459E+02  0.7818608E-02  0.1309892E+00
         -1   -1    0    0    0  501 -0.00000000000E+00  0.00000000000E+00  0.14940086920E+02  0.14940087770E+02  0.50400000000E-02 0.  1.
          1   -1    0    0  501    0  0.00000000000E+00 -0.00000000000E+00 -0.12710639385E+03  0.12710639395E+03  0.50400000000E-02 0. -1.
         23    2    1    2    0    0 -0.35527136788E-14  0.71054273576E-14 -0.11216630693E+03  0.14204648172E+03  0.87154590005E+02 0.  0.
    9000005    2    3    3    0    0 -0.23340227455E+02  0.36573563851E+02 -0.62572747189E+02  0.76153288156E+02  0.12581000272E+01 0.  0.
         22    1    3    3    0    0  0.23340227455E+02 -0.36573563851E+02 -0.49593559743E+02  0.65893193567E+02  0.00000000000E+00 0. -1.
         22    1    4    4    0    0 -0.23107568196E+02  0.35992592603E+02 -0.61495086508E+02  0.74907089751E+02  0.00000000000E+00 0. -1.
         22    1    4    4    0    0 -0.23265925941E+00  0.58097124835E+00 -0.10776606805E+01  0.12461984050E+01  0.00000000000E+00 0. -1.
<mgrwt>
<rscale>  0 0.87154590E+02</rscale>
<asrwt>0</asrwt>
<pdfrwt beam="2">  1        1 0.19554829E-01 0.87154590E+02</pdfrwt>
<pdfrwt beam="1">  1       -1 0.22984751E-02 0.87154590E+02</pdfrwt>
<totfact> 0.12292403E+05</totfact>
</mgrwt>
</event>
<event>
 7    1  0.3607059E-009  0.9454388E+02  0.7818608E-02  0.1292207E+00
         -1   -1    0    0    0  501 -0.00000000000E+00  0.00000000000E+00  0.94611178469E+02  0.94611178603E+02  0.50400000000E-02 0.  1.
          1   -1    0    0  501    0  0.00000000000E+00 -0.00000000000E+00 -0.23619155580E+02  0.23619156118E+02  0.50400000000E-02 0. -1.
         23    2    1    2    0    0  0.00000000000E+00  0.00000000000E+00  0.70992022889E+02  0.11823033472E+03  0.94543877298E+02 0.  0.
    9000005    2    3    3    0    0 -0.36955012938E+02 -0.24945451649E+02  0.18333931107E+02  0.49231616115E+02  0.99835092113E+01 0.  0.
         22    1    3    3    0    0  0.36955012938E+02  0.24945451649E+02  0.52658091782E+02  0.68998718607E+02  0.00000000000E+00 0.  1.
         22    1    4    4    0    0 -0.31210873321E+02 -0.24621571343E+02  0.17434183439E+02  0.43408422467E+02  0.00000000000E+00 0.  1.
         22    1    4    4    0    0 -0.57441396174E+01 -0.32388030587E+00  0.89974766861E+00  0.58231936481E+01  0.00000000000E+00 0.  1.
<mgrwt>
<rscale>  0 0.94543877E+02</rscale>
<asrwt>0</asrwt>
<pdfrwt beam="2">  1        1 0.36337163E-02 0.94543877E+02</pdfrwt>
<pdfrwt beam="1">  1       -1 0.14555566E-01 0.94543877E+02</pdfrwt>
<totfact> 0.74873115E+04</totfact>
</mgrwt>
</event>
<event>
 7    1  0.3607059E-009  0.9226617E+02  0.7818608E-02  0.1297455E+00
          1   -1    0    0  501    0  0.00000000000E+00  0.00000000000E+00  0.47430366955E+02  0.47430367223E+02  0.50400000000E-02 0. -1.
         -1   -1    0    0    0  501 -0.00000000000E+00 -0.00000000000E+00 -0.44871283169E+02  0.44871283452E+02  0.50400000000E-02 0.  1.
         23    2    1    2    0    0  0.00000000000E+00  0.00000000000E+00  0.25590837864E+01  0.92301650675E+02  0.92266168271E+02 0.  0.
    9000005    2    3    3    0    0 -0.33667668333E+02 -0.17227741506E+02  0.27400647154E+02  0.47053333149E+02  0.57370486832E+01 0.  0.
         22    1    3    3    0    0  0.33667668333E+02  0.17227741506E+02 -0.24841563368E+02  0.45248317526E+02  0.00000000000E+00 0.  1.
         22    1    4    4    0    0 -0.42867236806E+01 -0.25934574318E+01  0.62289121755E+01  0.79938331390E+01  0.00000000000E+00 0.  1.
         22    1    4    4    0    0 -0.29380944652E+02 -0.14634284074E+02  0.21171734979E+02  0.39059500010E+02  0.00000000000E+00 0.  1.
<mgrwt>
<rscale>  0 0.92266168E+02</rscale>
<asrwt>0</asrwt>
<pdfrwt beam="1">  1        1 0.72969796E-02 0.92266168E+02</pdfrwt>
<pdfrwt beam="2">  1       -1 0.69032744E-02 0.92266168E+02</pdfrwt>
<totfact> 0.89973881E+04</totfact>
</mgrwt>
</event>
<event>
 7    1  0.3607059E-009  0.9294387E+02  0.7818608E-02  0.1295875E+00
         -1   -1    0    0    0  501 -0.00000000000E+00  0.00000000000E+00  0.16462189281E+03  0.16462189289E+03  0.50400000000E-02 0.  1.
          1   -1    0    0  501    0  0.00000000000E+00 -0.00000000000E+00 -0.13118794090E+02  0.13118795058E+02  0.50400000000E-02 0. -1.
         23    2    1    2    0    0  0.00000000000E+00  0.17763568394E-14  0.15150309872E+03  0.17774068795E+03  0.92943871392E+02 0.  0.
    9000005    2    3    3    0    0 -0.25148363637E+02 -0.13759935364E+02  0.10185800210E+02  0.33545144071E+02  0.14133299332E+02 0.  0.
         22    1    3    3    0    0  0.25148363637E+02  0.13759935364E+02  0.14131729851E+03  0.14419554387E+03  0.00000000000E+00 0.  1.
         22    1    4    4    0    0 -0.22148516216E+02 -0.59766550878E+01  0.10429452225E+02  0.25200211315E+02  0.00000000000E+00 0. -1.
         22    1    4    4    0    0 -0.29998474208E+01 -0.77832802759E+01 -0.24365201476E+00  0.83449327562E+01  0.00000000000E+00 0. -1.
<mgrwt>
<rscale>  0 0.92943871E+02</rscale>
<asrwt>0</asrwt>
<pdfrwt beam="2">  1        1 0.20182763E-02 0.92943871E+02</pdfrwt>
<pdfrwt beam="1">  1       -1 0.25326443E-01 0.92943871E+02</pdfrwt>
<totfact> 0.69564545E+04</totfact>
</mgrwt>
</event>
<event>
 7    1  0.3607059E-009  0.8749980E+02  0.7818608E-02  0.1309022E+00
          1   -1    0    0  501    0  0.00000000000E+00  0.00000000000E+00  0.13473730272E+02  0.13473731215E+02  0.50400000000E-02 0. -1.
         -1   -1    0    0    0  501 -0.00000000000E+00 -0.00000000000E+00 -0.14205817830E+03  0.14205817839E+03  0.50400000000E-02 0.  1.
         23    2    1    2    0    0  0.00000000000E+00  0.00000000000E+00 -0.12858444803E+03  0.15553190960E+03  0.87499797888E+02 0.  0.
    9000005    2    3    3    0    0  0.27131506742E+02 -0.21654047418E+02 -0.21075286785E+02  0.42557416116E+02  0.12725939090E+02 0.  0.
         22    1    3    3    0    0 -0.27131506742E+02  0.21654047418E+02 -0.10750916124E+03  0.11297449349E+03  0.00000000000E+00 0. -1.
         22    1    4    4    0    0  0.15150176586E+02 -0.18882851932E+02 -0.17076611860E+02  0.29626012561E+02  0.00000000000E+00 0.  1.
         22    1    4    4    0    0  0.11981330156E+02 -0.27711954865E+01 -0.39986749245E+01  0.12931403555E+02  0.00000000000E+00 0.  1.
<mgrwt>
<rscale>  0 0.87499798E+02</rscale>
<asrwt>0</asrwt>
<pdfrwt beam="1">  1        1 0.20728817E-02 0.87499798E+02</pdfrwt>
<pdfrwt beam="2">  1       -1 0.21855104E-01 0.87499798E+02</pdfrwt>
<totfact> 0.84246067E+04</totfact>
</mgrwt>
</event>
<event>
 7    1  0.3607059E-009  0.8999129E+02  0.7818608E-02  0.1302873E+00
         -1   -1    0    0    0  501 -0.00000000000E+00  0.00000000000E+00  0.13052991234E+03  0.13052991243E+03  0.50400000000E-02 0.  1.
          1   -1    0    0  501    0  0.00000000000E+00 -0.00000000000E+00 -0.15510682265E+02  0.15510683084E+02  0.50400000000E-02 0. -1.
         23    2    1    2    0    0  0.00000000000E+00  0.00000000000E+00  0.11501923007E+03  0.14604059552E+03  0.89991289873E+02 0.  0.
    9000005    2    3    3    0    0  0.20573839394E+02  0.24336352138E+02  0.73169766116E+01  0.33722670399E+02  0.82546622742E+01 0.  0.
         22    1    3    3    0    0 -0.20573839394E+02 -0.24336352138E+02  0.10770225346E+03  0.11231792512E+03  0.00000000000E+00 0.  1.
         22    1    4    4    0    0  0.34983742793E+00  0.19518659227E+01 -0.12725837816E+01  0.23561910549E+01  0.00000000000E+00 0. -1.
         22    1    4    4    0    0  0.20224001967E+02  0.22384486215E+02  0.85895603932E+01  0.31366479344E+02  0.00000000000E+00 0. -1.
<mgrwt>
<rscale>  0 0.89991290E+02</rscale>
<asrwt>0</asrwt>
<pdfrwt beam="2">  1        1 0.23862588E-02 0.89991290E+02</pdfrwt>
<pdfrwt beam="1">  1       -1 0.20081526E-01 0.89991290E+02</pdfrwt>
<totfact> 0.79814222E+04</totfact>
</mgrwt>
</event>
<event>
 7    1  0.3607059E-009  0.8905423E+02  0.7818608E-02  0.1305158E+00
          1   -1    0    0  501    0  0.00000000000E+00  0.00000000000E+00  0.26211660159E+03  0.26211660164E+03  0.50400000000E-02 0. -1.
         -1   -1    0    0    0  501 -0.00000000000E+00 -0.00000000000E+00 -0.75640523758E+01  0.75640540549E+01  0.50400000000E-02 0.  1.
         23    2    1    2    0    0  0.44408920985E-15  0.00000000000E+00  0.25455254922E+03  0.26968065570E+03  0.89054229230E+02 0.  0.
    9000005    2    3    3    0    0 -0.22849548417E+01  0.40381181856E+02  0.81132509245E+02  0.91606594894E+02  0.13169028246E+02 0.  0.
         22    1    3    3    0    0  0.22849548417E+01 -0.40381181856E+02  0.17342003997E+03  0.17807406080E+03  0.00000000000E+00 0. -1.
         22    1    4    4    0    0  0.43982144207E+01  0.25694714108E+02  0.44414387676E+02  0.51499518986E+02  0.00000000000E+00 0.  1.
         22    1    4    4    0    0 -0.66831692623E+01  0.14686467748E+02  0.36718121569E+02  0.40107075907E+02  0.00000000000E+00 0.  1.
<mgrwt>
<rscale>  0 0.89054229E+02</rscale>
<asrwt>0</asrwt>
<pdfrwt beam="1">  1        1 0.40325629E-01 0.89054229E+02</pdfrwt>
<pdfrwt beam="2">  1       -1 0.11637006E-02 0.89054229E+02</pdfrwt>
<totfact> 0.13290354E+05</totfact>
</mgrwt>
</event>
<event>
 7    1  0.3607059E-009  0.9118339E+02  0.7818608E-02  0.1300011E+00
          1   -1    0    0  501    0  0.00000000000E+00  0.00000000000E+00  0.60849031727E+02  0.60849031935E+02  0.50400000000E-02 0. -1.
         -1   -1    0    0    0  501 -0.00000000000E+00 -0.00000000000E+00 -0.34159993779E+02  0.34159994151E+02  0.50400000000E-02 0.  1.
         23    2    1    2    0    0  0.00000000000E+00  0.00000000000E+00  0.26689037948E+02  0.95009026086E+02  0.91183388242E+02 0.  0.
    9000005    2    3    3    0    0  0.34675417201E+02 -0.18675837678E+02 -0.97783925513E+01  0.41333659685E+02  0.78538519869E+01 0.  0.
         22    1    3    3    0    0 -0.34675417201E+02  0.18675837678E+02  0.36467430499E+02  0.53675366401E+02  0.00000000000E+00 0.  1.
         22    1    4    4    0    0  0.25473012454E+02 -0.10371784645E+02 -0.88983015099E+01  0.28907231793E+02  0.00000000000E+00 0. -1.
         22    1    4    4    0    0  0.92024047476E+01 -0.83040530330E+01 -0.88009104132E+00  0.12426427892E+02  0.00000000000E+00 0. -1.
<mgrwt>
<rscale>  0 0.91183388E+02</rscale>
<asrwt>0</asrwt>
<pdfrwt beam="1">  1        1 0.93613895E-02 0.91183388E+02</pdfrwt>
<pdfrwt beam="2">  1       -1 0.52553837E-02 0.91183388E+02</pdfrwt>
<totfact> 0.96557319E+04</totfact>
</mgrwt>
</event>
<event>
 7    1  0.3607059E-009  0.1004505E+03  0.7818608E-02  0.1279352E+00
          1   -1    0    0  501    0  0.00000000000E+00  0.00000000000E+00  0.19112285876E+03  0.19112285883E+03  0.50400000000E-02 0. -1.
         -1   -1    0    0    0  501 -0.00000000000E+00 -0.00000000000E+00 -0.13198701222E+02  0.13198702185E+02  0.50400000000E-02 0.  1.
         23    2    1    2    0    0  0.00000000000E+00  0.00000000000E+00  0.17792415754E+03  0.20432156102E+03  0.10045045773E+03 0.  0.
    9000005    2    3    3    0    0  0.47122542625E+02  0.12525698867E+02  0.73203116653E+02  0.88805659251E+02  0.12260573878E+02 0.  0.
         22    1    3    3    0    0 -0.47122542625E+02 -0.12525698867E+02  0.10472104089E+03  0.11551590176E+03  0.00000000000E+00 0. -1.
         22    1    4    4    0    0  0.15266056416E+02  0.72852646752E+01  0.34355177597E+02  0.38293678167E+02  0.00000000000E+00 0.  1.
         22    1    4    4    0    0  0.31856486209E+02  0.52404341917E+01  0.38847939056E+02  0.50511981084E+02  0.00000000000E+00 0.  1.
<mgrwt>
<rscale>  0 0.10045046E+03</rscale>
<asrwt>0</asrwt>
<pdfrwt beam="1">  1        1 0.29403515E-01 0.10045046E+03</pdfrwt>
<pdfrwt beam="2">  1       -1 0.20305696E-02 0.10045046E+03</pdfrwt>
<totfact> 0.90358916E+04</totfact>
</mgrwt>
</event>
<event>
 7    1  0.3607059E-009  0.8981257E+02  0.7818608E-02  0.1303306E+00
         -1   -1    0    0    0  501 -0.00000000000E+00  0.00000000000E+00  0.10075673744E+02  0.10075675005E+02  0.50400000000E-02 0.  1.
          1   -1    0    0  501    0  0.00000000000E+00 -0.00000000000E+00 -0.20014287729E+03  0.20014287735E+03  0.50400000000E-02 0. -1.
         23    2    1    2    0    0  0.00000000000E+00  0.00000000000E+00 -0.19006720354E+03  0.21021855236E+03  0.89812570900E+02 0.  0.
    9000005    2    3    3    0    0 -0.39300203852E+02 -0.20117278426E+02 -0.90041811300E+02  0.10088287653E+03  0.10982535288E+02 0.  0.
         22    1    3    3    0    0  0.39300203852E+02  0.20117278426E+02 -0.10002539224E+03  0.10933567582E+03  0.00000000000E+00 0.  1.
         22    1    4    4    0    0 -0.33675355911E+02 -0.20206080202E+02 -0.83363814896E+02  0.92151185054E+02  0.00000000000E+00 0.  1.
         22    1    4    4    0    0 -0.56248479413E+01  0.88801776027E-01 -0.66779964044E+01  0.87316914796E+01  0.00000000000E+00 0.  1.
<mgrwt>
<rscale>  0 0.89812571E+02</rscale>
<asrwt>0</asrwt>
<pdfrwt beam="2">  1        1 0.30791209E-01 0.89812571E+02</pdfrwt>
<pdfrwt beam="1">  1       -1 0.15501039E-02 0.89812571E+02</pdfrwt>
<totfact> 0.12330127E+05</totfact>
</mgrwt>
</event>
<event>
 7    1  0.3607059E-009  0.8988332E+02  0.7818608E-02  0.1303135E+00
          1   -1    0    0  501    0  0.00000000000E+00  0.00000000000E+00  0.87902231556E+03  0.87902231558E+03  0.50400000000E-02 0. -1.
         -1   -1    0    0    0  501 -0.00000000000E+00 -0.00000000000E+00 -0.22977235087E+01  0.22977290362E+01  0.50400000000E-02 0.  1.
         23    2    1    2    0    0  0.00000000000E+00  0.00000000000E+00  0.87672459205E+03  0.88132004461E+03  0.89883317279E+02 0.  0.
    9000005    2    3    3    0    0 -0.38108849703E+01  0.16057237942E+02  0.84806822706E+03  0.84825125284E+03  0.61735292307E+01 0.  0.
         22    1    3    3    0    0  0.38108849703E+01 -0.16057237942E+02  0.28656364992E+02  0.33068791770E+02  0.00000000000E+00 0.  1.
         22    1    4    4    0    0 -0.16857304083E+01  0.75677173778E+01  0.25326023400E+03  0.25337888262E+03  0.00000000000E+00 0. -1.
         22    1    4    4    0    0 -0.21251545620E+01  0.84895205644E+01  0.59480799307E+03  0.59487237022E+03  0.00000000000E+00 0. -1.
<mgrwt>
<rscale>  0 0.89883317E+02</rscale>
<asrwt>0</asrwt>
<pdfrwt beam="1">  1        1 0.13523407E+00 0.89883317E+02</pdfrwt>
<pdfrwt beam="2">  1       -1 0.35349669E-03 0.89883317E+02</pdfrwt>
<totfact> 0.14508841E+05</totfact>
</mgrwt>
</event>
<event>
 7    1  0.3607059E-009  0.8704763E+02  0.7818608E-02  0.1310163E+00
          1   -1    0    0  501    0  0.00000000000E+00  0.00000000000E+00  0.85550743599E+01  0.85550758445E+01  0.50400000000E-02 0. -1.
         -1   -1    0    0    0  501 -0.00000000000E+00 -0.00000000000E+00 -0.22142672318E+03  0.22142672324E+03  0.50400000000E-02 0.  1.
         23    2    1    2    0    0  0.00000000000E+00  0.88817841970E-15 -0.21287164882E+03  0.22998179908E+03  0.87047625112E+02 0.  0.
    9000005    2    3    3    0    0 -0.22829051403E+02  0.73963713848E+01 -0.20176726825E+03  0.20353980284E+03  0.11939384630E+02 0.  0.
         22    1    3    3    0    0  0.22829051403E+02 -0.73963713848E+01 -0.11104380577E+02  0.26441996249E+02  0.00000000000E+00 0. -1.
         22    1    4    4    0    0 -0.42118104177E+00  0.26951102737E+01 -0.86473769669E+01  0.90674219746E+01  0.00000000000E+00 0. -1.
         22    1    4    4    0    0 -0.22407870362E+02  0.47012611111E+01 -0.19311989128E+03  0.19447238086E+03  0.00000000000E+00 0. -1.
<mgrwt>
<rscale>  0 0.87047625E+02</rscale>
<asrwt>0</asrwt>
<pdfrwt beam="1">  1        1 0.13161656E-02 0.87047625E+02</pdfrwt>
<pdfrwt beam="2">  1       -1 0.34065645E-01 0.87047625E+02</pdfrwt>
<totfact> 0.75992465E+04</totfact>
</mgrwt>
</event>
<event>
 7    1  0.3607059E-009  0.9113576E+02  0.7818608E-02  0.1300124E+00
         -1   -1    0    0    0  501 -0.00000000000E+00  0.00000000000E+00  0.58808315717E+01  0.58808337314E+01  0.50400000000E-02 0.  1.
          1   -1    0    0  501    0  0.00000000000E+00 -0.00000000000E+00 -0.35308461058E+03  0.35308461061E+03  0.50400000000E-02 0. -1.
         23    2    1    2    0    0  0.35527136788E-14  0.00000000000E+00 -0.34720377901E+03  0.35896544435E+03  0.91135756308E+02 0.  0.
    9000005    2    3    3    0    0  0.31786879740E+02 -0.24238478916E+02 -0.25753850353E+03  0.26079329345E+03  0.94420086896E+01 0.  0.
         22    1    3    3    0    0 -0.31786879740E+02  0.24238478916E+02 -0.89665275479E+02  0.98172150890E+02  0.00000000000E+00 0.  1.
         22    1    4    4    0    0  0.11536237384E+02 -0.14128036287E+02 -0.10228340307E+03  0.10389697169E+03  0.00000000000E+00 0. -1.
         22    1    4    4    0    0  0.20250642357E+02 -0.10110442629E+02 -0.15525510046E+03  0.15689632176E+03  0.00000000000E+00 0. -1.
<mgrwt>
<rscale>  0 0.91135756E+02</rscale>
<asrwt>0</asrwt>
<pdfrwt beam="2">  1        1 0.54320693E-01 0.91135756E+02</pdfrwt>
<pdfrwt beam="1">  1       -1 0.90474376E-03 0.91135756E+02</pdfrwt>
<totfact> 0.13219711E+05</totfact>
</mgrwt>
</event>
<event>
 7    1  0.3607059E-009  0.8957799E+02  0.7818608E-02  0.1303877E+00
         -1   -1    0    0    0  501 -0.00000000000E+00  0.00000000000E+00  0.88432164685E+02  0.88432164828E+02  0.50400000000E-02 0.  1.
          1   -1    0    0  501    0  0.00000000000E+00 -0.00000000000E+00 -0.22684666881E+02  0.22684667441E+02  0.50400000000E-02 0. -1.
         23    2    1    2    0    0 -0.35527136788E-14  0.44408920985E-15  0.65747497804E+02  0.11111683227E+03  0.89577993648E+02 0.  0.
    9000005    2    3    3    0    0  0.29685476149E+02 -0.35561449101E+01  0.73059017504E+02  0.80338073665E+02  0.14923551211E+02 0.  0.
         22    1    3    3    0    0 -0.29685476149E+02  0.35561449101E+01 -0.73115197002E+01  0.30778758603E+02  0.00000000000E+00 0. -1.
         22    1    4    4    0    0  0.30893876547E+02 -0.14477501472E+01  0.66400078680E+02  0.73249559980E+02  0.00000000000E+00 0.  1.
         22    1    4    4    0    0 -0.12084003979E+01 -0.21083947630E+01  0.66589388246E+01  0.70885136854E+01  0.00000000000E+00 0.  1.
<mgrwt>
<rscale>  0 0.89577994E+02</rscale>
<asrwt>0</asrwt>
<pdfrwt beam="2">  1        1 0.34899487E-02 0.89577994E+02</pdfrwt>
<pdfrwt beam="1">  1       -1 0.13604949E-01 0.89577994E+02</pdfrwt>
<totfact> 0.87061403E+04</totfact>
</mgrwt>
</event>
<event>
 7    1  0.3607059E-009  0.9275731E+02  0.7818608E-02  0.1296309E+00
         -1   -1    0    0    0  501 -0.00000000000E+00  0.00000000000E+00  0.78797386118E+01  0.78797402236E+01  0.50400000000E-02 0.  1.
          1   -1    0    0  501    0  0.00000000000E+00 -0.00000000000E+00 -0.27297596232E+03  0.27297596237E+03  0.50400000000E-02 0. -1.
         23    2    1    2    0    0  0.00000000000E+00  0.00000000000E+00 -0.26509622371E+03  0.28085570259E+03  0.92757306198E+02 0.  0.
    9000005    2    3    3    0    0 -0.37808674005E+02  0.15536793683E+02 -0.75324369676E+02  0.86731401250E+02  0.13329947777E+02 0.  0.
         22    1    3    3    0    0  0.37808674005E+02 -0.15536793683E+02 -0.18977185403E+03  0.19412430134E+03  0.00000000000E+00 0.  1.
         22    1    4    4    0    0 -0.22852191505E+02  0.99885575530E+01 -0.58249993541E+02  0.63364467063E+02  0.00000000000E+00 0. -1.
         22    1    4    4    0    0 -0.14956482500E+02  0.55482361300E+01 -0.17074376135E+02  0.23366934187E+02  0.00000000000E+00 0. -1.
<mgrwt>
<rscale>  0 0.92757306E+02</rscale>
<asrwt>0</asrwt>
<pdfrwt beam="2">  1        1 0.41996295E-01 0.92757306E+02</pdfrwt>
<pdfrwt beam="1">  1       -1 0.12122678E-02 0.92757306E+02</pdfrwt>
<totfact> 0.12016385E+05</totfact>
</mgrwt>
</event>
<event>
 7    1  0.4993973E-009  0.8532722E+02  0.7818608E-02  0.1314579E+00
         -1   -1    0    0    0  501 -0.00000000000E+00  0.00000000000E+00  0.40718556815E+01  0.40718588007E+01  0.50400000000E-02 0.  1.
          1   -1    0    0  501    0  0.00000000000E+00 -0.00000000000E+00 -0.44701553076E+03  0.44701553079E+03  0.50400000000E-02 0. -1.
         23    2    1    2    0    0 -0.17763568394E-14  0.00000000000E+00 -0.44294367508E+03  0.45108738959E+03  0.85327215789E+02 0.  0.
    9000005    2    3    3    0    0 -0.13548403054E+02 -0.18163069854E+02 -0.41095896179E+03  0.41188945322E+03  0.15880713523E+02 0.  0.
         22    1    3    3    0    0  0.13548403054E+02  0.18163069854E+02 -0.31984713285E+02  0.39197936372E+02  0.00000000000E+00 0.  1.
         22    1    4    4    0    0 -0.14423478832E+02 -0.80252329446E+01 -0.19768309965E+03  0.19837098828E+03  0.00000000000E+00 0. -1.
         22    1    4    4    0    0  0.87507577836E+00 -0.10137836910E+02 -0.21327586215E+03  0.21351846494E+03  0.00000000000E+00 0. -1.
<mgrwt>
<rscale>  0 0.85327216E+02</rscale>
<asrwt>0</asrwt>
<pdfrwt beam="2">  1        1 0.68771582E-01 0.85327216E+02</pdfrwt>
<pdfrwt beam="1">  1       -1 0.62643993E-03 0.85327216E+02</pdfrwt>
<totfact> 0.16351015E+05</totfact>
</mgrwt>
</event>
<event>
 7    1  0.3607059E-009  0.9152286E+02  0.7818608E-02  0.1299205E+00
          1   -1    0    0  501    0  0.00000000000E+00  0.00000000000E+00  0.14830720628E+03  0.14830720636E+03  0.50400000000E-02 0. -1.
         -1   -1    0    0    0  501 -0.00000000000E+00 -0.00000000000E+00 -0.14120070458E+02  0.14120071357E+02  0.50400000000E-02 0.  1.
         23    2    1    2    0    0  0.00000000000E+00  0.00000000000E+00  0.13418713582E+03  0.16242727772E+03  0.91522855768E+02 0.  0.
    9000005    2    3    3    0    0  0.76034605478E+01  0.43997280259E+02  0.84054768176E+02  0.95294367995E+02  0.47158494498E+01 0.  0.
         22    1    3    3    0    0 -0.76034605478E+01 -0.43997280259E+02  0.50132367642E+02  0.67132909723E+02  0.00000000000E+00 0.  1.
         22    1    4    4    0    0  0.63613001942E+01  0.41826260523E+02  0.77824950461E+02  0.88581178157E+02  0.00000000000E+00 0. -1.
         22    1    4    4    0    0  0.12421603536E+01  0.21710197358E+01  0.62298177155E+01  0.67131898383E+01  0.00000000000E+00 0. -1.
<mgrwt>
<rscale>  0 0.91522856E+02</rscale>
<asrwt>0</asrwt>
<pdfrwt beam="1">  1        1 0.22816493E-01 0.91522856E+02</pdfrwt>
<pdfrwt beam="2">  1       -1 0.21723187E-02 0.91522856E+02</pdfrwt>
<totfact> 0.11076009E+05</totfact>
</mgrwt>
</event>
<event>
 7    1  0.3607059E-009  0.9153977E+02  0.7818608E-02  0.1299165E+00
         -1   -1    0    0    0  501 -0.00000000000E+00  0.00000000000E+00  0.25345390030E+03  0.25345390035E+03  0.50400000000E-02 0.  1.
          1   -1    0    0  501    0  0.00000000000E+00 -0.00000000000E+00 -0.82653374511E+01  0.82653389878E+01  0.50400000000E-02 0. -1.
         23    2    1    2    0    0  0.00000000000E+00  0.00000000000E+00  0.24518856284E+03  0.26171923933E+03  0.91539766700E+02 0.  0.
    9000005    2    3    3    0    0 -0.43619700838E+01 -0.35587009698E+02  0.44692751085E+02  0.58042945732E+02  0.92779042593E+01 0.  0.
         22    1    3    3    0    0  0.43619700838E+01  0.35587009698E+02  0.20049581176E+03  0.20367629360E+03  0.00000000000E+00 0.  1.
         22    1    4    4    0    0 -0.60544620999E+01 -0.33677530070E+02  0.39518398773E+02  0.52273668176E+02  0.00000000000E+00 0.  1.
         22    1    4    4    0    0  0.16924920161E+01 -0.19094796275E+01  0.51743523119E+01  0.57692775562E+01  0.00000000000E+00 0.  1.
<mgrwt>
<rscale>  0 0.91539767E+02</rscale>
<asrwt>0</asrwt>
<pdfrwt beam="2">  1        1 0.12715906E-02 0.91539767E+02</pdfrwt>
<pdfrwt beam="1">  1       -1 0.38992906E-01 0.91539767E+02</pdfrwt>
<totfact> 0.63797048E+04</totfact>
</mgrwt>
</event>
<event>
 7    1  0.3607059E-009  0.9150535E+02  0.7818608E-02  0.1299247E+00
          1   -1    0    0  501    0  0.00000000000E+00  0.00000000000E+00  0.11496724053E+03  0.11496724064E+03  0.50400000000E-02 0. -1.
         -1   -1    0    0    0  501 -0.00000000000E+00 -0.00000000000E+00 -0.18207857128E+02  0.18207857826E+02  0.50400000000E-02 0.  1.
         23    2    1    2    0    0 -0.17763568394E-14  0.00000000000E+00  0.96759383402E+02  0.13317509847E+03  0.91505347250E+02 0.  0.
    9000005    2    3    3    0    0 -0.15055622535E+02 -0.16336079909E+02 -0.93512968019E+01  0.24763771891E+02  0.56796452053E+01 0.  0.
         22    1    3    3    0    0  0.15055622535E+02  0.16336079909E+02  0.10611068020E+03  0.10841132658E+03  0.00000000000E+00 0. -1.
         22    1    4    4    0    0 -0.82456927419E+01 -0.96060797240E+01 -0.82861015601E+01  0.15130356755E+02  0.00000000000E+00 0.  1.
         22    1    4    4    0    0 -0.68099297933E+01 -0.67300001850E+01 -0.10651952418E+01  0.96334151360E+01  0.00000000000E+00 0.  1.
<mgrwt>
<rscale>  0 0.91505347E+02</rscale>
<asrwt>0</asrwt>
<pdfrwt beam="1">  1        1 0.17687268E-01 0.91505347E+02</pdfrwt>
<pdfrwt beam="2">  1       -1 0.28012088E-02 0.91505347E+02</pdfrwt>
<totfact> 0.10590362E+05</totfact>
</mgrwt>
</event>
<event>
 7    1  0.3607059E-009  0.8973929E+02  0.7818608E-02  0.1303484E+00
         -1   -1    0    0    0  501 -0.00000000000E+00  0.00000000000E+00  0.18792978721E+02  0.18792979397E+02  0.50400000000E-02 0.  1.
          1   -1    0    0  501    0  0.00000000000E+00 -0.00000000000E+00 -0.10712963462E+03  0.10712963474E+03  0.50400000000E-02 0. -1.
         23    2    1    2    0    0  0.71054273576E-14 -0.35527136788E-14 -0.88336655899E+02  0.12592261414E+03  0.89739288917E+02 0.  0.
    9000005    2    3    3    0    0  0.32889441424E+02 -0.25128822150E+02 -0.67394256358E+02  0.79535577602E+02  0.84112576097E+01 0.  0.
         22    1    3    3    0    0 -0.32889441424E+02  0.25128822150E+02 -0.20942399542E+02  0.46387036534E+02  0.00000000000E+00 0.  1.
         22    1    4    4    0    0  0.12513033654E+02 -0.99101061331E+01 -0.18591927871E+02  0.24503999608E+02  0.00000000000E+00 0. -1.
         22    1    4    4    0    0  0.20376407770E+02 -0.15218716017E+02 -0.48802328486E+02  0.55031577994E+02  0.00000000000E+00 0. -1.
<mgrwt>
<rscale>  0 0.89739289E+02</rscale>
<asrwt>0</asrwt>
<pdfrwt beam="2">  1        1 0.16481482E-01 0.89739289E+02</pdfrwt>
<pdfrwt beam="1">  1       -1 0.28912276E-02 0.89739289E+02</pdfrwt>
<totfact> 0.11032530E+05</totfact>
</mgrwt>
</event>
<event>
 7    1  0.3607059E-009  0.8923440E+02  0.7818608E-02  0.1304716E+00
          1   -1    0    0  501    0  0.00000000000E+00  0.00000000000E+00  0.12544688699E+03  0.12544688709E+03  0.50400000000E-02 0. -1.
         -1   -1    0    0    0  501 -0.00000000000E+00 -0.00000000000E+00 -0.15868823888E+02  0.15868824689E+02  0.50400000000E-02 0.  1.
         23    2    1    2    0    0  0.00000000000E+00  0.00000000000E+00  0.10957806310E+03  0.14131571178E+03  0.89234401900E+02 0.  0.
    9000005    2    3    3    0    0  0.33681035084E+01  0.28591734023E+02  0.10858348187E+03  0.11250910546E+03  0.62525914455E+01 0.  0.
         22    1    3    3    0    0 -0.33681035084E+01 -0.28591734023E+02  0.99458122432E+00  0.28806606317E+02  0.00000000000E+00 0.  1.
         22    1    4    4    0    0  0.24038706082E+01  0.94399377063E+01  0.27037614877E+02  0.28738887175E+02  0.00000000000E+00 0.  1.
         22    1    4    4    0    0  0.96423290021E+00  0.19151796317E+02  0.81545866996E+02  0.83770218284E+02  0.00000000000E+00 0.  1.
<mgrwt>
<rscale>  0 0.89234402E+02</rscale>
<asrwt>0</asrwt>
<pdfrwt beam="1">  1        1 0.19299520E-01 0.89234402E+02</pdfrwt>
<pdfrwt beam="2">  1       -1 0.24413577E-02 0.89234402E+02</pdfrwt>
<totfact> 0.11508843E+05</totfact>
</mgrwt>
</event>
<event>
 7    1  0.3607059E-009  0.9087135E+02  0.7818608E-02  0.1300755E+00
         -1   -1    0    0    0  501 -0.00000000000E+00  0.00000000000E+00  0.20041038395E+01  0.20041101769E+01  0.50400000000E-02 0.  1.
          1   -1    0    0  501    0  0.00000000000E+00 -0.00000000000E+00 -0.10300850028E+04  0.10300850028E+04  0.50400000000E-02 0. -1.
         23    2    1    2    0    0  0.00000000000E+00  0.17763568394E-14 -0.10280808989E+04  0.10320891129E+04  0.90871350509E+02 0.  0.
    9000005    2    3    3    0    0 -0.86288992811E+01 -0.12052319495E+02 -0.10011515885E+04  0.10013498211E+04  0.13313324234E+02 0.  0.
         22    1    3    3    0    0  0.86288992811E+01  0.12052319495E+02 -0.26929310381E+02  0.30739291885E+02  0.00000000000E+00 0.  1.
         22    1    4    4    0    0 -0.10566670419E+02 -0.12609703236E+02 -0.96624372629E+03  0.96638377353E+03  0.00000000000E+00 0.  1.
         22    1    4    4    0    0  0.19377711377E+01  0.55738374188E+00 -0.34907862242E+02  0.34966047531E+02  0.00000000000E+00 0.  1.
<mgrwt>
<rscale>  0 0.90871351E+02</rscale>
<asrwt>0</asrwt>
<pdfrwt beam="2">  1        1 0.15847419E+00 0.90871351E+02</pdfrwt>
<pdfrwt beam="1">  1       -1 0.30832498E-03 0.90871351E+02</pdfrwt>
<totfact> 0.13609126E+05</totfact>
</mgrwt>
</event>
<event>
 7    1  0.3607059E-009  0.8943039E+02  0.7818608E-02  0.1304237E+00
          1   -1    0    0  501    0  0.00000000000E+00  0.00000000000E+00  0.17247360240E+02  0.17247360977E+02  0.50400000000E-02 0. -1.
         -1   -1    0    0    0  501 -0.00000000000E+00 -0.00000000000E+00 -0.11592781154E+03  0.11592781165E+03  0.50400000000E-02 0.  1.
         23    2    1    2    0    0  0.00000000000E+00 -0.35527136788E-14 -0.98680451297E+02  0.13317517262E+03  0.89430392681E+02 0.  0.
    9000005    2    3    3    0    0  0.27361436155E+02 -0.30687570374E+02 -0.75178533115E+02  0.85817857220E+02  0.47452726612E+01 0.  0.
         22    1    3    3    0    0 -0.27361436155E+02  0.30687570374E+02 -0.23501918182E+02  0.47357315403E+02  0.00000000000E+00 0.  1.
         22    1    4    4    0    0  0.66761062804E+01 -0.69705179024E+01 -0.13780893566E+02  0.16824730083E+02  0.00000000000E+00 0.  1.
         22    1    4    4    0    0  0.20685329875E+02 -0.23717052472E+02 -0.61397639549E+02  0.68993127137E+02  0.00000000000E+00 0.  1.
<mgrwt>
<rscale>  0 0.89430393E+02</rscale>
<asrwt>0</asrwt>
<pdfrwt beam="1">  1        1 0.26534402E-02 0.89430393E+02</pdfrwt>
<pdfrwt beam="2">  1       -1 0.17835048E-01 0.89430393E+02</pdfrwt>
<totfact> 0.83128293E+04</totfact>
</mgrwt>
</event>
<event>
 7    1  0.3607059E-009  0.9548196E+02  0.7818608E-02  0.1290094E+00
         -1   -1    0    0    0  501 -0.00000000000E+00  0.00000000000E+00  0.30607970244E+03  0.30607970248E+03  0.50400000000E-02 0.  1.
          1   -1    0    0  501    0  0.00000000000E+00 -0.00000000000E+00 -0.74464296720E+01  0.74464313777E+01  0.50400000000E-02 0. -1.
         23    2    1    2    0    0  0.00000000000E+00  0.00000000000E+00  0.29863327277E+03  0.31352613386E+03  0.95481961692E+02 0.  0.
    9000005    2    3    3    0    0  0.20531520483E+02 -0.37566893929E+02  0.90513859381E+02  0.10104906432E+03  0.13613956311E+02 0.  0.
         22    1    3    3    0    0 -0.20531520483E+02  0.37566893929E+02  0.20811941339E+03  0.21247706954E+03  0.00000000000E+00 0.  1.
         22    1    4    4    0    0  0.11911150689E+02 -0.85843745261E+01  0.30245930484E+02  0.33621173501E+02  0.00000000000E+00 0.  1.
         22    1    4    4    0    0  0.86203697940E+01 -0.28982519403E+02  0.60267928897E+02  0.67427890815E+02  0.00000000000E+00 0.  1.
<mgrwt>
<rscale>  0 0.95481962E+02</rscale>
<asrwt>0</asrwt>
<pdfrwt beam="2">  1        1 0.11456050E-02 0.95481962E+02</pdfrwt>
<pdfrwt beam="1">  1       -1 0.47089175E-01 0.95481962E+02</pdfrwt>
<totfact> 0.53259297E+04</totfact>
</mgrwt>
</event>
<event>
 7    1  0.3607059E-009  0.1022461E+03  0.7818608E-02  0.1275642E+00
         -1   -1    0    0    0  501 -0.00000000000E+00  0.00000000000E+00  0.35725189336E+03  0.35725189339E+03  0.50400000000E-02 0.  1.
          1   -1    0    0  501    0  0.00000000000E+00 -0.00000000000E+00 -0.73157470781E+01  0.73157488142E+01  0.50400000000E-02 0. -1.
         23    2    1    2    0    0  0.00000000000E+00  0.00000000000E+00  0.34993614628E+03  0.36456764221E+03  0.10224607216E+03 0.  0.
    9000005    2    3    3    0    0  0.92148982196E+01 -0.46144742189E+02  0.11789661408E+03  0.12780490002E+03  0.14840123946E+02 0.  0.
         22    1    3    3    0    0 -0.92148982196E+01  0.46144742189E+02  0.23203953220E+03  0.23676274218E+03  0.00000000000E+00 0. -1.
         22    1    4    4    0    0  0.29297275932E+01 -0.26020379553E+02  0.46559004667E+02  0.53417079399E+02  0.00000000000E+00 0.  1.
         22    1    4    4    0    0  0.62851706263E+01 -0.20124362636E+02  0.71337609408E+02  0.74387820625E+02  0.00000000000E+00 0.  1.
<mgrwt>
<rscale>  0 0.10224607E+03</rscale>
<asrwt>0</asrwt>
<pdfrwt beam="2">  1        1 0.11254995E-02 0.10224607E+03</pdfrwt>
<pdfrwt beam="1">  1       -1 0.54961837E-01 0.10224607E+03</pdfrwt>
<totfact> 0.41626160E+04</totfact>
</mgrwt>
</event>
<event>
 7    1  0.3607059E-009  0.9165865E+02  0.7818608E-02  0.1298884E+00
          1   -1    0    0  501    0  0.00000000000E+00  0.00000000000E+00  0.25735048058E+03  0.25735048063E+03  0.50400000000E-02 0. -1.
         -1   -1    0    0    0  501 -0.00000000000E+00 -0.00000000000E+00 -0.81613483126E+01  0.81613498688E+01  0.50400000000E-02 0.  1.
         23    2    1    2    0    0  0.00000000000E+00  0.00000000000E+00  0.24918913227E+03  0.26551183050E+03  0.91658652043E+02 0.  0.
    9000005    2    3    3    0    0 -0.33637335114E+02  0.67628893300E+01  0.21206588831E+03  0.21496143755E+03  0.76988091128E+01 0.  0.
         22    1    3    3    0    0  0.33637335114E+02 -0.67628893300E+01  0.37123243957E+02  0.50550392951E+02  0.00000000000E+00 0.  1.
         22    1    4    4    0    0 -0.17743600221E+01  0.21198077013E+01  0.24035544173E+02  0.24193993508E+02  0.00000000000E+00 0.  1.
         22    1    4    4    0    0 -0.31862975092E+02  0.46430816286E+01  0.18803034414E+03  0.19076744404E+03  0.00000000000E+00 0.  1.
<mgrwt>
<rscale>  0 0.91658652E+02</rscale>
<asrwt>0</asrwt>
<pdfrwt beam="1">  1        1 0.39592376E-01 0.91658652E+02</pdfrwt>
<pdfrwt beam="2">  1       -1 0.12555923E-02 0.91658652E+02</pdfrwt>
<totfact> 0.12263011E+05</totfact>
</mgrwt>
</event>
<event>
 7    1  0.3607059E-009  0.8952485E+02  0.7818608E-02  0.1304006E+00
         -1   -1    0    0    0  501 -0.00000000000E+00  0.00000000000E+00  0.58061354467E+01  0.58061376342E+01  0.50400000000E-02 0.  1.
          1   -1    0    0  501    0  0.00000000000E+00 -0.00000000000E+00 -0.34509606038E+03  0.34509606041E+03  0.50400000000E-02 0. -1.
         23    2    1    2    0    0  0.00000000000E+00  0.17763568394E-14 -0.33928992493E+03  0.35090219805E+03  0.89524853732E+02 0.  0.
    9000005    2    3    3    0    0 -0.41887184940E+02 -0.12062623668E+02 -0.18960679597E+03  0.19500132491E+03  0.13218792835E+02 0.  0.
         22    1    3    3    0    0  0.41887184940E+02  0.12062623668E+02 -0.14968312896E+03  0.15590087314E+03  0.00000000000E+00 0. -1.
         22    1    4    4    0    0 -0.62040376692E+01  0.29097654202E+01 -0.28306848089E+02  0.29124465093E+02  0.00000000000E+00 0.  1.
         22    1    4    4    0    0 -0.35683147271E+02 -0.14972389088E+02 -0.16129994789E+03  0.16587685982E+03  0.00000000000E+00 0.  1.
<mgrwt>
<rscale>  0 0.89524854E+02</rscale>
<asrwt>0</asrwt>
<pdfrwt beam="2">  1        1 0.53091686E-01 0.89524854E+02</pdfrwt>
<pdfrwt beam="1">  1       -1 0.89325205E-03 0.89524854E+02</pdfrwt>
<totfact> 0.13804292E+05</totfact>
</mgrwt>
</event>
<event>
 6    1  0.3607059E-009  0.2475708E+03  0.7818608E-02  0.1114850E+00
         -1   -1    0    0    0  501 -0.00000000000E+00  0.00000000000E+00  0.53769072626E+02  0.53769072863E+02  0.50400000000E-02 0.  1.
          1   -1    0    0  501    0  0.00000000000E+00 -0.00000000000E+00 -0.28497475779E+03  0.28497475784E+03  0.50400000000E-02 0. -1.
    9000005    2    1    2    0    0 -0.11072908031E+03  0.38643246133E+02 -0.63395389646E+02  0.13401345928E+03  0.13652917014E+02 0.  0.
         22    1    1    2    0    0  0.11072908031E+03 -0.38643246133E+02 -0.16781029552E+03  0.20473037141E+03  0.00000000000E+00 0. -1.
         22    1    3    3    0    0 -0.68383959812E+02  0.30562790932E+02 -0.38201004955E+02  0.84081906072E+02  0.00000000000E+00 0. -1.
         22    1    3    3    0    0 -0.42345120497E+02  0.80804552012E+01 -0.25194384691E+02  0.49931553211E+02  0.00000000000E+00 0. -1.
<mgrwt>
<rscale>  0 0.24757083E+03</rscale>
<asrwt>0</asrwt>
<pdfrwt beam="2">  1        1 0.43842270E-01 0.24757083E+03</pdfrwt>
<pdfrwt beam="1">  1       -1 0.82721652E-02 0.24757083E+03</pdfrwt>
<totfact> 0.75466949E+03</totfact>
</mgrwt>
</event>
<event>
 7    1  0.3607059E-009  0.9666644E+02  0.7818608E-02  0.1287466E+00
          1   -1    0    0  501    0  0.00000000000E+00  0.00000000000E+00  0.37263405282E+01  0.37263439366E+01  0.50400000000E-02 0. -1.
         -1   -1    0    0    0  501 -0.00000000000E+00 -0.00000000000E+00 -0.62691507414E+03  0.62691507416E+03  0.50400000000E-02 0.  1.
         23    2    1    2    0    0  0.00000000000E+00  0.17763568394E-14 -0.62318873361E+03  0.63064141810E+03  0.96666439463E+02 0.  0.
    9000005    2    3    3    0    0 -0.33062035286E+02  0.11195642217E+02 -0.52908673821E+03  0.53027396261E+03  0.62656438064E+01 0.  0.
         22    1    3    3    0    0  0.33062035286E+02 -0.11195642217E+02 -0.94101995400E+02  0.10036745548E+03  0.00000000000E+00 0. -1.
         22    1    4    4    0    0 -0.10429803414E+02  0.13790950263E+01 -0.12965215668E+03  0.13007830117E+03  0.00000000000E+00 0.  1.
         22    1    4    4    0    0 -0.22632231872E+02  0.98165471911E+01 -0.39943458153E+03  0.40019566145E+03  0.00000000000E+00 0.  1.
<mgrwt>
<rscale>  0 0.96666439E+02</rscale>
<asrwt>0</asrwt>
<pdfrwt beam="1">  1        1 0.57328392E-03 0.96666439E+02</pdfrwt>
<pdfrwt beam="2">  1       -1 0.96448389E-01 0.96666439E+02</pdfrwt>
<totfact> 0.34529371E+04</totfact>
</mgrwt>
</event>
<event>
 7    1  0.3607059E-009  0.9140197E+02  0.7818608E-02  0.1299492E+00
         -1   -1    0    0    0  501 -0.00000000000E+00  0.00000000000E+00  0.18956668359E+02  0.18956669029E+02  0.50400000000E-02 0.  1.
          1   -1    0    0  501    0  0.00000000000E+00 -0.00000000000E+00 -0.11017654092E+03  0.11017654103E+03  0.50400000000E-02 0. -1.
         23    2    1    2    0    0  0.17763568394E-14  0.00000000000E+00 -0.91219872558E+02  0.12913321006E+03  0.91401973673E+02 0.  0.
    9000005    2    3    3    0    0  0.11570109626E+02 -0.42567914190E+02 -0.54036290409E+02  0.71439938906E+02  0.15422367990E+02 0.  0.
         22    1    3    3    0    0 -0.11570109626E+02  0.42567914190E+02 -0.37183582148E+02  0.57693271155E+02  0.00000000000E+00 0.  1.
         22    1    4    4    0    0  0.12981827152E+02 -0.21607437404E+02 -0.34687706715E+02  0.42879437782E+02  0.00000000000E+00 0.  1.
         22    1    4    4    0    0 -0.14117175259E+01 -0.20960476786E+02 -0.19348583695E+02  0.28560501124E+02  0.00000000000E+00 0.  1.
<mgrwt>
<rscale>  0 0.91401974E+02</rscale>
<asrwt>0</asrwt>
<pdfrwt beam="2">  1        1 0.16950237E-01 0.91401974E+02</pdfrwt>
<pdfrwt beam="1">  1       -1 0.29164106E-02 0.91401974E+02</pdfrwt>
<totfact> 0.10545860E+05</totfact>
</mgrwt>
</event>
<event>
 7    1  0.3607059E-009  0.9223780E+02  0.7818608E-02  0.1297521E+00
          1   -1    0    0  501    0  0.00000000000E+00  0.00000000000E+00  0.11816792025E+02  0.11816793099E+02  0.50400000000E-02 0. -1.
         -1   -1    0    0    0  501 -0.00000000000E+00 -0.00000000000E+00 -0.17999409774E+03  0.17999409781E+03  0.50400000000E-02 0.  1.
         23    2    1    2    0    0  0.00000000000E+00  0.35527136788E-14 -0.16817730571E+03  0.19181089091E+03  0.92237799810E+02 0.  0.
    9000005    2    3    3    0    0 -0.30309432825E+02 -0.29580641551E+02 -0.48851741241E+02  0.65192304557E+02  0.83587007681E+01 0.  0.
         22    1    3    3    0    0  0.30309432825E+02  0.29580641551E+02 -0.11932556447E+03  0.12661858635E+03  0.00000000000E+00 0. -1.
         22    1    4    4    0    0 -0.26563336760E+02 -0.27177591422E+02 -0.39378416978E+02  0.54725606977E+02  0.00000000000E+00 0.  1.
         22    1    4    4    0    0 -0.37460960647E+01 -0.24030501290E+01 -0.94733242630E+01  0.10466697580E+02  0.00000000000E+00 0.  1.
<mgrwt>
<rscale>  0 0.92237800E+02</rscale>
<asrwt>0</asrwt>
<pdfrwt beam="1">  1        1 0.18179682E-02 0.92237800E+02</pdfrwt>
<pdfrwt beam="2">  1       -1 0.27691398E-01 0.92237800E+02</pdfrwt>
<totfact> 0.69348083E+04</totfact>
</mgrwt>
</event>
<event>
 7    1  0.3607059E-009  0.9103220E+02  0.7818608E-02  0.1300371E+00
          1   -1    0    0  501    0  0.00000000000E+00  0.00000000000E+00  0.50700257423E+02  0.50700257674E+02  0.50400000000E-02 0. -1.
         -1   -1    0    0    0  501 -0.00000000000E+00 -0.00000000000E+00 -0.40862026843E+02  0.40862027154E+02  0.50400000000E-02 0.  1.
         23    2    1    2    0    0  0.35527136788E-14  0.00000000000E+00  0.98382305799E+01  0.91562284828E+02  0.91032198819E+02 0.  0.
    9000005    2    3    3    0    0  0.26129683614E+02 -0.17975223411E+02  0.37021807321E+02  0.49791291700E+02  0.10133582259E+02 0.  0.
         22    1    3    3    0    0 -0.26129683614E+02  0.17975223411E+02 -0.27183576741E+02  0.41770993128E+02  0.00000000000E+00 0.  1.
         22    1    4    4    0    0  0.25101242119E+02 -0.19222749846E+02  0.35817226227E+02  0.47775099813E+02  0.00000000000E+00 0.  1.
         22    1    4    4    0    0  0.10284414951E+01  0.12475264345E+01  0.12045810937E+01  0.20161918869E+01  0.00000000000E+00 0.  1.
<mgrwt>
<rscale>  0 0.91032199E+02</rscale>
<asrwt>0</asrwt>
<pdfrwt beam="1">  1        1 0.78000396E-02 0.91032199E+02</pdfrwt>
<pdfrwt beam="2">  1       -1 0.62864657E-02 0.91032199E+02</pdfrwt>
<totfact> 0.94377859E+04</totfact>
</mgrwt>
</event>
<event>
 7    1  0.3607059E-009  0.9112055E+02  0.7818608E-02  0.1300161E+00
         -1   -1    0    0    0  501 -0.00000000000E+00  0.00000000000E+00  0.39645203698E+02  0.39645204018E+02  0.50400000000E-02 0.  1.
          1   -1    0    0  501    0  0.00000000000E+00 -0.00000000000E+00 -0.52357874073E+02  0.52357874315E+02  0.50400000000E-02 0. -1.
         23    2    1    2    0    0 -0.35527136788E-14  0.00000000000E+00 -0.12712670375E+02  0.92003078334E+02  0.91120548916E+02 0.  0.
    9000005    2    3    3    0    0 -0.24775226850E+02 -0.35960181226E+02 -0.15549589456E+02  0.48242426954E+02  0.13363963742E+02 0.  0.
         22    1    3    3    0    0  0.24775226850E+02  0.35960181226E+02  0.28369190819E+01  0.43760651379E+02  0.00000000000E+00 0. -1.
         22    1    4    4    0    0 -0.14070611138E+01 -0.10451204544E+02 -0.68362388867E+01  0.12567484215E+02  0.00000000000E+00 0.  1.
         22    1    4    4    0    0 -0.23368165736E+02 -0.25508976682E+02 -0.87133505697E+01  0.35674942739E+02  0.00000000000E+00 0.  1.
<mgrwt>
<rscale>  0 0.91120549E+02</rscale>
<asrwt>0</asrwt>
<pdfrwt beam="2">  1        1 0.80550576E-02 0.91120549E+02</pdfrwt>
<pdfrwt beam="1">  1       -1 0.60992622E-02 0.91120549E+02</pdfrwt>
<totfact> 0.94577636E+04</totfact>
</mgrwt>
</event>
<event>
 7    1  0.3607059E-009  0.8827689E+02  0.7818608E-02  0.1307079E+00
          1   -1    0    0  501    0  0.00000000000E+00  0.00000000000E+00  0.12737509860E+02  0.12737510858E+02  0.50400000000E-02 0. -1.
         -1   -1    0    0    0  501 -0.00000000000E+00 -0.00000000000E+00 -0.15295000838E+03  0.15295000847E+03  0.50400000000E-02 0.  1.
         23    2    1    2    0    0  0.00000000000E+00  0.71054273576E-14 -0.14021249852E+03  0.16568751932E+03  0.88276890054E+02 0.  0.
    9000005    2    3    3    0    0 -0.98755821375E+01 -0.34509765374E+02 -0.11810322478E+03  0.12352982709E+03  0.47744580544E+01 0.  0.
         22    1    3    3    0    0  0.98755821375E+01  0.34509765374E+02 -0.22109273742E+02  0.42157692229E+02  0.00000000000E+00 0.  1.
         22    1    4    4    0    0 -0.63401571858E+01 -0.19740517021E+02 -0.60303313552E+02  0.63768136485E+02  0.00000000000E+00 0. -1.
         22    1    4    4    0    0 -0.35354249517E+01 -0.14769248353E+02 -0.57799911228E+02  0.59761690609E+02  0.00000000000E+00 0. -1.
<mgrwt>
<rscale>  0 0.88276890E+02</rscale>
<asrwt>0</asrwt>
<pdfrwt beam="1">  1        1 0.19596171E-02 0.88276890E+02</pdfrwt>
<pdfrwt beam="2">  1       -1 0.23530769E-01 0.88276890E+02</pdfrwt>
<totfact> 0.80951983E+04</totfact>
</mgrwt>
</event>
<event>
 7    1  0.3607059E-009  0.9175799E+02  0.7818608E-02  0.1298649E+00
          1   -1    0    0  501    0  0.00000000000E+00  0.00000000000E+00  0.38076109715E+02  0.38076110048E+02  0.50400000000E-02 0. -1.
         -1   -1    0    0    0  501 -0.00000000000E+00 -0.00000000000E+00 -0.55280918239E+02  0.55280918469E+02  0.50400000000E-02 0.  1.
         23    2    1    2    0    0  0.00000000000E+00  0.00000000000E+00 -0.17204808525E+02  0.93357028517E+02  0.91757993315E+02 0.  0.
    9000005    2    3    3    0    0  0.22098225783E+02  0.36495587180E+02 -0.24076021829E+02  0.50142759593E+02  0.10694954234E+02 0.  0.
         22    1    3    3    0    0 -0.22098225783E+02 -0.36495587180E+02  0.68712133047E+01  0.43214268924E+02  0.00000000000E+00 0. -1.
         22    1    4    4    0    0  0.21413954634E+02  0.31232687369E+02 -0.24003008430E+02  0.44835060244E+02  0.00000000000E+00 0.  1.
         22    1    4    4    0    0  0.68427114922E+00  0.52628998110E+01 -0.73013399492E-01  0.53076993493E+01  0.00000000000E+00 0.  1.
<mgrwt>
<rscale>  0 0.91757993E+02</rscale>
<asrwt>0</asrwt>
<pdfrwt beam="1">  1        1 0.58578630E-02 0.91757993E+02</pdfrwt>
<pdfrwt beam="2">  1       -1 0.85047568E-02 0.91757993E+02</pdfrwt>
<totfact> 0.88377663E+04</totfact>
</mgrwt>
</event>
<event>
 7    1  0.3607059E-009  0.9029147E+02  0.7818608E-02  0.1302147E+00
         -1   -1    0    0    0  501 -0.00000000000E+00  0.00000000000E+00  0.17768785277E+01  0.17768856755E+01  0.50400000000E-02 0.  1.
          1   -1    0    0  501    0  0.00000000000E+00 -0.00000000000E+00 -0.11470301967E+04  0.11470301967E+04  0.50400000000E-02 0. -1.
         23    2    1    2    0    0  0.00000000000E+00  0.00000000000E+00 -0.11452533182E+04  0.11488070824E+04  0.90291471118E+02 0.  0.
    9000005    2    3    3    0    0 -0.21802476360E+02 -0.11702421751E+02 -0.10509905114E+04  0.10513505721E+04  0.12028126280E+02 0.  0.
         22    1    3    3    0    0  0.21802476360E+02  0.11702421751E+02 -0.94262806789E+02  0.97456510270E+02  0.00000000000E+00 0.  1.
         22    1    4    4    0    0 -0.14937076647E+02 -0.12749848766E+02 -0.87996354885E+03  0.88018266412E+03  0.00000000000E+00 0. -1.
         22    1    4    4    0    0 -0.68653997125E+01  0.10474270153E+01 -0.17102696253E+03  0.17116790799E+03  0.00000000000E+00 0. -1.
<mgrwt>
<rscale>  0 0.90291471E+02</rscale>
<asrwt>0</asrwt>
<pdfrwt beam="2">  1        1 0.17646559E+00 0.90291471E+02</pdfrwt>
<pdfrwt beam="1">  1       -1 0.27336739E-03 0.90291471E+02</pdfrwt>
<totfact> 0.13326019E+05</totfact>
</mgrwt>
</event>
<event>
 7    1  0.3607059E-009  0.9206044E+02  0.7818608E-02  0.1297937E+00
          1   -1    0    0  501    0  0.00000000000E+00  0.00000000000E+00  0.50671609947E+02  0.50671610198E+02  0.50400000000E-02 0.  1.
         -1   -1    0    0    0  501 -0.00000000000E+00 -0.00000000000E+00 -0.41813968821E+02  0.41813969125E+02  0.50400000000E-02 0. -1.
         23    2    1    2    0    0  0.00000000000E+00  0.00000000000E+00  0.88576411261E+01  0.92485579323E+02  0.92060439801E+02 0.  0.
    9000005    2    3    3    0    0 -0.24190866259E+02  0.34924451118E+02 -0.12314840210E+02  0.45017808549E+02  0.83685423394E+01 0.  0.
         22    1    3    3    0    0  0.24190866259E+02 -0.34924451118E+02  0.21172481336E+02  0.47467770774E+02  0.00000000000E+00 0.  1.
         22    1    4    4    0    0 -0.81917178326E+01  0.19163593031E+02 -0.61026133187E+01  0.21716109877E+02  0.00000000000E+00 0.  1.
         22    1    4    4    0    0 -0.15999148427E+02  0.15760858088E+02 -0.62122268916E+01  0.23301698672E+02  0.00000000000E+00 0.  1.
<mgrwt>
<rscale>  0 0.92060440E+02</rscale>
<asrwt>0</asrwt>
<pdfrwt beam="1">  1        1 0.77956323E-02 0.92060440E+02</pdfrwt>
<pdfrwt beam="2">  1       -1 0.64329183E-02 0.92060440E+02</pdfrwt>
<totfact> 0.91450037E+04</totfact>
</mgrwt>
</event>
<event>
 7    1  0.3607059E-009  0.9298375E+02  0.7818608E-02  0.1295783E+00
          1   -1    0    0  501    0  0.00000000000E+00  0.00000000000E+00  0.65657816831E+02  0.65657817024E+02  0.50400000000E-02 0. -1.
         -1   -1    0    0    0  501 -0.00000000000E+00 -0.00000000000E+00 -0.32920595646E+02  0.32920596032E+02  0.50400000000E-02 0.  1.
         23    2    1    2    0    0 -0.35527136788E-14  0.00000000000E+00  0.32737221185E+02  0.98578413056E+02  0.92983750569E+02 0.  0.
    9000005    2    3    3    0    0 -0.25066993070E+02 -0.10319725841E+02  0.56114830722E+02  0.62782274847E+02  0.76084771848E+01 0.  0.
         22    1    3    3    0    0  0.25066993070E+02  0.10319725841E+02 -0.23377609537E+02  0.35796138209E+02  0.00000000000E+00 0.  1.
         22    1    4    4    0    0 -0.11494506066E+02 -0.83290926657E+01  0.24414500582E+02  0.28241198505E+02  0.00000000000E+00 0. -1.
         22    1    4    4    0    0 -0.13572487005E+02 -0.19906331752E+01  0.31700330140E+02  0.34541076342E+02  0.00000000000E+00 0. -1.
<mgrwt>
<rscale>  0 0.92983751E+02</rscale>
<asrwt>0</asrwt>
<pdfrwt beam="1">  1        1 0.10101203E-01 0.92983751E+02</pdfrwt>
<pdfrwt beam="2">  1       -1 0.50647070E-02 0.92983751E+02</pdfrwt>
<totfact> 0.92530431E+04</totfact>
</mgrwt>
</event>
<event>
 7    1  0.3607059E-009  0.9012910E+02  0.7818608E-02  0.1302539E+00
         -1   -1    0    0    0  501 -0.00000000000E+00  0.00000000000E+00  0.12487550447E+03  0.12487550457E+03  0.50400000000E-02 0.  1.
          1   -1    0    0  501    0  0.00000000000E+00 -0.00000000000E+00 -0.16262705232E+02  0.16262706013E+02  0.50400000000E-02 0. -1.
         23    2    1    2    0    0  0.22204460493E-15  0.00000000000E+00  0.10861279924E+03  0.14113821059E+03  0.90129098125E+02 0.  0.
    9000005    2    3    3    0    0 -0.19694013689E+01 -0.21489702870E+02  0.11622948384E+03  0.11825372336E+03  0.29940445878E+01 0.  0.
         22    1    3    3    0    0  0.19694013689E+01  0.21489702870E+02 -0.76166846049E+01  0.22884487225E+02  0.00000000000E+00 0. -1.
         22    1    4    4    0    0 -0.18747661302E+01 -0.21194266837E+02  0.11569930735E+03  0.11763945519E+03  0.00000000000E+00 0. -1.
         22    1    4    4    0    0 -0.94635238673E-01 -0.29543603271E+00  0.53017648975E+00  0.61426817279E+00  0.00000000000E+00 0. -1.
<mgrwt>
<rscale>  0 0.90129098E+02</rscale>
<asrwt>0</asrwt>
<pdfrwt beam="2">  1        1 0.25019548E-02 0.90129098E+02</pdfrwt>
<pdfrwt beam="1">  1       -1 0.19211615E-01 0.90129098E+02</pdfrwt>
<totfact> 0.80247715E+04</totfact>
</mgrwt>
</event>
<event>
 7    1  0.3607059E-009  0.8573852E+02  0.7818608E-02  0.1313512E+00
         -1   -1    0    0    0  501 -0.00000000000E+00  0.00000000000E+00  0.28868170074E+01  0.28868214070E+01  0.50400000000E-02 0.  1.
          1   -1    0    0  501    0  0.00000000000E+00 -0.00000000000E+00 -0.63660842465E+03  0.63660842467E+03  0.50400000000E-02 0. -1.
         23    2    1    2    0    0  0.00000000000E+00  0.00000000000E+00 -0.63372160764E+03  0.63949524608E+03  0.85738519709E+02 0.  0.
    9000005    2    3    3    0    0  0.10536234891E+02 -0.87590550904E+01 -0.61974799401E+03  0.61992498370E+03  0.56281468172E+01 0.  0.
         22    1    3    3    0    0 -0.10536234891E+02  0.87590550904E+01 -0.13973613630E+02  0.19570262380E+02  0.00000000000E+00 0.  1.
         22    1    4    4    0    0  0.58810074789E+01 -0.34822983432E+01 -0.19720396384E+03  0.19732236570E+03  0.00000000000E+00 0.  1.
         22    1    4    4    0    0  0.46552274122E+01 -0.52767567472E+01 -0.42254403017E+03  0.42260261800E+03  0.00000000000E+00 0.  1.
<mgrwt>
<rscale>  0 0.85738520E+02</rscale>
<asrwt>0</asrwt>
<pdfrwt beam="2">  1        1 0.97939647E-01 0.85738520E+02</pdfrwt>
<pdfrwt beam="1">  1       -1 0.44412654E-03 0.85738520E+02</pdfrwt>
<totfact> 0.16699516E+05</totfact>
</mgrwt>
</event>
<event>
 7    1  0.3607059E-009  0.9450550E+02  0.7818608E-02  0.1292294E+00
         -1   -1    0    0    0  501 -0.00000000000E+00  0.00000000000E+00  0.85942363579E+01  0.85942378358E+01  0.50400000000E-02 0.  1.
          1   -1    0    0  501    0  0.00000000000E+00 -0.00000000000E+00 -0.25980462036E+03  0.25980462041E+03  0.50400000000E-02 0. -1.
         23    2    1    2    0    0  0.88817841970E-15  0.00000000000E+00 -0.25121038401E+03  0.26839885825E+03  0.94505502891E+02 0.  0.
    9000005    2    3    3    0    0 -0.70191888111E+01  0.38865881121E+02 -0.56586453136E+02  0.69808072475E+02  0.10550572366E+02 0.  0.
         22    1    3    3    0    0  0.70191888111E+01 -0.38865881121E+02 -0.19462393087E+03  0.19859078577E+03  0.00000000000E+00 0. -1.
         22    1    4    4    0    0 -0.16000198058E+01  0.91484123305E+00 -0.63683714793E+01  0.66297174267E+01  0.00000000000E+00 0. -1.
         22    1    4    4    0    0 -0.54191690054E+01  0.37951039888E+02 -0.50218081656E+02  0.63178355048E+02  0.00000000000E+00 0. -1.
<mgrwt>
<rscale>  0 0.94505503E+02</rscale>
<asrwt>0</asrwt>
<pdfrwt beam="2">  1        1 0.39969936E-01 0.94505503E+02</pdfrwt>
<pdfrwt beam="1">  1       -1 0.13221905E-02 0.94505503E+02</pdfrwt>
<totfact> 0.11319852E+05</totfact>
</mgrwt>
</event>
<event>
 7    1  0.3607059E-009  0.9066683E+02  0.7818608E-02  0.1301245E+00
         -1   -1    0    0    0  501 -0.00000000000E+00  0.00000000000E+00  0.12840601286E+02  0.12840602275E+02  0.50400000000E-02 0.  1.
          1   -1    0    0  501    0  0.00000000000E+00 -0.00000000000E+00 -0.16004844864E+03  0.16004844872E+03  0.50400000000E-02 0. -1.
         23    2    1    2    0    0  0.35527136788E-14  0.00000000000E+00 -0.14720784736E+03  0.17288905100E+03  0.90666827623E+02 0.  0.
    9000005    2    3    3    0    0  0.31438986940E+02 -0.25622306500E+02 -0.36000953692E+02  0.54517239788E+02  0.55810641661E+01 0.  0.
         22    1    3    3    0    0 -0.31438986940E+02  0.25622306500E+02 -0.11120689366E+03  0.11837181121E+03  0.00000000000E+00 0. -1.
         22    1    4    4    0    0  0.18421342929E+01 -0.32046612395E+01 -0.21645884839E+01  0.42835447608E+01  0.00000000000E+00 0. -1.
         22    1    4    4    0    0  0.29596852647E+02 -0.22417645261E+02 -0.33836365208E+02  0.50233695028E+02  0.00000000000E+00 0. -1.
<mgrwt>
<rscale>  0 0.90666828E+02</rscale>
<asrwt>0</asrwt>
<pdfrwt beam="2">  1        1 0.24622837E-01 0.90666828E+02</pdfrwt>
<pdfrwt beam="1">  1       -1 0.19754773E-02 0.90666828E+02</pdfrwt>
<totfact> 0.11521303E+05</totfact>
</mgrwt>
</event>
<event>
 7    1  0.3607059E-009  0.9423651E+02  0.7818608E-02  0.1292905E+00
         -1   -1    0    0    0  501 -0.00000000000E+00  0.00000000000E+00  0.19058637534E+03  0.19058637541E+03  0.50400000000E-02 0.  1.
          1   -1    0    0  501    0  0.00000000000E+00 -0.00000000000E+00 -0.11648943841E+02  0.11648944931E+02  0.50400000000E-02 0. -1.
         23    2    1    2    0    0  0.00000000000E+00  0.00000000000E+00  0.17893743150E+03  0.20223532034E+03  0.94236513096E+02 0.  0.
    9000005    2    3    3    0    0 -0.15845531701E+01 -0.32221435477E+02  0.16264993170E+03  0.16609649962E+03  0.96080795119E+01 0.  0.
         22    1    3    3    0    0  0.15845531701E+01  0.32221435477E+02  0.16287499799E+02  0.36138820715E+02  0.00000000000E+00 0. -1.
         22    1    4    4    0    0 -0.30256469143E+01 -0.49020081405E+01  0.41381414603E+02  0.41780446355E+02  0.00000000000E+00 0. -1.
         22    1    4    4    0    0  0.14410937442E+01 -0.27319427337E+02  0.12126851710E+03  0.12431605327E+03  0.00000000000E+00 0. -1.
<mgrwt>
<rscale>  0 0.94236513E+02</rscale>
<asrwt>0</asrwt>
<pdfrwt beam="2">  1        1 0.17921455E-02 0.94236513E+02</pdfrwt>
<pdfrwt beam="1">  1       -1 0.29320978E-01 0.94236513E+02</pdfrwt>
<totfact> 0.64566892E+04</totfact>
</mgrwt>
</event>
<event>
 7    1  0.3607059E-009  0.9187556E+02  0.7818608E-02  0.1298372E+00
          1   -1    0    0  501    0  0.00000000000E+00  0.00000000000E+00  0.89816234440E+02  0.89816234582E+02  0.50400000000E-02 0. -1.
         -1   -1    0    0    0  501 -0.00000000000E+00 -0.00000000000E+00 -0.23495527632E+02  0.23495528172E+02  0.50400000000E-02 0.  1.
         23    2    1    2    0    0  0.00000000000E+00  0.00000000000E+00  0.66320706809E+02  0.11331176275E+03  0.91875564906E+02 0.  0.
    9000005    2    3    3    0    0  0.41736623593E+02 -0.18467276231E+02  0.38277839793E+02  0.59745089992E+02  0.46148367777E+01 0.  0.
         22    1    3    3    0    0 -0.41736623593E+02  0.18467276231E+02  0.28042867015E+02  0.53566672762E+02  0.00000000000E+00 0.  1.
         22    1    4    4    0    0  0.73916428180E+01 -0.33049643458E+01  0.92196930244E+01  0.12270367245E+02  0.00000000000E+00 0. -1.
         22    1    4    4    0    0  0.34344980775E+02 -0.15162311885E+02  0.29058146769E+02  0.47474722746E+02  0.00000000000E+00 0. -1.
<mgrwt>
<rscale>  0 0.91875565E+02</rscale>
<asrwt>0</asrwt>
<pdfrwt beam="1">  1        1 0.13817882E-01 0.91875565E+02</pdfrwt>
<pdfrwt beam="2">  1       -1 0.36146966E-02 0.91875565E+02</pdfrwt>
<totfact> 0.10050292E+05</totfact>
</mgrwt>
</event>
<event>
 7    1  0.3607059E-009  0.8965877E+02  0.7818608E-02  0.1303680E+00
         -1   -1    0    0    0  501 -0.00000000000E+00  0.00000000000E+00  0.27772480848E+02  0.27772481305E+02  0.50400000000E-02 0.  1.
          1   -1    0    0  501    0  0.00000000000E+00 -0.00000000000E+00 -0.72362046649E+02  0.72362046824E+02  0.50400000000E-02 0. -1.
         23    2    1    2    0    0  0.00000000000E+00  0.00000000000E+00 -0.44589565801E+02  0.10013452813E+03  0.89658766138E+02 0.  0.
    9000005    2    3    3    0    0 -0.23367989968E+02 -0.37954059658E+02 -0.21061754735E+02  0.49734810936E+02  0.65863727988E+01 0.  0.
         22    1    3    3    0    0  0.23367989968E+02  0.37954059658E+02 -0.23527811066E+02  0.50399717193E+02  0.00000000000E+00 0.  1.
         22    1    4    4    0    0 -0.19434180343E+02 -0.32237464403E+02 -0.15000492751E+02  0.40521059457E+02  0.00000000000E+00 0. -1.
         22    1    4    4    0    0 -0.39338096245E+01 -0.57165952552E+01 -0.60612619846E+01  0.92137514791E+01  0.00000000000E+00 0. -1.
<mgrwt>
<rscale>  0 0.89658766E+02</rscale>
<asrwt>0</asrwt>
<pdfrwt beam="2">  1        1 0.11132623E-01 0.89658766E+02</pdfrwt>
<pdfrwt beam="1">  1       -1 0.42726894E-02 0.89658766E+02</pdfrwt>
<totfact> 0.10386005E+05</totfact>
</mgrwt>
</event>
<event>
 7    1  0.3607059E-009  0.9779536E+02  0.7818608E-02  0.1285001E+00
         -1   -1    0    0    0  501 -0.00000000000E+00  0.00000000000E+00  0.36149384899E+02  0.36149385250E+02  0.50400000000E-02 0.  1.
          1   -1    0    0  501    0  0.00000000000E+00 -0.00000000000E+00 -0.66141737401E+02  0.66141737593E+02  0.50400000000E-02 0. -1.
         23    2    1    2    0    0  0.00000000000E+00 -0.17763568394E-14 -0.29992352502E+02  0.10229112284E+03  0.97795360851E+02 0.  0.
    9000005    2    3    3    0    0  0.38028659934E+02 -0.14387596839E+02  0.11236227442E+02  0.44386220431E+02  0.13809483622E+02 0.  0.
         22    1    3    3    0    0 -0.38028659934E+02  0.14387596839E+02 -0.41228579944E+02  0.57904902412E+02  0.00000000000E+00 0. -1.
         22    1    4    4    0    0  0.14782838733E+02 -0.13971206004E+01  0.96515510738E+01  0.17709791221E+02  0.00000000000E+00 0.  1.
         22    1    4    4    0    0  0.23245821201E+02 -0.12990476238E+02  0.15846763680E+01  0.26676429210E+02  0.00000000000E+00 0.  1.
<mgrwt>
<rscale>  0 0.97795361E+02</rscale>
<asrwt>0</asrwt>
<pdfrwt beam="2">  1        1 0.10175652E-01 0.97795361E+02</pdfrwt>
<pdfrwt beam="1">  1       -1 0.55614439E-02 0.97795361E+02</pdfrwt>
<totfact> 0.80497703E+04</totfact>
</mgrwt>
</event>
<event>
 7    1  0.3607059E-009  0.9460326E+02  0.7818608E-02  0.1292072E+00
         -1   -1    0    0    0  501 -0.00000000000E+00  0.00000000000E+00  0.11447880285E+02  0.11447881394E+02  0.50400000000E-02 0.  1.
          1   -1    0    0  501    0  0.00000000000E+00 -0.00000000000E+00 -0.19544612713E+03  0.19544612719E+03  0.50400000000E-02 0. -1.
         23    2    1    2    0    0  0.00000000000E+00  0.00000000000E+00 -0.18399824684E+03  0.20689400859E+03  0.94603255483E+02 0.  0.
    9000005    2    3    3    0    0  0.46261540475E+02  0.48937689794E+01 -0.83040034061E+02  0.95733584739E+02  0.10256358430E+02 0.  0.
         22    1    3    3    0    0 -0.46261540475E+02 -0.48937689794E+01 -0.10095821278E+03  0.11116042385E+03  0.00000000000E+00 0. -1.
         22    1    4    4    0    0  0.30402371651E+02  0.68531564695E+00 -0.61960370318E+02  0.69020731302E+02  0.00000000000E+00 0. -1.
         22    1    4    4    0    0  0.15859168824E+02  0.42084533324E+01 -0.21079663743E+02  0.26712853437E+02  0.00000000000E+00 0. -1.
<mgrwt>
<rscale>  0 0.94603255E+02</rscale>
<asrwt>0</asrwt>
<pdfrwt beam="2">  1        1 0.30068633E-01 0.94603255E+02</pdfrwt>
<pdfrwt beam="1">  1       -1 0.17612126E-02 0.94603255E+02</pdfrwt>
<totfact> 0.10674124E+05</totfact>
</mgrwt>
</event>
<event>
 7    1  0.3607059E-009  0.9492374E+02  0.7818608E-02  0.1291348E+00
         -1   -1    0    0    0  501 -0.00000000000E+00  0.00000000000E+00  0.91977119447E+01  0.91977133256E+01  0.50400000000E-02 0.  1.
          1   -1    0    0  501    0  0.00000000000E+00 -0.00000000000E+00 -0.24491186314E+03  0.24491186319E+03  0.50400000000E-02 0. -1.
         23    2    1    2    0    0  0.00000000000E+00  0.00000000000E+00 -0.23571415119E+03  0.25410957651E+03  0.94923736778E+02 0.  0.
    9000005    2    3    3    0    0 -0.27374300481E+00 -0.44841045342E+02 -0.15706592113E+03  0.16357594534E+03  0.87516872058E+01 0.  0.
         22    1    3    3    0    0  0.27374300481E+00  0.44841045342E+02 -0.78648230058E+02  0.90533631176E+02  0.00000000000E+00 0.  1.
         22    1    4    4    0    0  0.36730546583E+01 -0.11476530686E+02 -0.38481491273E+02  0.40324028292E+02  0.00000000000E+00 0.  1.
         22    1    4    4    0    0 -0.39467976631E+01 -0.33364514657E+02 -0.11858442986E+03  0.12325191705E+03  0.00000000000E+00 0.  1.
<mgrwt>
<rscale>  0 0.94923737E+02</rscale>
<asrwt>0</asrwt>
<pdfrwt beam="2">  1        1 0.37678743E-01 0.94923737E+02</pdfrwt>
<pdfrwt beam="1">  1       -1 0.14150329E-02 0.94923737E+02</pdfrwt>
<totfact> 0.11057400E+05</totfact>
</mgrwt>
</event>
<event>
 7    1  0.3607059E-009  0.9164932E+02  0.7818608E-02  0.1298906E+00
          1   -1    0    0  501    0  0.00000000000E+00  0.00000000000E+00  0.30920916216E+03  0.30920916220E+03  0.50400000000E-02 0. -1.
         -1   -1    0    0    0  501 -0.00000000000E+00 -0.00000000000E+00 -0.67911934028E+01  0.67911952730E+01  0.50400000000E-02 0.  1.
         23    2    1    2    0    0  0.00000000000E+00  0.00000000000E+00  0.30241796876E+03  0.31600035748E+03  0.91649321310E+02 0.  0.
    9000005    2    3    3    0    0  0.39739800260E+02 -0.18401610777E+02  0.19320019233E+03  0.19832965725E+03  0.95114469969E+01 0.  0.
         22    1    3    3    0    0 -0.39739800260E+02  0.18401610777E+02  0.10921777642E+03  0.11767070022E+03  0.00000000000E+00 0.  1.
         22    1    4    4    0    0  0.28492438971E+02 -0.14265926503E+02  0.15688806690E+03  0.16009122797E+03  0.00000000000E+00 0.  1.
         22    1    4    4    0    0  0.11247361289E+02 -0.41356842742E+01  0.36312125429E+02  0.38238429277E+02  0.00000000000E+00 0.  1.
<mgrwt>
<rscale>  0 0.91649321E+02</rscale>
<asrwt>0</asrwt>
<pdfrwt beam="1">  1        1 0.47570641E-01 0.91649321E+02</pdfrwt>
<pdfrwt beam="2">  1       -1 0.10447991E-02 0.91649321E+02</pdfrwt>
<totfact> 0.12709573E+05</totfact>
</mgrwt>
</event>
<event>
 7    1  0.3607059E-009  0.9103322E+02  0.7818608E-02  0.1300369E+00
          1   -1    0    0  501    0  0.00000000000E+00  0.00000000000E+00  0.32148923859E+02  0.32148924254E+02  0.50400000000E-02 0. -1.
         -1   -1    0    0    0  501 -0.00000000000E+00 -0.00000000000E+00 -0.64442652583E+02  0.64442652781E+02  0.50400000000E-02 0.  1.
         23    2    1    2    0    0  0.00000000000E+00 -0.71054273576E-14 -0.32293728725E+02  0.96591577035E+02  0.91033223820E+02 0.  0.
    9000005    2    3    3    0    0  0.16977465683E+02  0.41266504953E+02 -0.12102431684E+02  0.47613548816E+02  0.11376396889E+02 0.  0.
         22    1    3    3    0    0 -0.16977465683E+02 -0.41266504953E+02 -0.20191297040E+02  0.48978028219E+02  0.00000000000E+00 0.  1.
         22    1    4    4    0    0  0.11269339145E+02  0.30538071301E+02 -0.13776492928E+02  0.35346337306E+02  0.00000000000E+00 0. -1.
         22    1    4    4    0    0  0.57081265374E+01  0.10728433651E+02  0.16740612435E+01  0.12267211510E+02  0.00000000000E+00 0. -1.
<mgrwt>
<rscale>  0 0.91033224E+02</rscale>
<asrwt>0</asrwt>
<pdfrwt beam="1">  1        1 0.49459883E-02 0.91033224E+02</pdfrwt>
<pdfrwt beam="2">  1       -1 0.99142543E-02 0.91033224E+02</pdfrwt>
<totfact> 0.88044348E+04</totfact>
</mgrwt>
</event>
<event>
 7    1  0.3607059E-009  0.9171664E+02  0.7818608E-02  0.1298747E+00
         -1   -1    0    0    0  501 -0.00000000000E+00  0.00000000000E+00  0.74649076906E+01  0.74649093920E+01  0.50400000000E-02 0.  1.
          1   -1    0    0  501    0  0.00000000000E+00 -0.00000000000E+00 -0.28171620617E+03  0.28171620622E+03  0.50400000000E-02 0. -1.
         23    2    1    2    0    0  0.17763568394E-14  0.00000000000E+00 -0.27425129848E+03  0.28918111561E+03  0.91716644652E+02 0.  0.
    9000005    2    3    3    0    0  0.11949368733E+02 -0.34854901771E+02 -0.22220209572E+03  0.22540987523E+03  0.88424499548E+01 0.  0.
         22    1    3    3    0    0 -0.11949368733E+02  0.34854901771E+02 -0.52049202763E+02  0.63771240374E+02  0.00000000000E+00 0.  1.
         22    1    4    4    0    0  0.76238038502E+01 -0.31413900886E+02 -0.19322617719E+03  0.19591148793E+03  0.00000000000E+00 0. -1.
         22    1    4    4    0    0  0.43255648829E+01 -0.34410008845E+01 -0.28975918532E+02  0.29498387302E+02  0.00000000000E+00 0. -1.
<mgrwt>
<rscale>  0 0.91716645E+02</rscale>
<asrwt>0</asrwt>
<pdfrwt beam="2">  1        1 0.43340947E-01 0.91716645E+02</pdfrwt>
<pdfrwt beam="1">  1       -1 0.11484477E-02 0.91716645E+02</pdfrwt>
<totfact> 0.12460384E+05</totfact>
</mgrwt>
</event>
<event>
 7    1  0.3607059E-009  0.9286925E+02  0.7818608E-02  0.1296048E+00
          1   -1    0    0  501    0  0.00000000000E+00  0.00000000000E+00  0.13828316438E+03  0.13828316447E+03  0.50400000000E-02 0. -1.
         -1   -1    0    0    0  501 -0.00000000000E+00 -0.00000000000E+00 -0.15592458724E+02  0.15592459539E+02  0.50400000000E-02 0.  1.
         23    2    1    2    0    0  0.00000000000E+00  0.00000000000E+00  0.12269070566E+03  0.15387562401E+03  0.92869254387E+02 0.  0.
    9000005    2    3    3    0    0  0.72038731377E+01 -0.40688136487E+02  0.95597154971E+02  0.10446428192E+03  0.81578133454E+01 0.  0.
         22    1    3    3    0    0 -0.72038731377E+01  0.40688136487E+02  0.27093550686E+02  0.49411342096E+02  0.00000000000E+00 0.  1.
         22    1    4    4    0    0  0.11233233857E+01 -0.28161791306E+02  0.65057892683E+02  0.70900477751E+02  0.00000000000E+00 0. -1.
         22    1    4    4    0    0  0.60805497519E+01 -0.12526345182E+02  0.30539262288E+02  0.33563804165E+02  0.00000000000E+00 0. -1.
<mgrwt>
<rscale>  0 0.92869254E+02</rscale>
<asrwt>0</asrwt>
<pdfrwt beam="1">  1        1 0.21274334E-01 0.92869254E+02</pdfrwt>
<pdfrwt beam="2">  1       -1 0.23988398E-02 0.92869254E+02</pdfrwt>
<totfact> 0.10511542E+05</totfact>
</mgrwt>
</event>
<event>
 7    1  0.3607059E-009  0.9173948E+02  0.7818608E-02  0.1298693E+00
         -1   -1    0    0    0  501 -0.00000000000E+00  0.00000000000E+00  0.26514640010E+03  0.26514640015E+03  0.50400000000E-02 0.  1.
          1   -1    0    0  501    0  0.00000000000E+00 -0.00000000000E+00 -0.79353624816E+01  0.79353640821E+01  0.50400000000E-02 0. -1.
         23    2    1    2    0    0  0.00000000000E+00  0.00000000000E+00  0.25721103762E+03  0.27308176423E+03  0.91739479409E+02 0.  0.
    9000005    2    3    3    0    0 -0.10234010470E+02 -0.17092850502E+02  0.25123302478E+03  0.25228183284E+03  0.11453817226E+02 0.  0.
         22    1    3    3    0    0  0.10234010470E+02  0.17092850502E+02  0.59780128373E+01  0.20799931396E+02  0.00000000000E+00 0. -1.
         22    1    4    4    0    0  0.10066032280E+01 -0.91762934274E+01  0.10156300859E+03  0.10198167642E+03  0.00000000000E+00 0.  1.
         22    1    4    4    0    0 -0.11240613698E+02 -0.79165570742E+01  0.14967001619E+03  0.15030015642E+03  0.00000000000E+00 0.  1.
<mgrwt>
<rscale>  0 0.91739479E+02</rscale>
<asrwt>0</asrwt>
<pdfrwt beam="2">  1        1 0.12208251E-02 0.91739479E+02</pdfrwt>
<pdfrwt beam="1">  1       -1 0.40791755E-01 0.91739479E+02</pdfrwt>
<totfact> 0.62441989E+04</totfact>
</mgrwt>
</event>
<event>
 7    1  0.3607059E-009  0.9943293E+02  0.7818608E-02  0.1281493E+00
         -1   -1    0    0    0  501 -0.00000000000E+00  0.00000000000E+00  0.93832761996E+01  0.93832775531E+01  0.50400000000E-02 0.  1.
          1   -1    0    0  501    0  0.00000000000E+00 -0.00000000000E+00 -0.26341831657E+03  0.26341831662E+03  0.50400000000E-02 0. -1.
         23    2    1    2    0    0 -0.22204460493E-15  0.00000000000E+00 -0.25403504037E+03  0.27280159417E+03  0.99432932404E+02 0.  0.
    9000005    2    3    3    0    0 -0.16418226676E+01  0.23264299832E+02 -0.24705093389E+03  0.24845614343E+03  0.12343745226E+02 0.  0.
         22    1    3    3    0    0  0.16418226676E+01 -0.23264299832E+02 -0.69841064839E+01  0.24345450740E+02  0.00000000000E+00 0.  1.
         22    1    4    4    0    0 -0.29689922952E+01  0.19036752084E+01 -0.74436120882E+02  0.74519628196E+02  0.00000000000E+00 0. -1.
         22    1    4    4    0    0  0.13271696275E+01  0.21360624624E+02 -0.17261481301E+03  0.17393651524E+03  0.00000000000E+00 0. -1.
<mgrwt>
<rscale>  0 0.99432932E+02</rscale>
<asrwt>0</asrwt>
<pdfrwt beam="2">  1        1 0.40525889E-01 0.99432932E+02</pdfrwt>
<pdfrwt beam="1">  1       -1 0.14435813E-02 0.99432932E+02</pdfrwt>
<totfact> 0.99013437E+04</totfact>
</mgrwt>
</event>
<event>
 7    1  0.3607059E-009  0.9379613E+02  0.7818608E-02  0.1293911E+00
         -1   -1    0    0    0  501 -0.00000000000E+00  0.00000000000E+00  0.67110792774E+01  0.67110811700E+01  0.50400000000E-02 0.  1.
          1   -1    0    0  501    0  0.00000000000E+00 -0.00000000000E+00 -0.32773089947E+03  0.32773089951E+03  0.50400000000E-02 0. -1.
         23    2    1    2    0    0 -0.71054273576E-14  0.00000000000E+00 -0.32101982019E+03  0.33444198068E+03  0.93796127232E+02 0.  0.
    9000005    2    3    3    0    0 -0.37915910447E+02 -0.22466215803E+02 -0.10708969592E+03  0.11601935092E+03  0.70668026025E+01 0.  0.
         22    1    3    3    0    0  0.37915910447E+02  0.22466215803E+02 -0.21393012427E+03  0.21842262976E+03  0.00000000000E+00 0. -1.
         22    1    4    4    0    0 -0.35910268771E+02 -0.22451806242E+02 -0.10440789543E+03  0.11267049141E+03  0.00000000000E+00 0. -1.
         22    1    4    4    0    0 -0.20056416766E+01 -0.14409561042E-01 -0.26818004925E+01  0.33488595151E+01  0.00000000000E+00 0. -1.
<mgrwt>
<rscale>  0 0.93796127E+02</rscale>
<asrwt>0</asrwt>
<pdfrwt beam="2">  1        1 0.50420126E-01 0.93796127E+02</pdfrwt>
<pdfrwt beam="1">  1       -1 0.10324741E-02 0.93796127E+02</pdfrwt>
<totfact> 0.12079030E+05</totfact>
</mgrwt>
</event>
<event>
 7    1  0.3607059E-009  0.8923623E+02  0.7818608E-02  0.1304712E+00
         -1   -1    0    0    0  501 -0.00000000000E+00  0.00000000000E+00  0.14938825156E+01  0.14938910175E+01  0.50400000000E-02 0.  1.
          1   -1    0    0  501    0  0.00000000000E+00 -0.00000000000E+00 -0.13326153091E+04  0.13326153091E+04  0.50400000000E-02 0. -1.
         23    2    1    2    0    0  0.00000000000E+00  0.00000000000E+00 -0.13311214266E+04  0.13341092001E+04  0.89236234521E+02 0.  0.
    9000005    2    3    3    0    0 -0.19716873900E+02  0.15835118689E+02 -0.12129969131E+04  0.12133080959E+04  0.10747941663E+02 0.  0.
         22    1    3    3    0    0  0.19716873900E+02 -0.15835118689E+02 -0.11812451351E+03  0.12080110427E+03  0.00000000000E+00 0.  1.
         22    1    4    4    0    0 -0.17880598164E+02  0.10827752894E+02 -0.78613640252E+03  0.78641426703E+03  0.00000000000E+00 0.  1.
         22    1    4    4    0    0 -0.18362757359E+01  0.50073657952E+01 -0.42686051056E+03  0.42689382884E+03  0.00000000000E+00 0.  1.
<mgrwt>
<rscale>  0 0.89236235E+02</rscale>
<asrwt>0</asrwt>
<pdfrwt beam="2">  1        1 0.20501679E+00 0.89236235E+02</pdfrwt>
<pdfrwt beam="1">  1       -1 0.22982980E-03 0.89236235E+02</pdfrwt>
<totfact> 0.12730880E+05</totfact>
</mgrwt>
</event>
<event>
 7    1  0.3607059E-009  0.1023368E+03  0.7818608E-02  0.1275457E+00
          1   -1    0    0  501    0  0.00000000000E+00  0.00000000000E+00  0.11319153386E+03  0.11319153397E+03  0.50400000000E-02 0. -1.
         -1   -1    0    0    0  501 -0.00000000000E+00 -0.00000000000E+00 -0.23130733432E+02  0.23130733982E+02  0.50400000000E-02 0.  1.
         23    2    1    2    0    0  0.00000000000E+00  0.88817841970E-15  0.90060800429E+02  0.13632226796E+03  0.10233676254E+03 0.  0.
    9000005    2    3    3    0    0  0.50057725154E+02 -0.52876142616E+01  0.56398252802E+02  0.75767319149E+02  0.51175208614E+01 0.  0.
         22    1    3    3    0    0 -0.50057725154E+02  0.52876142616E+01  0.33662547627E+02  0.60554948806E+02  0.00000000000E+00 0.  1.
         22    1    4    4    0    0  0.20722493282E+02 -0.45562550818E+01  0.25040612080E+02  0.32820929931E+02  0.00000000000E+00 0. -1.
         22    1    4    4    0    0  0.29335231872E+02 -0.73135917975E+00  0.31357640722E+02  0.42946389219E+02  0.00000000000E+00 0. -1.
<mgrwt>
<rscale>  0 0.10233676E+03</rscale>
<asrwt>0</asrwt>
<pdfrwt beam="1">  1        1 0.17414082E-01 0.10233676E+03</pdfrwt>
<pdfrwt beam="2">  1       -1 0.35585744E-02 0.10233676E+03</pdfrwt>
<totfact> 0.77746749E+04</totfact>
</mgrwt>
</event>
<event>
 7    1  0.3607059E-009  0.9012467E+02  0.7818608E-02  0.1302550E+00
         -1   -1    0    0    0  501 -0.00000000000E+00  0.00000000000E+00  0.70231061723E+02  0.70231061904E+02  0.50400000000E-02 0.  1.
          1   -1    0    0  501    0  0.00000000000E+00 -0.00000000000E+00 -0.28913330287E+02  0.28913330727E+02  0.50400000000E-02 0. -1.
         23    2    1    2    0    0  0.00000000000E+00  0.00000000000E+00  0.41317731436E+02  0.99144392630E+02  0.90124667317E+02 0.  0.
    9000005    2    3    3    0    0 -0.25458312608E+02 -0.13269835198E+02 -0.15613063254E+02  0.35384455436E+02  0.13567525026E+02 0.  0.
         22    1    3    3    0    0  0.25458312608E+02  0.13269835198E+02  0.56930794689E+02  0.63759937194E+02  0.00000000000E+00 0.  1.
         22    1    4    4    0    0  0.69085161179E+00 -0.38005207471E+01 -0.27574348586E+01  0.47460173723E+01  0.00000000000E+00 0.  1.
         22    1    4    4    0    0 -0.26149164220E+02 -0.94693144510E+01 -0.12855628395E+02  0.30638438064E+02  0.00000000000E+00 0.  1.
<mgrwt>
<rscale>  0 0.90124667E+02</rscale>
<asrwt>0</asrwt>
<pdfrwt beam="2">  1        1 0.44482047E-02 0.90124667E+02</pdfrwt>
<pdfrwt beam="1">  1       -1 0.10804779E-01 0.90124667E+02</pdfrwt>
<totfact> 0.89088700E+04</totfact>
</mgrwt>
</event>
<event>
 7    1  0.3607059E-009  0.9386497E+02  0.7818608E-02  0.1293753E+00
          1   -1    0    0  501    0  0.00000000000E+00  0.00000000000E+00  0.30396955645E+03  0.30396955649E+03  0.50400000000E-02 0. -1.
         -1   -1    0    0    0  501 -0.00000000000E+00 -0.00000000000E+00 -0.72463102755E+01  0.72463120282E+01  0.50400000000E-02 0.  1.
         23    2    1    2    0    0  0.35527136788E-14  0.00000000000E+00  0.29672324618E+03  0.31121586852E+03  0.93864966832E+02 0.  0.
    9000005    2    3    3    0    0  0.17085960017E+02 -0.42407404216E+02  0.15374395018E+03  0.16110458631E+03  0.15072078588E+02 0.  0.
         22    1    3    3    0    0 -0.17085960017E+02  0.42407404216E+02  0.14297929600E+03  0.15011128221E+03  0.00000000000E+00 0.  1.
         22    1    4    4    0    0  0.24901165890E+01 -0.41429492156E+01  0.55687494942E+01  0.73739866938E+01  0.00000000000E+00 0. -1.
         22    1    4    4    0    0  0.14595843428E+02 -0.38264455000E+02  0.14817520068E+03  0.15373059962E+03  0.00000000000E+00 0. -1.
<mgrwt>
<rscale>  0 0.93864967E+02</rscale>
<asrwt>0</asrwt>
<pdfrwt beam="1">  1        1 0.46764535E-01 0.93864967E+02</pdfrwt>
<pdfrwt beam="2">  1       -1 0.11148174E-02 0.93864967E+02</pdfrwt>
<totfact> 0.11885617E+05</totfact>
</mgrwt>
</event>
<event>
 7    1  0.3607059E-009  0.9128567E+02  0.7818608E-02  0.1299768E+00
          1   -1    0    0  501    0  0.00000000000E+00  0.00000000000E+00  0.71200736045E+02  0.71200736223E+02  0.50400000000E-02 0. -1.
         -1   -1    0    0    0  501 -0.00000000000E+00 -0.00000000000E+00 -0.29259081665E+02  0.29259082100E+02  0.50400000000E-02 0.  1.
         23    2    1    2    0    0  0.00000000000E+00  0.00000000000E+00  0.41941654379E+02  0.10045981832E+03  0.91285665498E+02 0.  0.
    9000005    2    3    3    0    0  0.20395977510E+02  0.25573813612E+02 -0.13961549963E+02  0.35689577494E+02  0.29673596188E+01 0.  0.
         22    1    3    3    0    0 -0.20395977510E+02 -0.25573813612E+02  0.55903204342E+02  0.64770240828E+02  0.00000000000E+00 0. -1.
         22    1    4    4    0    0  0.14431683581E+02  0.20129976899E+02 -0.10677150118E+02  0.26972040998E+02  0.00000000000E+00 0. -1.
         22    1    4    4    0    0  0.59642939289E+01  0.54438367127E+01 -0.32843998452E+01  0.87175364965E+01  0.00000000000E+00 0. -1.
<mgrwt>
<rscale>  0 0.91285665E+02</rscale>
<asrwt>0</asrwt>
<pdfrwt beam="1">  1        1 0.10953959E-01 0.91285665E+02</pdfrwt>
<pdfrwt beam="2">  1       -1 0.45013973E-02 0.91285665E+02</pdfrwt>
<totfact> 0.98601598E+04</totfact>
</mgrwt>
</event>
<event>
 7    1  0.3607059E-009  0.9020560E+02  0.7818608E-02  0.1302355E+00
         -1   -1    0    0    0  501 -0.00000000000E+00  0.00000000000E+00  0.72409211769E+03  0.72409211771E+03  0.50400000000E-02 0.  1.
          1   -1    0    0  501    0  0.00000000000E+00 -0.00000000000E+00 -0.28093954323E+01  0.28093999531E+01  0.50400000000E-02 0. -1.
         23    2    1    2    0    0 -0.17763568394E-14  0.00000000000E+00  0.72128272226E+03  0.72690151766E+03  0.90205603761E+02 0.  0.
    9000005    2    3    3    0    0 -0.10092270283E+02  0.35530937272E+02  0.56320776702E+03  0.56456854844E+03  0.13052035555E+02 0.  0.
         22    1    3    3    0    0  0.10092270283E+02 -0.35530937272E+02  0.15807495524E+03  0.16233296922E+03  0.00000000000E+00 0. -1.
         22    1    4    4    0    0 -0.27988485500E+01  0.25363180819E+02  0.43624469777E+03  0.43699034408E+03  0.00000000000E+00 0.  1.
         22    1    4    4    0    0 -0.72934217330E+01  0.10167756453E+02  0.12696306925E+03  0.12757820435E+03  0.00000000000E+00 0.  1.
<mgrwt>
<rscale>  0 0.90205604E+02</rscale>
<asrwt>0</asrwt>
<pdfrwt beam="2">  1        1 0.43221463E-03 0.90205604E+02</pdfrwt>
<pdfrwt beam="1">  1       -1 0.11139889E+00 0.90205604E+02</pdfrwt>
<totfact> 0.36806863E+04</totfact>
</mgrwt>
</event>
<event>
 7    1  0.3607059E-009  0.9033644E+02  0.7818608E-02  0.1302039E+00
          1   -1    0    0  501    0  0.00000000000E+00  0.00000000000E+00  0.17334725795E+03  0.17334725802E+03  0.50400000000E-02 0. -1.
         -1   -1    0    0    0  501 -0.00000000000E+00 -0.00000000000E+00 -0.11769255614E+02  0.11769256693E+02  0.50400000000E-02 0.  1.
         23    2    1    2    0    0  0.00000000000E+00  0.00000000000E+00  0.16157800233E+03  0.18511651471E+03  0.90336444372E+02 0.  0.
    9000005    2    3    3    0    0 -0.15864592982E+02 -0.37665734881E+02  0.44126042844E+02  0.60756731495E+02  0.85953400281E+01 0.  0.
         22    1    3    3    0    0  0.15864592982E+02  0.37665734881E+02  0.11745195949E+03  0.12435978322E+03  0.00000000000E+00 0. -1.
         22    1    4    4    0    0 -0.14223133626E+02 -0.24054813754E+02  0.27494035379E+02  0.39202724093E+02  0.00000000000E+00 0.  1.
         22    1    4    4    0    0 -0.16414593555E+01 -0.13610921127E+02  0.16632007465E+02  0.21554007401E+02  0.00000000000E+00 0.  1.
<mgrwt>
<rscale>  0 0.90336444E+02</rscale>
<asrwt>0</asrwt>
<pdfrwt beam="1">  1        1 0.26668807E-01 0.90336444E+02</pdfrwt>
<pdfrwt beam="2">  1       -1 0.18106549E-02 0.90336444E+02</pdfrwt>
<totfact> 0.11809989E+05</totfact>
</mgrwt>
</event>
<event>
 7    1  0.3607059E-009  0.9084147E+02  0.7818608E-02  0.1300827E+00
          1   -1    0    0  501    0  0.00000000000E+00  0.00000000000E+00  0.12656115276E+03  0.12656115286E+03  0.50400000000E-02 0. -1.
         -1   -1    0    0    0  501 -0.00000000000E+00 -0.00000000000E+00 -0.16300760000E+02  0.16300760779E+02  0.50400000000E-02 0.  1.
         23    2    1    2    0    0  0.00000000000E+00 -0.17763568394E-14  0.11026039276E+03  0.14286191364E+03  0.90841467169E+02 0.  0.
    9000005    2    3    3    0    0  0.39042906940E+02 -0.13351772487E+02  0.30889479159E+02  0.53406000830E+02  0.13979363043E+02 0.  0.
         22    1    3    3    0    0 -0.39042906940E+02  0.13351772487E+02  0.79370913603E+02  0.89455912812E+02  0.00000000000E+00 0. -1.
         22    1    4    4    0    0  0.28881710915E+02 -0.15269719791E+02  0.26911334033E+02  0.42326557471E+02  0.00000000000E+00 0.  1.
         22    1    4    4    0    0  0.10161196025E+02  0.19179473038E+01  0.39781451263E+01  0.11079443360E+02  0.00000000000E+00 0.  1.
<mgrwt>
<rscale>  0 0.90841467E+02</rscale>
<asrwt>0</asrwt>
<pdfrwt beam="1">  1        1 0.19470946E-01 0.90841467E+02</pdfrwt>
<pdfrwt beam="2">  1       -1 0.25078094E-02 0.90841467E+02</pdfrwt>
<totfact> 0.10983957E+05</totfact>
</mgrwt>
</event>
<event>
 7    1  0.3607059E-009  0.9074073E+02  0.7818608E-02  0.1301068E+00
         -1   -1    0    0    0  501 -0.00000000000E+00  0.00000000000E+00  0.61215351445E+01  0.61215372192E+01  0.50400000000E-02 0.  1.
          1   -1    0    0  501    0  0.00000000000E+00 -0.00000000000E+00 -0.33626687185E+03  0.33626687189E+03  0.50400000000E-02 0. -1.
         23    2    1    2    0    0  0.00000000000E+00  0.00000000000E+00 -0.33014533671E+03  0.34238840911E+03  0.90740725931E+02 0.  0.
    9000005    2    3    3    0    0 -0.27906787761E+02 -0.27936930913E+02 -0.96917986593E+02  0.10584188567E+03  0.15816059051E+02 0.  0.
         22    1    3    3    0    0  0.27906787761E+02  0.27936930913E+02 -0.23322735012E+03  0.23654652345E+03  0.00000000000E+00 0. -1.
         22    1    4    4    0    0 -0.29586968031E+02 -0.24513194677E+02 -0.91260110372E+02  0.99018650443E+02  0.00000000000E+00 0. -1.
         22    1    4    4    0    0  0.16801802704E+01 -0.34237362361E+01 -0.56578762214E+01  0.68232352218E+01  0.00000000000E+00 0. -1.
<mgrwt>
<rscale>  0 0.90740726E+02</rscale>
<asrwt>0</asrwt>
<pdfrwt beam="2">  1        1 0.51733351E-01 0.90740726E+02</pdfrwt>
<pdfrwt beam="1">  1       -1 0.94177506E-03 0.90740726E+02</pdfrwt>
<totfact> 0.13256288E+05</totfact>
</mgrwt>
</event>
<event>
 7    1  0.3607059E-009  0.9293670E+02  0.7818608E-02  0.1295892E+00
          1   -1    0    0  501    0  0.00000000000E+00  0.00000000000E+00  0.38100814105E+02  0.38100814438E+02  0.50400000000E-02 0. -1.
         -1   -1    0    0    0  501 -0.00000000000E+00 -0.00000000000E+00 -0.56673524705E+02  0.56673524929E+02  0.50400000000E-02 0.  1.
         23    2    1    2    0    0  0.71054273576E-14  0.00000000000E+00 -0.18572710600E+02  0.94774339367E+02  0.92936697937E+02 0.  0.
    9000005    2    3    3    0    0  0.43488146868E+02 -0.12390771437E+02 -0.14011702377E+02  0.49325984823E+02  0.13855498566E+02 0.  0.
         22    1    3    3    0    0 -0.43488146868E+02  0.12390771437E+02 -0.45610082222E+01  0.45448354544E+02  0.00000000000E+00 0.  1.
         22    1    4    4    0    0  0.16101010956E+02 -0.37958700337E+00 -0.10475089589E+02  0.19212343481E+02  0.00000000000E+00 0.  1.
         22    1    4    4    0    0  0.27387135911E+02 -0.12011184433E+02 -0.35366127881E+01  0.30113641343E+02  0.00000000000E+00 0.  1.
<mgrwt>
<rscale>  0 0.92936698E+02</rscale>
<asrwt>0</asrwt>
<pdfrwt beam="1">  1        1 0.58616637E-02 0.92936698E+02</pdfrwt>
<pdfrwt beam="2">  1       -1 0.87190039E-02 0.92936698E+02</pdfrwt>
<totfact> 0.85238991E+04</totfact>
</mgrwt>
</event>
<event>
 7    1  0.3607059E-009  0.9041579E+02  0.7818608E-02  0.1301848E+00
         -1   -1    0    0    0  501 -0.00000000000E+00  0.00000000000E+00  0.31791549324E+01  0.31791589274E+01  0.50400000000E-02 0.  1.
          1   -1    0    0  501    0  0.00000000000E+00 -0.00000000000E+00 -0.64286023060E+03  0.64286023062E+03  0.50400000000E-02 0. -1.
         23    2    1    2    0    0  0.00000000000E+00  0.00000000000E+00 -0.63968107567E+03  0.64603938955E+03  0.90415785564E+02 0.  0.
    9000005    2    3    3    0    0 -0.19649406781E+02 -0.18350290120E+02 -0.57696905497E+03  0.57780721331E+03  0.15654169524E+02 0.  0.
         22    1    3    3    0    0  0.19649406781E+02  0.18350290120E+02 -0.62712020697E+02  0.68232176238E+02  0.00000000000E+00 0.  1.
         22    1    4    4    0    0 -0.18013384622E+02 -0.83965588457E+01 -0.44973601589E+03  0.45017493069E+03  0.00000000000E+00 0. -1.
         22    1    4    4    0    0 -0.16360221597E+01 -0.99537312742E+01 -0.12723303908E+03  0.12763228263E+03  0.00000000000E+00 0. -1.
<mgrwt>
<rscale>  0 0.90415786E+02</rscale>
<asrwt>0</asrwt>
<pdfrwt beam="2">  1        1 0.98901471E-01 0.90415786E+02</pdfrwt>
<pdfrwt beam="1">  1       -1 0.48910158E-03 0.90415786E+02</pdfrwt>
<totfact> 0.14522013E+05</totfact>
</mgrwt>
</event>
<event>
 7    1  0.3607059E-009  0.9241051E+02  0.7818608E-02  0.1297117E+00
          1   -1    0    0  501    0  0.00000000000E+00  0.00000000000E+00  0.81029070999E+02  0.81029071156E+02  0.50400000000E-02 0. -1.
         -1   -1    0    0    0  501 -0.00000000000E+00 -0.00000000000E+00 -0.26347649365E+02  0.26347649847E+02  0.50400000000E-02 0.  1.
         23    2    1    2    0    0  0.00000000000E+00  0.00000000000E+00  0.54681421634E+02  0.10737672100E+03  0.92410509907E+02 0.  0.
    9000005    2    3    3    0    0 -0.24196883304E+02  0.33046166753E+02  0.25854182655E+01  0.41108086901E+02  0.23774192647E+01 0.  0.
         22    1    3    3    0    0  0.24196883304E+02 -0.33046166753E+02  0.52096003369E+02  0.66268634102E+02  0.00000000000E+00 0. -1.
         22    1    4    4    0    0 -0.90650864094E+01  0.10772924620E+02  0.27670634328E+00  0.14082196664E+02  0.00000000000E+00 0. -1.
         22    1    4    4    0    0 -0.15131796895E+02  0.22273242133E+02  0.23087119223E+01  0.27025890237E+02  0.00000000000E+00 0. -1.
<mgrwt>
<rscale>  0 0.92410510E+02</rscale>
<asrwt>0</asrwt>
<pdfrwt beam="1">  1        1 0.12466011E-01 0.92410510E+02</pdfrwt>
<pdfrwt beam="2">  1       -1 0.40534846E-02 0.92410510E+02</pdfrwt>
<totfact> 0.97286612E+04</totfact>
</mgrwt>
</event>
<event>
 7    1  0.3607059E-009  0.9432537E+02  0.7818608E-02  0.1292703E+00
          1   -1    0    0  501    0  0.00000000000E+00  0.00000000000E+00  0.70330453659E+02  0.70330453840E+02  0.50400000000E-02 0. -1.
         -1   -1    0    0    0  501 -0.00000000000E+00 -0.00000000000E+00 -0.31626683940E+02  0.31626684342E+02  0.50400000000E-02 0.  1.
         23    2    1    2    0    0  0.00000000000E+00  0.00000000000E+00  0.38703769719E+02  0.10195713818E+03  0.94325374294E+02 0.  0.
    9000005    2    3    3    0    0  0.18628872529E+02  0.15128368728E+02  0.62167800323E+02  0.68394314041E+02  0.15396245129E+02 0.  0.
         22    1    3    3    0    0 -0.18628872529E+02 -0.15128368728E+02 -0.23464030604E+02  0.33562824140E+02  0.00000000000E+00 0.  1.
         22    1    4    4    0    0  0.16452060414E+02  0.18271048373E+02  0.55625836768E+02  0.60817227959E+02  0.00000000000E+00 0.  1.
         22    1    4    4    0    0  0.21768121153E+01 -0.31426796450E+01  0.65419635559E+01  0.75770860826E+01  0.00000000000E+00 0.  1.
<mgrwt>
<rscale>  0 0.94325374E+02</rscale>
<asrwt>0</asrwt>
<pdfrwt beam="1">  1        1 0.10820070E-01 0.94325374E+02</pdfrwt>
<pdfrwt beam="2">  1       -1 0.48656437E-02 0.94325374E+02</pdfrwt>
<totfact> 0.89886970E+04</totfact>
</mgrwt>
</event>
<event>
 7    1  0.3607059E-009  0.8918465E+02  0.7818608E-02  0.1304838E+00
          1   -1    0    0  501    0  0.00000000000E+00  0.00000000000E+00  0.50437713920E+01  0.50437739101E+01  0.50400000000E-02 0. -1.
         -1   -1    0    0    0  501 -0.00000000000E+00 -0.00000000000E+00 -0.39424364246E+03  0.39424364249E+03  0.50400000000E-02 0.  1.
         23    2    1    2    0    0  0.35527136788E-14  0.00000000000E+00 -0.38919987107E+03  0.39928741640E+03  0.89184646986E+02 0.  0.
    9000005    2    3    3    0    0  0.26084573113E+02  0.34451057435E+02 -0.20020212171E+03  0.20541263832E+03  0.15690192251E+02 0.  0.
         22    1    3    3    0    0 -0.26084573113E+02 -0.34451057435E+02 -0.18899774936E+03  0.19387477809E+03  0.00000000000E+00 0. -1.
         22    1    4    4    0    0 -0.19801914488E+01  0.76293817718E+00 -0.87045901941E+01  0.89595269564E+01  0.00000000000E+00 0.  1.
         22    1    4    4    0    0  0.28064764562E+02  0.33688119257E+02 -0.19149753151E+03  0.19645311136E+03  0.00000000000E+00 0.  1.
<mgrwt>
<rscale>  0 0.89184647E+02</rscale>
<asrwt>0</asrwt>
<pdfrwt beam="1">  1        1 0.77596534E-03 0.89184647E+02</pdfrwt>
<pdfrwt beam="2">  1       -1 0.60652844E-01 0.89184647E+02</pdfrwt>
<totfact> 0.56873223E+04</totfact>
</mgrwt>
</event>
<event>
 7    1  0.3607059E-009  0.9110902E+02  0.7818608E-02  0.1300188E+00
          1   -1    0    0  501    0  0.00000000000E+00  0.00000000000E+00  0.10258679839E+02  0.10258681077E+02  0.50400000000E-02 0. -1.
         -1   -1    0    0    0  501 -0.00000000000E+00 -0.00000000000E+00 -0.20228853165E+03  0.20228853171E+03  0.50400000000E-02 0.  1.
         23    2    1    2    0    0  0.00000000000E+00  0.00000000000E+00 -0.19202985181E+03  0.21254721279E+03  0.91109020837E+02 0.  0.
    9000005    2    3    3    0    0 -0.18405613144E+02 -0.34285143855E+02 -0.14921077243E+03  0.15468780350E+03  0.12256600565E+02 0.  0.
         22    1    3    3    0    0  0.18405613144E+02  0.34285143855E+02 -0.42819079377E+02  0.57859409287E+02  0.00000000000E+00 0. -1.
         22    1    4    4    0    0 -0.18145350862E+02 -0.22964665666E+02 -0.11422778362E+03  0.11791783656E+03  0.00000000000E+00 0. -1.
         22    1    4    4    0    0 -0.26026228202E+00 -0.11320478189E+02 -0.34982988808E+02  0.36769966941E+02  0.00000000000E+00 0. -1.
<mgrwt>
<rscale>  0 0.91109021E+02</rscale>
<asrwt>0</asrwt>
<pdfrwt beam="1">  1        1 0.15782587E-02 0.91109021E+02</pdfrwt>
<pdfrwt beam="2">  1       -1 0.31121310E-01 0.91109021E+02</pdfrwt>
<totfact> 0.69332472E+04</totfact>
</mgrwt>
</event>
<event>
 7    1  0.3607059E-009  0.8746493E+02  0.7818608E-02  0.1309109E+00
          1   -1    0    0  501    0  0.00000000000E+00  0.00000000000E+00  0.15924183697E+03  0.15924183705E+03  0.50400000000E-02 0. -1.
         -1   -1    0    0    0  501 -0.00000000000E+00 -0.00000000000E+00 -0.12010212710E+02  0.12010213767E+02  0.50400000000E-02 0.  1.
         23    2    1    2    0    0  0.00000000000E+00  0.00000000000E+00  0.14723162426E+03  0.17125205082E+03  0.87464928553E+02 0.  0.
    9000005    2    3    3    0    0  0.63753846437E+01  0.38923109761E+02  0.44665799501E+02  0.61363914918E+02  0.14657503410E+02 0.  0.
         22    1    3    3    0    0 -0.63753846437E+01 -0.38923109761E+02  0.10256582476E+03  0.10988813590E+03  0.00000000000E+00 0.  1.
         22    1    4    4    0    0  0.15560057385E+01  0.32229883512E+02  0.41408604087E+02  0.52496276415E+02  0.00000000000E+00 0.  1.
         22    1    4    4    0    0  0.48193789052E+01  0.66932262487E+01  0.32571954142E+01  0.88676385027E+01  0.00000000000E+00 0.  1.
<mgrwt>
<rscale>  0 0.87464929E+02</rscale>
<asrwt>0</asrwt>
<pdfrwt beam="1">  1        1 0.24498744E-01 0.87464929E+02</pdfrwt>
<pdfrwt beam="2">  1       -1 0.18477252E-02 0.87464929E+02</pdfrwt>
<totfact> 0.12676861E+05</totfact>
</mgrwt>
</event>
<event>
 7    1  0.3607059E-009  0.8997629E+02  0.7818608E-02  0.1302909E+00
         -1   -1    0    0    0  501 -0.00000000000E+00  0.00000000000E+00  0.82343614446E+02  0.82343614601E+02  0.50400000000E-02 0.  1.
          1   -1    0    0  501    0  0.00000000000E+00 -0.00000000000E+00 -0.24579112119E+02  0.24579112636E+02  0.50400000000E-02 0. -1.
         23    2    1    2    0    0  0.00000000000E+00  0.00000000000E+00  0.57764502327E+02  0.10692272724E+03  0.89976285045E+02 0.  0.
    9000005    2    3    3    0    0  0.37535757115E+02  0.12481671737E+02  0.40582189230E+01  0.40221227488E+02  0.60458918531E+01 0.  0.
         22    1    3    3    0    0 -0.37535757115E+02 -0.12481671737E+02  0.53706283404E+02  0.66701499748E+02  0.00000000000E+00 0.  1.
         22    1    4    4    0    0  0.36978858369E+02  0.12958601965E+02  0.35822961750E+01  0.39347098712E+02  0.00000000000E+00 0. -1.
         22    1    4    4    0    0  0.55689874597E+00 -0.47693022805E+00  0.47592274800E+00  0.87412877642E+00  0.00000000000E+00 0. -1.
<mgrwt>
<rscale>  0 0.89976285E+02</rscale>
<asrwt>0</asrwt>
<pdfrwt beam="2">  1        1 0.37814019E-02 0.89976285E+02</pdfrwt>
<pdfrwt beam="1">  1       -1 0.12668248E-01 0.89976285E+02</pdfrwt>
<totfact> 0.87142935E+04</totfact>
</mgrwt>
</event>
<event>
 7    1  0.3607059E-009  0.9109591E+02  0.7818608E-02  0.1300219E+00
         -1   -1    0    0    0  501 -0.00000000000E+00  0.00000000000E+00  0.87184079591E+01  0.87184094159E+01  0.50400000000E-02 0.  1.
          1   -1    0    0  501    0  0.00000000000E+00 -0.00000000000E+00 -0.23795811160E+03  0.23795811165E+03  0.50400000000E-02 0. -1.
         23    2    1    2    0    0  0.00000000000E+00  0.00000000000E+00 -0.22923970364E+03  0.24667652107E+03  0.91095907270E+02 0.  0.
    9000005    2    3    3    0    0  0.43632674979E+02 -0.40320734677E+01 -0.13685456092E+03  0.14442642308E+03  0.14482848412E+02 0.  0.
         22    1    3    3    0    0 -0.43632674979E+02  0.40320734677E+01 -0.92385142723E+02  0.10225009799E+03  0.00000000000E+00 0. -1.
         22    1    4    4    0    0  0.25361031270E+02  0.38335107152E+01 -0.88443161501E+02  0.92087298406E+02  0.00000000000E+00 0.  1.
         22    1    4    4    0    0  0.18271643709E+02 -0.78655841830E+01 -0.48411399414E+02  0.52339124674E+02  0.00000000000E+00 0.  1.
<mgrwt>
<rscale>  0 0.91095907E+02</rscale>
<asrwt>0</asrwt>
<pdfrwt beam="2">  1        1 0.36608935E-01 0.91095907E+02</pdfrwt>
<pdfrwt beam="1">  1       -1 0.13412938E-02 0.91095907E+02</pdfrwt>
<totfact> 0.12277684E+05</totfact>
</mgrwt>
</event>
<event>
 7    1  0.3607059E-009  0.9170042E+02  0.7818608E-02  0.1298785E+00
          1   -1    0    0  501    0  0.00000000000E+00  0.00000000000E+00  0.18540180700E+02  0.18540181385E+02  0.50400000000E-02 0. -1.
         -1   -1    0    0    0  501 -0.00000000000E+00 -0.00000000000E+00 -0.11338840979E+03  0.11338840990E+03  0.50400000000E-02 0.  1.
         23    2    1    2    0    0  0.00000000000E+00  0.88817841970E-15 -0.94848229086E+02  0.13192859128E+03  0.91700417867E+02 0.  0.
    9000005    2    3    3    0    0  0.44030592712E+02 -0.67235061652E+01 -0.59690283647E+02  0.75183725812E+02  0.10284164299E+02 0.  0.
         22    1    3    3    0    0 -0.44030592712E+02  0.67235061652E+01 -0.35157945439E+02  0.56744865470E+02  0.00000000000E+00 0. -1.
         22    1    4    4    0    0  0.37172558285E+02 -0.67123769008E+01 -0.43565611335E+02  0.57661231205E+02  0.00000000000E+00 0.  1.
         22    1    4    4    0    0  0.68580344276E+01 -0.11129264373E-01 -0.16124672313E+02  0.17522494607E+02  0.00000000000E+00 0.  1.
<mgrwt>
<rscale>  0 0.91700418E+02</rscale>
<asrwt>0</asrwt>
<pdfrwt beam="1">  1        1 0.28523356E-02 0.91700418E+02</pdfrwt>
<pdfrwt beam="2">  1       -1 0.17444370E-01 0.91700418E+02</pdfrwt>
<totfact> 0.78264845E+04</totfact>
</mgrwt>
</event>
<event>
 7    1  0.3607059E-009  0.9224256E+02  0.7818608E-02  0.1297510E+00
         -1   -1    0    0    0  501 -0.00000000000E+00  0.00000000000E+00  0.87752653012E+02  0.87752653156E+02  0.50400000000E-02 0.  1.
          1   -1    0    0  501    0  0.00000000000E+00 -0.00000000000E+00 -0.24240549487E+02  0.24240550011E+02  0.50400000000E-02 0. -1.
         23    2    1    2    0    0 -0.71054273576E-14 -0.88817841970E-15  0.63512103525E+02  0.11199320317E+03  0.92242562093E+02 0.  0.
    9000005    2    3    3    0    0  0.44388975912E+02  0.49176279669E+01  0.28520235087E+02  0.55257014503E+02  0.15664277674E+02 0.  0.
         22    1    3    3    0    0 -0.44388975912E+02 -0.49176279669E+01  0.34991868438E+02  0.56736188664E+02  0.00000000000E+00 0. -1.
         22    1    4    4    0    0  0.15327098830E+02 -0.30358270928E+01  0.16757568096E+02  0.22911837403E+02  0.00000000000E+00 0.  1.
         22    1    4    4    0    0  0.29061877082E+02  0.79534550597E+01  0.11762666991E+02  0.32345177100E+02  0.00000000000E+00 0.  1.
<mgrwt>
<rscale>  0 0.92242562E+02</rscale>
<asrwt>0</asrwt>
<pdfrwt beam="2">  1        1 0.37293153E-02 0.92242562E+02</pdfrwt>
<pdfrwt beam="1">  1       -1 0.13500408E-01 0.92242562E+02</pdfrwt>
<totfact> 0.80861980E+04</totfact>
</mgrwt>
</event>
<event>
 7    1  0.3607059E-009  0.9011886E+02  0.7818608E-02  0.1302564E+00
          1   -1    0    0  501    0  0.00000000000E+00  0.00000000000E+00  0.12410951141E+02  0.12410952164E+02  0.50400000000E-02 0. -1.
         -1   -1    0    0    0  501 -0.00000000000E+00 -0.00000000000E+00 -0.16359357974E+03  0.16359357982E+03  0.50400000000E-02 0.  1.
         23    2    1    2    0    0  0.00000000000E+00  0.00000000000E+00 -0.15118262860E+03  0.17600453199E+03  0.90118855343E+02 0.  0.
    9000005    2    3    3    0    0 -0.23584397186E+02  0.74165976818E+01 -0.24876525563E+01  0.25268253628E+02  0.45898272706E+01 0.  0.
         22    1    3    3    0    0  0.23584397186E+02 -0.74165976818E+01 -0.14869497605E+03  0.15073627836E+03  0.00000000000E+00 0.  1.
         22    1    4    4    0    0 -0.20997603261E+02  0.49547208252E+01 -0.21696485607E+01  0.21683080409E+02  0.00000000000E+00 0.  1.
         22    1    4    4    0    0 -0.25867939250E+01  0.24618768566E+01 -0.31800399561E+00  0.35851732188E+01  0.00000000000E+00 0.  1.
<mgrwt>
<rscale>  0 0.90118855E+02</rscale>
<asrwt>0</asrwt>
<pdfrwt beam="1">  1        1 0.19093773E-02 0.90118855E+02</pdfrwt>
<pdfrwt beam="2">  1       -1 0.25168242E-01 0.90118855E+02</pdfrwt>
<totfact> 0.75494897E+04</totfact>
</mgrwt>
</event>
<event>
 7    1  0.3607059E-009  0.9088504E+02  0.7818608E-02  0.1300722E+00
         -1   -1    0    0    0  501 -0.00000000000E+00  0.00000000000E+00  0.53219224453E+02  0.53219224692E+02  0.50400000000E-02 0.  1.
          1   -1    0    0  501    0  0.00000000000E+00 -0.00000000000E+00 -0.38802194759E+02  0.38802195086E+02  0.50400000000E-02 0. -1.
         23    2    1    2    0    0  0.00000000000E+00  0.35527136788E-14  0.14417029694E+02  0.92021419778E+02  0.90885042514E+02 0.  0.
    9000005    2    3    3    0    0 -0.32066611441E+02 -0.31629609384E+02  0.70442979125E+01  0.46380901233E+02  0.85361646536E+01 0.  0.
         22    1    3    3    0    0  0.32066611441E+02  0.31629609384E+02  0.73727317818E+01  0.45640518545E+02  0.00000000000E+00 0. -1.
         22    1    4    4    0    0 -0.12708695772E+02 -0.12700903625E+02 -0.13957628469E+01  0.18021433212E+02  0.00000000000E+00 0. -1.
         22    1    4    4    0    0 -0.19357915669E+02 -0.18928705760E+02  0.84400607594E+01  0.28359468021E+02  0.00000000000E+00 0. -1.
<mgrwt>
<rscale>  0 0.90885043E+02</rscale>
<asrwt>0</asrwt>
<pdfrwt beam="2">  1        1 0.59695685E-02 0.90885043E+02</pdfrwt>
<pdfrwt beam="1">  1       -1 0.81875730E-02 0.90885043E+02</pdfrwt>
<totfact> 0.91066791E+04</totfact>
</mgrwt>
</event>
<event>
 7    1  0.3607059E-009  0.9064291E+02  0.7818608E-02  0.1301302E+00
         -1   -1    0    0    0  501 -0.00000000000E+00  0.00000000000E+00  0.20433718901E+02  0.20433719523E+02  0.50400000000E-02 0.  1.
          1   -1    0    0  501    0  0.00000000000E+00 -0.00000000000E+00 -0.10052179199E+03  0.10052179211E+03  0.50400000000E-02 0. -1.
         23    2    1    2    0    0  0.00000000000E+00  0.00000000000E+00 -0.80088073084E+02  0.12095551163E+03  0.90642905648E+02 0.  0.
    9000005    2    3    3    0    0 -0.16781371861E+02 -0.40210078484E+02 -0.30549071846E+02  0.54981444784E+02  0.13829267032E+02 0.  0.
         22    1    3    3    0    0  0.16781371861E+02  0.40210078484E+02 -0.49539001238E+02  0.65974066851E+02  0.00000000000E+00 0. -1.
         22    1    4    4    0    0 -0.80282489470E+01 -0.51087146105E+01 -0.56897702549E+01  0.11087165178E+02  0.00000000000E+00 0. -1.
         22    1    4    4    0    0 -0.87531229136E+01 -0.35101363873E+02 -0.24859301591E+02  0.43894279606E+02  0.00000000000E+00 0. -1.
<mgrwt>
<rscale>  0 0.90642906E+02</rscale>
<asrwt>0</asrwt>
<pdfrwt beam="2">  1        1 0.15464891E-01 0.90642906E+02</pdfrwt>
<pdfrwt beam="1">  1       -1 0.31436492E-02 0.90642906E+02</pdfrwt>
<totfact> 0.10622782E+05</totfact>
</mgrwt>
</event>
<event>
 7    1  0.3607059E-009  0.9266158E+02  0.7818608E-02  0.1296531E+00
          1   -1    0    0  501    0  0.00000000000E+00  0.00000000000E+00  0.11268350074E+02  0.11268351202E+02  0.50400000000E-02 0.  1.
         -1   -1    0    0    0  501 -0.00000000000E+00 -0.00000000000E+00 -0.19049301830E+03  0.19049301837E+03  0.50400000000E-02 0. -1.
         23    2    1    2    0    0  0.00000000000E+00 -0.35527136788E-14 -0.17922466823E+03  0.20176136957E+03  0.92661580764E+02 0.  0.
    9000005    2    3    3    0    0  0.20302785893E+02 -0.21444687788E+02 -0.16696962068E+03  0.16978850702E+03  0.87866453177E+01 0.  0.
         22    1    3    3    0    0 -0.20302785893E+02  0.21444687788E+02 -0.12255047546E+02  0.31972862551E+02  0.00000000000E+00 0.  1.
         22    1    4    4    0    0  0.96981511335E+01 -0.14197094242E+02 -0.76272150250E+02  0.78186012330E+02  0.00000000000E+00 0.  1.
         22    1    4    4    0    0  0.10604634760E+02 -0.72475935462E+01 -0.90697470434E+02  0.91602494691E+02  0.00000000000E+00 0.  1.
<mgrwt>
<rscale>  0 0.92661581E+02</rscale>
<asrwt>0</asrwt>
<pdfrwt beam="1">  1        1 0.17335925E-02 0.92661581E+02</pdfrwt>
<pdfrwt beam="2">  1       -1 0.29306616E-01 0.92661581E+02</pdfrwt>
<totfact> 0.67478916E+04</totfact>
</mgrwt>
</event>
<event>
 7    1  0.3607059E-009  0.1003111E+03  0.7818608E-02  0.1279643E+00
          1   -1    0    0  501    0  0.00000000000E+00  0.00000000000E+00  0.10902409202E+03  0.10902409214E+03  0.50400000000E-02 0.  1.
         -1   -1    0    0    0  501 -0.00000000000E+00 -0.00000000000E+00 -0.23073623439E+02  0.23073623990E+02  0.50400000000E-02 0. -1.
         23    2    1    2    0    0  0.00000000000E+00  0.00000000000E+00  0.85950468585E+02  0.13209771613E+03  0.10031113376E+03 0.  0.
    9000005    2    3    3    0    0 -0.45485297559E+02 -0.95943057612E+01  0.66419618029E+02  0.81675329033E+02  0.99161845754E+01 0.  0.
         22    1    3    3    0    0  0.45485297559E+02  0.95943057612E+01  0.19530850556E+02  0.50422387097E+02  0.00000000000E+00 0. -1.
         22    1    4    4    0    0 -0.27211268320E+02 -0.31383245327E+01  0.31550313133E+02  0.41781867638E+02  0.00000000000E+00 0. -1.
         22    1    4    4    0    0 -0.18274029239E+02 -0.64559812285E+01  0.34869304895E+02  0.39893461396E+02  0.00000000000E+00 0. -1.
<mgrwt>
<rscale>  0 0.10031113E+03</rscale>
<asrwt>0</asrwt>
<pdfrwt beam="1">  1        1 0.16772937E-01 0.10031113E+03</pdfrwt>
<pdfrwt beam="2">  1       -1 0.35497883E-02 0.10031113E+03</pdfrwt>
<totfact> 0.81600801E+04</totfact>
</mgrwt>
</event>
<event>
 7    1  0.3607059E-009  0.9292823E+02  0.7818608E-02  0.1295912E+00
          1   -1    0    0  501    0  0.00000000000E+00  0.00000000000E+00  0.10850486683E+04  0.10850486683E+04  0.50400000000E-02 0. -1.
         -1   -1    0    0    0  501 -0.00000000000E+00 -0.00000000000E+00 -0.19896902147E+01  0.19896965979E+01  0.50400000000E-02 0.  1.
         23    2    1    2    0    0 -0.44408920985E-15  0.00000000000E+00  0.10830589781E+04  0.10870383649E+04  0.92928234537E+02 0.  0.
    9000005    2    3    3    0    0 -0.35434062925E+01  0.20116494396E+02  0.10278306769E+04  0.10281537802E+04  0.15718336509E+02 0.  0.
         22    1    3    3    0    0  0.35434062925E+01 -0.20116494396E+02  0.55228301147E+02  0.58884584761E+02  0.00000000000E+00 0.  1.
         22    1    4    4    0    0 -0.58820747097E+01  0.57200467466E+00  0.29247821333E+03  0.29253791423E+03  0.00000000000E+00 0.  1.
         22    1    4    4    0    0  0.23386684173E+01  0.19544489721E+02  0.73535246362E+03  0.73561586592E+03  0.00000000000E+00 0.  1.
<mgrwt>
<rscale>  0 0.92928235E+02</rscale>
<asrwt>0</asrwt>
<pdfrwt beam="1">  1        1 0.16693056E+00 0.92928235E+02</pdfrwt>
<pdfrwt beam="2">  1       -1 0.30610669E-03 0.92928235E+02</pdfrwt>
<totfact> 0.12613625E+05</totfact>
</mgrwt>
</event>
<event>
 7    1  0.3607059E-009  0.9194848E+02  0.7818608E-02  0.1298201E+00
          1   -1    0    0  501    0  0.00000000000E+00  0.00000000000E+00  0.16194551601E+03  0.16194551608E+03  0.50400000000E-02 0. -1.
         -1   -1    0    0    0  501 -0.00000000000E+00 -0.00000000000E+00 -0.13051493542E+02  0.13051494515E+02  0.50400000000E-02 0.  1.
         23    2    1    2    0    0 -0.35527136788E-14  0.00000000000E+00  0.14889402246E+03  0.17499701060E+03  0.91948484454E+02 0.  0.
    9000005    2    3    3    0    0 -0.25220690993E+02 -0.86828201694E+01  0.14483999064E+03  0.14801720715E+03  0.14798516960E+02 0.  0.
         22    1    3    3    0    0  0.25220690993E+02  0.86828201694E+01  0.40540318290E+01  0.26979803453E+02  0.00000000000E+00 0.  1.
         22    1    4    4    0    0 -0.74744257084E+01 -0.54643457834E+01  0.22129219760E+02  0.23988090413E+02  0.00000000000E+00 0.  1.
         22    1    4    4    0    0 -0.17746265285E+02 -0.32184743861E+01  0.12271077088E+03  0.12402911673E+03  0.00000000000E+00 0.  1.
<mgrwt>
<rscale>  0 0.91948484E+02</rscale>
<asrwt>0</asrwt>
<pdfrwt beam="1">  1        1 0.24914695E-01 0.91948484E+02</pdfrwt>
<pdfrwt beam="2">  1       -1 0.20079221E-02 0.91948484E+02</pdfrwt>
<totfact> 0.11118051E+05</totfact>
</mgrwt>
</event>
<event>
 7    1  0.3607059E-009  0.9330688E+02  0.7818608E-02  0.1295036E+00
         -1   -1    0    0    0  501 -0.00000000000E+00  0.00000000000E+00  0.14167795722E+03  0.14167795731E+03  0.50400000000E-02 0.  1.
          1   -1    0    0  501    0  0.00000000000E+00 -0.00000000000E+00 -0.15362609754E+02  0.15362610581E+02  0.50400000000E-02 0. -1.
         23    2    1    2    0    0  0.00000000000E+00  0.00000000000E+00  0.12631534747E+03  0.15704056789E+03  0.93306875192E+02 0.  0.
    9000005    2    3    3    0    0  0.33759675747E+02  0.20312094508E+02  0.23327173187E+02  0.46773342791E+02  0.95546688651E+01 0.  0.
         22    1    3    3    0    0 -0.33759675747E+02 -0.20312094508E+02  0.10298817428E+03  0.11026722510E+03  0.00000000000E+00 0.  1.
         22    1    4    4    0    0  0.29511029099E+02  0.13625790982E+02  0.17319914715E+02  0.36831270194E+02  0.00000000000E+00 0.  1.
         22    1    4    4    0    0  0.42486466483E+01  0.66863035259E+01  0.60072584718E+01  0.99420725973E+01  0.00000000000E+00 0.  1.
<mgrwt>
<rscale>  0 0.93306875E+02</rscale>
<asrwt>0</asrwt>
<pdfrwt beam="2">  1        1 0.23634786E-02 0.93306875E+02</pdfrwt>
<pdfrwt beam="1">  1       -1 0.21796608E-01 0.93306875E+02</pdfrwt>
<totfact> 0.71366067E+04</totfact>
</mgrwt>
</event>
<event>
 7    1  0.3607059E-009  0.8906551E+02  0.7818608E-02  0.1305131E+00
         -1   -1    0    0    0  501 -0.00000000000E+00  0.00000000000E+00  0.16248433315E+03  0.16248433323E+03  0.50400000000E-02 0.  1.
          1   -1    0    0  501    0  0.00000000000E+00 -0.00000000000E+00 -0.12205275087E+02  0.12205276128E+02  0.50400000000E-02 0. -1.
         23    2    1    2    0    0  0.00000000000E+00  0.35527136788E-14  0.15027905806E+03  0.17468960935E+03  0.89065505806E+02 0.  0.
    9000005    2    3    3    0    0  0.15437733030E+02 -0.25771903116E+02  0.13902836343E+03  0.14261013428E+03  0.10307762651E+02 0.  0.
         22    1    3    3    0    0 -0.15437733030E+02  0.25771903116E+02  0.11250694635E+02  0.32079475075E+02  0.00000000000E+00 0. -1.
         22    1    4    4    0    0  0.15123363542E+02 -0.26711187919E+02  0.13611005689E+03  0.13952831709E+03  0.00000000000E+00 0. -1.
         22    1    4    4    0    0  0.31436948777E+00  0.93928480303E+00  0.29183065379E+01  0.30818171855E+01  0.00000000000E+00 0. -1.
<mgrwt>
<rscale>  0 0.89065506E+02</rscale>
<asrwt>0</asrwt>
<pdfrwt beam="2">  1        1 0.18777347E-02 0.89065506E+02</pdfrwt>
<pdfrwt beam="1">  1       -1 0.24997590E-01 0.89065506E+02</pdfrwt>
<totfact> 0.77963485E+04</totfact>
</mgrwt>
</event>
<event>
 7    1  0.3607059E-009  0.9902570E+02  0.7818608E-02  0.1282358E+00
          1   -1    0    0  501    0  0.00000000000E+00  0.00000000000E+00  0.18085680344E+02  0.18085681046E+02  0.50400000000E-02 0. -1.
         -1   -1    0    0    0  501 -0.00000000000E+00 -0.00000000000E+00 -0.13555044911E+03  0.13555044921E+03  0.50400000000E-02 0.  1.
         23    2    1    2    0    0 -0.35527136788E-14  0.71054273576E-14 -0.11746476877E+03  0.15363613025E+03  0.99025696751E+02 0.  0.
    9000005    2    3    3    0    0  0.20332338186E+02 -0.45012467146E+02 -0.54747686609E+02  0.73805318098E+02  0.32232926782E+01 0.  0.
         22    1    3    3    0    0 -0.20332338186E+02  0.45012467146E+02 -0.62717082159E+02  0.79830812155E+02  0.00000000000E+00 0.  1.
         22    1    4    4    0    0  0.15104176590E+02 -0.33805408758E+02 -0.43054559063E+02  0.56785886168E+02  0.00000000000E+00 0. -1.
         22    1    4    4    0    0  0.52281615959E+01 -0.11207058389E+02 -0.11693127546E+02  0.17019431930E+02  0.00000000000E+00 0. -1.
<mgrwt>
<rscale>  0 0.99025697E+02</rscale>
<asrwt>0</asrwt>
<pdfrwt beam="1">  1        1 0.27824125E-02 0.99025697E+02</pdfrwt>
<pdfrwt beam="2">  1       -1 0.20853915E-01 0.99025697E+02</pdfrwt>
<totfact> 0.61753628E+04</totfact>
</mgrwt>
</event>
<event>
 7    1  0.3607059E-009  0.9341768E+02  0.7818608E-02  0.1294780E+00
         -1   -1    0    0    0  501 -0.00000000000E+00  0.00000000000E+00  0.42086817222E+03  0.42086817225E+03  0.50400000000E-02 0. -1.
          1   -1    0    0  501    0  0.00000000000E+00 -0.00000000000E+00 -0.51838443937E+01  0.51838468438E+01  0.50400000000E-02 0.  1.
         23    2    1    2    0    0  0.00000000000E+00  0.00000000000E+00  0.41568432782E+03  0.42605201909E+03  0.93417678057E+02 0.  0.
    9000005    2    3    3    0    0  0.97320318265E+01  0.35416117311E+02  0.33768326938E+03  0.33983613350E+03  0.10468687042E+02 0.  0.
         22    1    3    3    0    0 -0.97320318265E+01 -0.35416117311E+02  0.78001058443E+02  0.86215885585E+02  0.00000000000E+00 0.  1.
         22    1    4    4    0    0  0.21100064348E+01  0.24054323472E+02  0.23715738601E+03  0.23838349008E+03  0.00000000000E+00 0. -1.
         22    1    4    4    0    0  0.76220253917E+01  0.11361793839E+02  0.10052588337E+03  0.10145264342E+03  0.00000000000E+00 0. -1.
<mgrwt>
<rscale>  0 0.93417678E+02</rscale>
<asrwt>0</asrwt>
<pdfrwt beam="2">  1        1 0.79751468E-03 0.93417678E+02</pdfrwt>
<pdfrwt beam="1">  1       -1 0.64748953E-01 0.93417678E+02</pdfrwt>
<totfact> 0.48703512E+04</totfact>
</mgrwt>
</event>
<event>
 7    1  0.3607059E-009  0.9202169E+02  0.7818608E-02  0.1298028E+00
         -1   -1    0    0    0  501 -0.00000000000E+00  0.00000000000E+00  0.28231672110E+03  0.28231672114E+03  0.50400000000E-02 0.  1.
          1   -1    0    0  501    0  0.00000000000E+00 -0.00000000000E+00 -0.74986620725E+01  0.74986637662E+01  0.50400000000E-02 0. -1.
         23    2    1    2    0    0 -0.22204460493E-15  0.00000000000E+00  0.27481805903E+03  0.28981538491E+03  0.92021691810E+02 0.  0.
    9000005    2    3    3    0    0 -0.16582226437E+01 -0.40535628051E+02  0.20160734794E+03  0.20611535468E+03  0.13861091044E+02 0.  0.
         22    1    3    3    0    0  0.16582226437E+01  0.40535628051E+02  0.73210711083E+02  0.83700030233E+02  0.00000000000E+00 0.  1.
         22    1    4    4    0    0  0.31597806209E+01 -0.17985830291E+02  0.11723791899E+03  0.11865160746E+03  0.00000000000E+00 0. -1.
         22    1    4    4    0    0 -0.48180032646E+01 -0.22549797760E+02  0.84369428956E+02  0.87463747215E+02  0.00000000000E+00 0. -1.
<mgrwt>
<rscale>  0 0.92021692E+02</rscale>
<asrwt>0</asrwt>
<pdfrwt beam="2">  1        1 0.11536406E-02 0.92021692E+02</pdfrwt>
<pdfrwt beam="1">  1       -1 0.43433337E-01 0.92021692E+02</pdfrwt>
<totfact> 0.60537871E+04</totfact>
</mgrwt>
</event>
<event>
 7    1  0.3607059E-009  0.9062677E+02  0.7818608E-02  0.1301341E+00
          1   -1    0    0  501    0  0.00000000000E+00  0.00000000000E+00  0.83026324652E+03  0.83026324653E+03  0.50400000000E-02 0. -1.
         -1   -1    0    0    0  501 -0.00000000000E+00 -0.00000000000E+00 -0.24730716997E+01  0.24730768354E+01  0.50400000000E-02 0.  1.
         23    2    1    2    0    0  0.00000000000E+00  0.00000000000E+00  0.82779017482E+03  0.83273632337E+03  0.90626766090E+02 0.  0.
    9000005    2    3    3    0    0 -0.21491116113E+02 -0.18866481880E+02  0.73446241603E+03  0.73512544912E+03  0.12512920494E+02 0.  0.
         22    1    3    3    0    0  0.21491116113E+02  0.18866481880E+02  0.93327758791E+02  0.97610874247E+02  0.00000000000E+00 0.  1.
         22    1    4    4    0    0 -0.23063974493E+02 -0.16747435150E+02  0.65671951268E+03  0.65733776846E+03  0.00000000000E+00 0. -1.
         22    1    4    4    0    0  0.15728583805E+01 -0.21190467304E+01  0.77742903342E+02  0.77787680661E+02  0.00000000000E+00 0. -1.
<mgrwt>
<rscale>  0 0.90626766E+02</rscale>
<asrwt>0</asrwt>
<pdfrwt beam="1">  1        1 0.12773294E+00 0.90626766E+02</pdfrwt>
<pdfrwt beam="2">  1       -1 0.38047256E-03 0.90626766E+02</pdfrwt>
<totfact> 0.14304628E+05</totfact>
</mgrwt>
</event>
<event>
 7    1  0.3607059E-009  0.8597872E+02  0.7818608E-02  0.1312893E+00
          1   -1    0    0  501    0  0.00000000000E+00  0.00000000000E+00  0.28553752768E+03  0.28553752772E+03  0.50400000000E-02 0. -1.
         -1   -1    0    0    0  501 -0.00000000000E+00 -0.00000000000E+00 -0.64723015065E+01  0.64723034689E+01  0.50400000000E-02 0.  1.
         23    2    1    2    0    0  0.00000000000E+00  0.00000000000E+00  0.27906522617E+03  0.29200983119E+03  0.85978724428E+02 0.  0.
    9000005    2    3    3    0    0 -0.37177352586E+02 -0.19213224495E+02  0.14147870691E+03  0.14819970003E+03  0.13986530686E+02 0.  0.
         22    1    3    3    0    0  0.37177352586E+02  0.19213224495E+02  0.13758651926E+03  0.14381013116E+03  0.00000000000E+00 0. -1.
         22    1    4    4    0    0 -0.10920844335E+02 -0.13295412547E+02  0.54297335034E+02  0.56958172615E+02  0.00000000000E+00 0. -1.
         22    1    4    4    0    0 -0.26256508252E+02 -0.59178119481E+01  0.87181371874E+02  0.91241527419E+02  0.00000000000E+00 0. -1.
<mgrwt>
<rscale>  0 0.85978724E+02</rscale>
<asrwt>0</asrwt>
<pdfrwt beam="1">  1        1 0.43928852E-01 0.85978724E+02</pdfrwt>
<pdfrwt beam="2">  1       -1 0.99573881E-03 0.85978724E+02</pdfrwt>
<totfact> 0.14833327E+05</totfact>
</mgrwt>
</event>
<event>
 7    1  0.3607059E-009  0.9168020E+02  0.7818608E-02  0.1298833E+00
         -1   -1    0    0    0  501 -0.00000000000E+00  0.00000000000E+00  0.15299415021E+02  0.15299415851E+02  0.50400000000E-02 0.  1.
          1   -1    0    0  501    0  0.00000000000E+00 -0.00000000000E+00 -0.13734607330E+03  0.13734607339E+03  0.50400000000E-02 0. -1.
         23    2    1    2    0    0  0.35527136788E-14  0.00000000000E+00 -0.12204665828E+03  0.15264548924E+03  0.91680197365E+02 0.  0.
    9000005    2    3    3    0    0  0.31886215952E+02  0.17566722819E+02 -0.19521944269E+02  0.43849177260E+02  0.14707940709E+02 0.  0.
         22    1    3    3    0    0 -0.31886215952E+02 -0.17566722819E+02 -0.10252471401E+03  0.10879631198E+03  0.00000000000E+00 0. -1.
         22    1    4    4    0    0  0.15155369176E+02  0.70205992518E+01 -0.96713027081E+00  0.16730492212E+02  0.00000000000E+00 0.  1.
         22    1    4    4    0    0  0.16730846777E+02  0.10546123568E+02 -0.18554813999E+02  0.27118685047E+02  0.00000000000E+00 0.  1.
<mgrwt>
<rscale>  0 0.91680197E+02</rscale>
<asrwt>0</asrwt>
<pdfrwt beam="2">  1        1 0.21130164E-01 0.91680197E+02</pdfrwt>
<pdfrwt beam="1">  1       -1 0.23537563E-02 0.91680197E+02</pdfrwt>
<totfact> 0.10871583E+05</totfact>
</mgrwt>
</event>
<event>
 7    1  0.3607059E-009  0.9160964E+02  0.7818608E-02  0.1299000E+00
         -1   -1    0    0    0  501 -0.00000000000E+00  0.00000000000E+00  0.18432888319E+03  0.18432888326E+03  0.50400000000E-02 0.  1.
          1   -1    0    0  501    0  0.00000000000E+00 -0.00000000000E+00 -0.11382271813E+02  0.11382272929E+02  0.50400000000E-02 0. -1.
         23    2    1    2    0    0  0.00000000000E+00  0.00000000000E+00  0.17294661137E+03  0.19571115619E+03  0.91609640703E+02 0.  0.
    9000005    2    3    3    0    0 -0.40631009127E+02 -0.14777921971E+02  0.11353351694E+03  0.12223203214E+03  0.13473838788E+02 0.  0.
         22    1    3    3    0    0  0.40631009127E+02  0.14777921971E+02  0.59413094436E+02  0.73479124048E+02  0.00000000000E+00 0. -1.
         22    1    4    4    0    0 -0.29589864731E+02 -0.16784049510E+02  0.82951093134E+02  0.89655720759E+02  0.00000000000E+00 0. -1.
         22    1    4    4    0    0 -0.11041144395E+02  0.20061275392E+01  0.30582423806E+02  0.32576311380E+02  0.00000000000E+00 0. -1.
<mgrwt>
<rscale>  0 0.91609641E+02</rscale>
<asrwt>0</asrwt>
<pdfrwt beam="2">  1        1 0.17511189E-02 0.91609641E+02</pdfrwt>
<pdfrwt beam="1">  1       -1 0.28358289E-01 0.91609641E+02</pdfrwt>
<totfact> 0.70145488E+04</totfact>
</mgrwt>
</event>
<event>
 7    1  0.3607059E-009  0.9076148E+02  0.7818608E-02  0.1301018E+00
         -1   -1    0    0    0  501 -0.00000000000E+00  0.00000000000E+00  0.73598576093E+02  0.73598576265E+02  0.50400000000E-02 0.  1.
          1   -1    0    0  501    0  0.00000000000E+00 -0.00000000000E+00 -0.27981674891E+02  0.27981675345E+02  0.50400000000E-02 0. -1.
         23    2    1    2    0    0 -0.35527136788E-14  0.35527136788E-14  0.45616901202E+02  0.10158025161E+03  0.90761477742E+02 0.  0.
    9000005    2    3    3    0    0  0.16503278957E+02 -0.18279833293E+02 -0.19730130594E+02  0.31746555689E+02  0.34720632640E+01 0.  0.
         22    1    3    3    0    0 -0.16503278957E+02  0.18279833293E+02  0.65347031795E+02  0.69833695921E+02  0.00000000000E+00 0.  1.
         22    1    4    4    0    0  0.12768141737E+02 -0.11947233231E+02 -0.14624249140E+02  0.22795404980E+02  0.00000000000E+00 0. -1.
         22    1    4    4    0    0  0.37351372204E+01 -0.63326000612E+01 -0.51058814536E+01  0.89511507087E+01  0.00000000000E+00 0. -1.
<mgrwt>
<rscale>  0 0.90761478E+02</rscale>
<asrwt>0</asrwt>
<pdfrwt beam="2">  1        1 0.43048731E-02 0.90761478E+02</pdfrwt>
<pdfrwt beam="1">  1       -1 0.11322858E-01 0.90761478E+02</pdfrwt>
<totfact> 0.86841391E+04</totfact>
</mgrwt>
</event>
<event>
 7    1  0.3607059E-009  0.9091372E+02  0.7818608E-02  0.1300654E+00
         -1   -1    0    0    0  501 -0.00000000000E+00  0.00000000000E+00  0.15118174423E+03  0.15118174432E+03  0.50400000000E-02 0.  1.
          1   -1    0    0  501    0  0.00000000000E+00 -0.00000000000E+00 -0.13667829068E+02  0.13667829997E+02  0.50400000000E-02 0. -1.
         23    2    1    2    0    0  0.88817841970E-15  0.00000000000E+00  0.13751391516E+03  0.16484957431E+03  0.90913724416E+02 0.  0.
    9000005    2    3    3    0    0 -0.51191170140E+01  0.25095006780E+02  0.13598595772E+03  0.13919222881E+03  0.15044305921E+02 0.  0.
         22    1    3    3    0    0  0.51191170140E+01 -0.25095006780E+02  0.15279574481E+01  0.25657345503E+02  0.00000000000E+00 0. -1.
         22    1    4    4    0    0  0.54396096818E+00  0.30638041229E+01  0.31687544460E+01  0.44411478220E+01  0.00000000000E+00 0.  1.
         22    1    4    4    0    0 -0.56630779822E+01  0.22031202657E+02  0.13281720327E+03  0.13475108099E+03  0.00000000000E+00 0.  1.
<mgrwt>
<rscale>  0 0.90913724E+02</rscale>
<asrwt>0</asrwt>
<pdfrwt beam="2">  1        1 0.21027431E-02 0.90913724E+02</pdfrwt>
<pdfrwt beam="1">  1       -1 0.23258729E-01 0.90913724E+02</pdfrwt>
<totfact> 0.75213010E+04</totfact>
</mgrwt>
</event>
<event>
 7    1  0.3607059E-009  0.9470686E+02  0.7818608E-02  0.1291838E+00
         -1   -1    0    0    0  501 -0.00000000000E+00  0.00000000000E+00  0.61201077492E+02  0.61201077699E+02  0.50400000000E-02 0.  1.
          1   -1    0    0  501    0  0.00000000000E+00 -0.00000000000E+00 -0.36639014168E+02  0.36639014514E+02  0.50400000000E-02 0. -1.
         23    2    1    2    0    0 -0.35527136788E-14  0.00000000000E+00  0.24562063324E+02  0.97840092214E+02  0.94706856614E+02 0.  0.
    9000005    2    3    3    0    0 -0.28802589444E+02 -0.12637016615E+02  0.48116782930E+02  0.58544950487E+02  0.11090675381E+02 0.  0.
         22    1    3    3    0    0  0.28802589444E+02  0.12637016615E+02 -0.23554719605E+02  0.39295141727E+02  0.00000000000E+00 0. -1.
         22    1    4    4    0    0 -0.26777399905E+02 -0.75692394588E+01  0.38788446716E+02  0.47737470925E+02  0.00000000000E+00 0.  1.
         22    1    4    4    0    0 -0.20251895397E+01 -0.50677771565E+01  0.93283362132E+01  0.10807479562E+02  0.00000000000E+00 0.  1.
<mgrwt>
<rscale>  0 0.94706857E+02</rscale>
<asrwt>0</asrwt>
<pdfrwt beam="2">  1        1 0.56367715E-02 0.94706857E+02</pdfrwt>
<pdfrwt beam="1">  1       -1 0.94155504E-02 0.94706857E+02</pdfrwt>
<totfact> 0.80275894E+04</totfact>
</mgrwt>
</event>
<event>
 7    1  0.3607059E-009  0.9105780E+02  0.7818608E-02  0.1300310E+00
         -1   -1    0    0    0  501 -0.00000000000E+00  0.00000000000E+00  0.34589213688E+02  0.34589214055E+02  0.50400000000E-02 0.  1.
          1   -1    0    0  501    0  0.00000000000E+00 -0.00000000000E+00 -0.59928533372E+02  0.59928533584E+02  0.50400000000E-02 0. -1.
         23    2    1    2    0    0  0.35527136788E-14 -0.35527136788E-14 -0.25339319684E+02  0.94517747639E+02  0.91057803052E+02 0.  0.
    9000005    2    3    3    0    0 -0.19812610981E+02  0.22669650636E+02 -0.47340024301E+02  0.57228558623E+02  0.11295016925E+02 0.  0.
         22    1    3    3    0    0  0.19812610981E+02 -0.22669650636E+02  0.22000704618E+02  0.37289189016E+02  0.00000000000E+00 0.  1.
         22    1    4    4    0    0  0.93247402920E+00 -0.34577793796E+00 -0.63445315556E+00  0.11796613938E+01  0.00000000000E+00 0. -1.
         22    1    4    4    0    0 -0.20745085010E+02  0.23015428574E+02 -0.46705571146E+02  0.56048897229E+02  0.00000000000E+00 0. -1.
<mgrwt>
<rscale>  0 0.91057803E+02</rscale>
<asrwt>0</asrwt>
<pdfrwt beam="2">  1        1 0.92197744E-02 0.91057803E+02</pdfrwt>
<pdfrwt beam="1">  1       -1 0.53214176E-02 0.91057803E+02</pdfrwt>
<totfact> 0.96704015E+04</totfact>
</mgrwt>
</event>
<event>
 7    1  0.3607059E-009  0.8728985E+02  0.7818608E-02  0.1309551E+00
          1   -1    0    0  501    0  0.00000000000E+00  0.00000000000E+00  0.82633821835E+02  0.82633821988E+02  0.50400000000E-02 0. -1.
         -1   -1    0    0    0  501 -0.00000000000E+00 -0.00000000000E+00 -0.23052053695E+02  0.23052054246E+02  0.50400000000E-02 0.  1.
         23    2    1    2    0    0  0.88817841970E-15  0.00000000000E+00  0.59581768140E+02  0.10568587623E+03  0.87289846721E+02 0.  0.
    9000005    2    3    3    0    0  0.26707720672E+01  0.41338549005E+02  0.41210382814E+02  0.60370134421E+02  0.15173952055E+02 0.  0.
         22    1    3    3    0    0 -0.26707720672E+01 -0.41338549005E+02  0.18371385326E+02  0.45315741813E+02  0.00000000000E+00 0.  1.
         22    1    4    4    0    0  0.85238432382E+01  0.18815589764E+02  0.16602544174E+02  0.26501448918E+02  0.00000000000E+00 0. -1.
         22    1    4    4    0    0 -0.58530711710E+01  0.22522959241E+02  0.24607838641E+02  0.33868685502E+02  0.00000000000E+00 0. -1.
<mgrwt>
<rscale>  0 0.87289847E+02</rscale>
<asrwt>0</asrwt>
<pdfrwt beam="1">  1        1 0.12712896E-01 0.87289847E+02</pdfrwt>
<pdfrwt beam="2">  1       -1 0.35464699E-02 0.87289847E+02</pdfrwt>
<totfact> 0.11405944E+05</totfact>
</mgrwt>
</event>
<event>
 7    1  0.3607059E-009  0.9169696E+02  0.7818608E-02  0.1298794E+00
         -1   -1    0    0    0  501 -0.00000000000E+00  0.00000000000E+00  0.81539600390E+01  0.81539615967E+01  0.50400000000E-02 0.  1.
          1   -1    0    0  501    0  0.00000000000E+00 -0.00000000000E+00 -0.25779900873E+03  0.25779900878E+03  0.50400000000E-02 0. -1.
         23    2    1    2    0    0  0.00000000000E+00  0.00000000000E+00 -0.24964504869E+03  0.26595297038E+03  0.91696958052E+02 0.  0.
    9000005    2    3    3    0    0 -0.36229033798E+02 -0.27619858203E+02 -0.12128338472E+03  0.12974681694E+03  0.70126770327E+01 0.  0.
         22    1    3    3    0    0  0.36229033798E+02  0.27619858203E+02 -0.12836166397E+03  0.13620615344E+03  0.00000000000E+00 0.  1.
         22    1    4    4    0    0 -0.27260692293E+02 -0.16856488681E+02 -0.82144527554E+02  0.88176016932E+02  0.00000000000E+00 0. -1.
         22    1    4    4    0    0 -0.89683415050E+01 -0.10763369522E+02 -0.39138857170E+02  0.41570800010E+02  0.00000000000E+00 0. -1.
<mgrwt>
<rscale>  0 0.91696958E+02</rscale>
<asrwt>0</asrwt>
<pdfrwt beam="2">  1        1 0.39661380E-01 0.91696958E+02</pdfrwt>
<pdfrwt beam="1">  1       -1 0.12544557E-02 0.91696958E+02</pdfrwt>
<totfact> 0.12253506E+05</totfact>
</mgrwt>
</event>
<event>
 7    1  0.3607059E-009  0.9118074E+02  0.7818608E-02  0.1300017E+00
         -1   -1    0    0    0  501 -0.00000000000E+00  0.00000000000E+00  0.11128776546E+03  0.11128776558E+03  0.50400000000E-02 0.  1.
          1   -1    0    0  501    0  0.00000000000E+00 -0.00000000000E+00 -0.18676642789E+02  0.18676643469E+02  0.50400000000E-02 0. -1.
         23    2    1    2    0    0  0.00000000000E+00  0.00000000000E+00  0.92611122672E+02  0.12996440904E+03  0.91180741255E+02 0.  0.
    9000005    2    3    3    0    0 -0.13741298548E+02 -0.31806746927E+02  0.86846192607E+02  0.94839960942E+02  0.15870242132E+02 0.  0.
         22    1    3    3    0    0  0.13741298548E+02  0.31806746927E+02  0.57649300641E+01  0.35124448102E+02  0.00000000000E+00 0. -1.
         22    1    4    4    0    0 -0.10392591322E+02 -0.19592638171E+02  0.71934311798E+02  0.75275644392E+02  0.00000000000E+00 0. -1.
         22    1    4    4    0    0 -0.33487072258E+01 -0.12214108756E+02  0.14911880810E+02  0.19564316550E+02  0.00000000000E+00 0. -1.
<mgrwt>
<rscale>  0 0.91180741E+02</rscale>
<asrwt>0</asrwt>
<pdfrwt beam="2">  1        1 0.28733298E-02 0.91180741E+02</pdfrwt>
<pdfrwt beam="1">  1       -1 0.17121194E-01 0.91180741E+02</pdfrwt>
<totfact> 0.79716729E+04</totfact>
</mgrwt>
</event>
<event>
 7    1  0.3607059E-009  0.9283717E+02  0.7818608E-02  0.1296123E+00
         -1   -1    0    0    0  501 -0.00000000000E+00  0.00000000000E+00  0.71059586830E+02  0.71059587009E+02  0.50400000000E-02 0.  1.
          1   -1    0    0  501    0  0.00000000000E+00 -0.00000000000E+00 -0.30322226478E+02  0.30322226897E+02  0.50400000000E-02 0. -1.
         23    2    1    2    0    0  0.00000000000E+00  0.00000000000E+00  0.40737360352E+02  0.10138181391E+03  0.92837167462E+02 0.  0.
    9000005    2    3    3    0    0  0.19986184643E+02  0.36561796324E+02  0.41013995365E+02  0.59713011980E+02  0.12136039586E+02 0.  0.
         22    1    3    3    0    0 -0.19986184643E+02 -0.36561796324E+02 -0.27663501219E+00  0.41668801927E+02  0.00000000000E+00 0. -1.
         22    1    4    4    0    0  0.43587373333E+01  0.14246808904E+02  0.21684018907E+02  0.26309063667E+02  0.00000000000E+00 0.  1.
         22    1    4    4    0    0  0.15627447310E+02  0.22314987421E+02  0.19329976458E+02  0.33403948313E+02  0.00000000000E+00 0.  1.
<mgrwt>
<rscale>  0 0.92837167E+02</rscale>
<asrwt>0</asrwt>
<pdfrwt beam="2">  1        1 0.46649581E-02 0.92837167E+02</pdfrwt>
<pdfrwt beam="1">  1       -1 0.10932244E-01 0.92837167E+02</pdfrwt>
<totfact> 0.82440858E+04</totfact>
</mgrwt>
</event>
<event>
 7    1  0.3607059E-009  0.9092486E+02  0.7818608E-02  0.1300627E+00
          1   -1    0    0  501    0  0.00000000000E+00  0.00000000000E+00  0.15490728083E+03  0.15490728091E+03  0.50400000000E-02 0. -1.
         -1   -1    0    0    0  501 -0.00000000000E+00 -0.00000000000E+00 -0.13342384418E+02  0.13342385370E+02  0.50400000000E-02 0.  1.
         23    2    1    2    0    0  0.00000000000E+00  0.00000000000E+00  0.14156489641E+03  0.16824966628E+03  0.90924860778E+02 0.  0.
    9000005    2    3    3    0    0 -0.24585936610E+02 -0.15275113370E+02  0.85615377867E+01  0.32133205950E+02  0.11020237199E+02 0.  0.
         22    1    3    3    0    0  0.24585936610E+02  0.15275113370E+02  0.13300335862E+03  0.13611646033E+03  0.00000000000E+00 0. -1.
         22    1    4    4    0    0 -0.13576194466E+02 -0.26471151467E+01  0.64002298285E+01  0.15240840418E+02  0.00000000000E+00 0.  1.
         22    1    4    4    0    0 -0.11009742144E+02 -0.12627998223E+02  0.21613079582E+01  0.16892365532E+02  0.00000000000E+00 0.  1.
<mgrwt>
<rscale>  0 0.90924861E+02</rscale>
<asrwt>0</asrwt>
<pdfrwt beam="1">  1        1 0.23831889E-01 0.90924861E+02</pdfrwt>
<pdfrwt beam="2">  1       -1 0.20526746E-02 0.90924861E+02</pdfrwt>
<totfact> 0.11364529E+05</totfact>
</mgrwt>
</event>
<event>
 7    1  0.3607059E-009  0.9034426E+02  0.7818608E-02  0.1302020E+00
         -1   -1    0    0    0  501 -0.00000000000E+00  0.00000000000E+00  0.25283687751E+03  0.25283687756E+03  0.50400000000E-02 0.  1.
          1   -1    0    0  501    0  0.00000000000E+00 -0.00000000000E+00 -0.80705037711E+01  0.80705053448E+01  0.50400000000E-02 0. -1.
         23    2    1    2    0    0  0.00000000000E+00  0.00000000000E+00  0.24476637374E+03  0.26090738291E+03  0.90344256825E+02 0.  0.
    9000005    2    3    3    0    0  0.25309504987E+02  0.31486325631E+02  0.17548044668E+03  0.18070451867E+03  0.15125348040E+02 0.  0.
         22    1    3    3    0    0 -0.25309504987E+02 -0.31486325631E+02  0.69285927058E+02  0.80202864243E+02  0.00000000000E+00 0. -1.
         22    1    4    4    0    0  0.74239233867E+01  0.20655275870E+02  0.10007671717E+03  0.10245537750E+03  0.00000000000E+00 0. -1.
         22    1    4    4    0    0  0.17885581600E+02  0.10831049761E+02  0.75403729515E+02  0.78249141163E+02  0.00000000000E+00 0. -1.
<mgrwt>
<rscale>  0 0.90344257E+02</rscale>
<asrwt>0</asrwt>
<pdfrwt beam="2">  1        1 0.12416162E-02 0.90344257E+02</pdfrwt>
<pdfrwt beam="1">  1       -1 0.38897977E-01 0.90344257E+02</pdfrwt>
<totfact> 0.66079713E+04</totfact>
</mgrwt>
</event>
<event>
 7    1  0.3607059E-009  0.9151172E+02  0.7818608E-02  0.1299232E+00
          1   -1    0    0  501    0  0.00000000000E+00  0.00000000000E+00  0.26518091469E+01  0.26518139364E+01  0.50400000000E-02 0. -1.
         -1   -1    0    0    0  501 -0.00000000000E+00 -0.00000000000E+00 -0.78949756516E+03  0.78949756518E+03  0.50400000000E-02 0.  1.
         23    2    1    2    0    0  0.44408920985E-15  0.71054273576E-14 -0.78684575601E+03  0.79214937911E+03  0.91511720956E+02 0.  0.
    9000005    2    3    3    0    0  0.25402499056E+01  0.35499653478E+02 -0.63762344969E+03  0.63874150783E+03  0.12663805330E+02 0.  0.
         22    1    3    3    0    0 -0.25402499056E+01 -0.35499653478E+02 -0.14922230633E+03  0.15340787128E+03  0.00000000000E+00 0. -1.
         22    1    4    4    0    0 -0.23091724989E+01  0.11800322433E+02 -0.13434082959E+03  0.13487786469E+03  0.00000000000E+00 0.  1.
         22    1    4    4    0    0  0.48494224045E+01  0.23699331045E+02 -0.50328262010E+03  0.50386364314E+03  0.00000000000E+00 0.  1.
<mgrwt>
<rscale>  0 0.91511721E+02</rscale>
<asrwt>0</asrwt>
<pdfrwt beam="1">  1        1 0.40797164E-03 0.91511721E+02</pdfrwt>
<pdfrwt beam="2">  1       -1 0.12146098E+00 0.91511721E+02</pdfrwt>
<totfact> 0.32752975E+04</totfact>
</mgrwt>
</event>
<event>
 7    1  0.3607059E-009  0.9445956E+02  0.7818608E-02  0.1292398E+00
         -1   -1    0    0    0  501 -0.00000000000E+00  0.00000000000E+00  0.10993787956E+02  0.10993789112E+02  0.50400000000E-02 0.  1.
          1   -1    0    0  501    0  0.00000000000E+00 -0.00000000000E+00 -0.20290114179E+03  0.20290114185E+03  0.50400000000E-02 0. -1.
         23    2    1    2    0    0 -0.35527136788E-14  0.00000000000E+00 -0.19190735383E+03  0.21389493096E+03  0.94459562971E+02 0.  0.
    9000005    2    3    3    0    0  0.26566314605E+02 -0.99043612684E+01 -0.18085632481E+03  0.18346483589E+03  0.12102493079E+02 0.  0.
         22    1    3    3    0    0 -0.26566314605E+02  0.99043612684E+01 -0.11051029018E+02  0.30430095073E+02  0.00000000000E+00 0.  1.
         22    1    4    4    0    0  0.39816379442E+01  0.76568650052E+00 -0.55273755128E+02  0.55422267388E+02  0.00000000000E+00 0.  1.
         22    1    4    4    0    0  0.22584676661E+02 -0.10670047769E+02 -0.12558256968E+03  0.12804256850E+03  0.00000000000E+00 0.  1.
<mgrwt>
<rscale>  0 0.94459563E+02</rscale>
<asrwt>0</asrwt>
<pdfrwt beam="2">  1        1 0.31215558E-01 0.94459563E+02</pdfrwt>
<pdfrwt beam="1">  1       -1 0.16913522E-02 0.94459563E+02</pdfrwt>
<totfact> 0.10796728E+05</totfact>
</mgrwt>
</event>
<event>
 7    1  0.3607059E-009  0.9187221E+02  0.7818608E-02  0.1298380E+00
          1   -1    0    0  501    0  0.00000000000E+00  0.00000000000E+00  0.35594685608E+03  0.35594685611E+03  0.50400000000E-02 0. -1.
         -1   -1    0    0    0  501 -0.00000000000E+00 -0.00000000000E+00 -0.59282037362E+01  0.59282058786E+01  0.50400000000E-02 0.  1.
         23    2    1    2    0    0  0.00000000000E+00 -0.35527136788E-14  0.35001865234E+03  0.36187506199E+03  0.91872212909E+02 0.  0.
    9000005    2    3    3    0    0 -0.20894264198E+02  0.19942778061E+02  0.31470385551E+03  0.31625248481E+03  0.11951267934E+02 0.  0.
         22    1    3    3    0    0  0.20894264198E+02 -0.19942778061E+02  0.35314796837E+02  0.45622577183E+02  0.00000000000E+00 0.  1.
         22    1    4    4    0    0 -0.20984201024E+02  0.18117325365E+02  0.30945875094E+03  0.31069807322E+03  0.00000000000E+00 0.  1.
         22    1    4    4    0    0  0.89936826388E-01  0.18254526961E+01  0.52451045699E+01  0.55544115914E+01  0.00000000000E+00 0.  1.
<mgrwt>
<rscale>  0 0.91872213E+02</rscale>
<asrwt>0</asrwt>
<pdfrwt beam="1">  1        1 0.54761046E-01 0.91872213E+02</pdfrwt>
<pdfrwt beam="2">  1       -1 0.91203167E-03 0.91872213E+02</pdfrwt>
<totfact> 0.12958118E+05</totfact>
</mgrwt>
</event>
<event>
 7    1  0.3607059E-009  0.1124577E+03  0.7818608E-02  0.1256085E+00
          1   -1    0    0  501    0  0.00000000000E+00  0.00000000000E+00  0.89973212241E+03  0.89973212242E+03  0.50400000000E-02 0. -1.
         -1   -1    0    0    0  501 -0.00000000000E+00 -0.00000000000E+00 -0.35140233919E+01  0.35140270062E+01  0.50400000000E-02 0.  1.
         23    2    1    2    0    0  0.00000000000E+00 -0.17763568394E-14  0.89621809902E+03  0.90324614943E+03  0.11245766071E+03 0.  0.
    9000005    2    3    3    0    0 -0.44660381590E+02 -0.14117428030E+02  0.69424838968E+03  0.69591642424E+03  0.11179959464E+02 0.  0.
         22    1    3    3    0    0  0.44660381590E+02  0.14117428030E+02  0.20196970933E+03  0.20732972519E+03  0.00000000000E+00 0.  1.
         22    1    4    4    0    0 -0.25122790707E+02 -0.11128250336E+02  0.46820512175E+03  0.46901069135E+03  0.00000000000E+00 0.  1.
         22    1    4    4    0    0 -0.19537590883E+02 -0.29891776940E+01  0.22604326793E+03  0.22690573289E+03  0.00000000000E+00 0.  1.
<mgrwt>
<rscale>  0 0.11245766E+03</rscale>
<asrwt>0</asrwt>
<pdfrwt beam="1">  1        1 0.13842052E+00 0.11245766E+03</pdfrwt>
<pdfrwt beam="2">  1       -1 0.54061849E-03 0.11245766E+03</pdfrwt>
<totfact> 0.79498326E+04</totfact>
</mgrwt>
</event>
<event>
 7    1  0.4297289E-009  0.1001810E+03  0.7818608E-02  0.1279916E+00
          1   -1    0    0  501    0  0.00000000000E+00  0.00000000000E+00  0.35952563147E+03  0.35952563150E+03  0.50400000000E-02 0.  1.
         -1   -1    0    0    0  501 -0.00000000000E+00 -0.00000000000E+00 -0.69787978568E+01  0.69787996768E+01  0.50400000000E-02 0. -1.
         23    2    1    2    0    0  0.00000000000E+00  0.00000000000E+00  0.35254683361E+03  0.36650443118E+03  0.10018097716E+03 0.  0.
    9000005    2    3    3    0    0 -0.20221213316E+02  0.36137584753E+02  0.27612359017E+03  0.27958300323E+03  0.14408197094E+02 0.  0.
         22    1    3    3    0    0  0.20221213316E+02 -0.36137584753E+02  0.76423243435E+02  0.86921427951E+02  0.00000000000E+00 0. -1.
         22    1    4    4    0    0 -0.11858188958E+02  0.24052207949E+02  0.13096427663E+03  0.13368158851E+03  0.00000000000E+00 0. -1.
         22    1    4    4    0    0 -0.83630243578E+01  0.12085376804E+02  0.14515931354E+03  0.14590141472E+03  0.00000000000E+00 0. -1.
<mgrwt>
<rscale>  0 0.10018098E+03</rscale>
<asrwt>0</asrwt>
<pdfrwt beam="1">  1        1 0.55311650E-01 0.10018098E+03</pdfrwt>
<pdfrwt beam="2">  1       -1 0.10736611E-02 0.10018098E+03</pdfrwt>
<totfact> 0.10299017E+05</totfact>
</mgrwt>
</event>
<event>
 7    1  0.3607059E-009  0.9138222E+02  0.7818608E-02  0.1299539E+00
         -1   -1    0    0    0  501 -0.00000000000E+00  0.00000000000E+00  0.77447291841E+01  0.77447308240E+01  0.50400000000E-02 0.  1.
          1   -1    0    0  501    0  0.00000000000E+00 -0.00000000000E+00 -0.26956106544E+03  0.26956106549E+03  0.50400000000E-02 0. -1.
         23    2    1    2    0    0  0.71054273576E-14  0.35527136788E-14 -0.26181633626E+03  0.27730579631E+03  0.91382223312E+02 0.  0.
    9000005    2    3    3    0    0  0.33475554067E+02  0.29290683635E+02 -0.13045400918E+03  0.13861687158E+03  0.14759122874E+02 0.  0.
         22    1    3    3    0    0 -0.33475554067E+02 -0.29290683635E+02 -0.13136232708E+03  0.13868892473E+03  0.00000000000E+00 0.  1.
         22    1    4    4    0    0  0.12406072471E+02  0.15341432321E+02 -0.77057631436E+02  0.79543376483E+02  0.00000000000E+00 0. -1.
         22    1    4    4    0    0  0.21069481596E+02  0.13949251315E+02 -0.53396377744E+02  0.59073495098E+02  0.00000000000E+00 0. -1.
<mgrwt>
<rscale>  0 0.91382223E+02</rscale>
<asrwt>0</asrwt>
<pdfrwt beam="2">  1        1 0.41470926E-01 0.91382223E+02</pdfrwt>
<pdfrwt beam="1">  1       -1 0.11914971E-02 0.91382223E+02</pdfrwt>
<totfact> 0.12475060E+05</totfact>
</mgrwt>
</event>
<event>
 7    1  0.3607059E-009  0.9029449E+02  0.7818608E-02  0.1302140E+00
         -1   -1    0    0    0  501 -0.00000000000E+00  0.00000000000E+00  0.15655392344E+02  0.15655393156E+02  0.50400000000E-02 0.  1.
          1   -1    0    0  501    0  0.00000000000E+00 -0.00000000000E+00 -0.13019626011E+03  0.13019626021E+03  0.50400000000E-02 0. -1.
         23    2    1    2    0    0  0.00000000000E+00  0.00000000000E+00 -0.11454086777E+03  0.14585165336E+03  0.90294487098E+02 0.  0.
    9000005    2    3    3    0    0 -0.38383662326E+02 -0.57628381696E+01 -0.92733015387E+02  0.10133089121E+03  0.12728767940E+02 0.  0.
         22    1    3    3    0    0  0.38383662326E+02  0.57628381696E+01 -0.21807852379E+02  0.44520762154E+02  0.00000000000E+00 0.  1.
         22    1    4    4    0    0 -0.21513130675E+02 -0.79758407466E+01 -0.42550752027E+02  0.48342479509E+02  0.00000000000E+00 0.  1.
         22    1    4    4    0    0 -0.16870531652E+02  0.22130025770E+01 -0.50182263360E+02  0.52988411701E+02  0.00000000000E+00 0.  1.
<mgrwt>
<rscale>  0 0.90294487E+02</rscale>
<asrwt>0</asrwt>
<pdfrwt beam="2">  1        1 0.20030193E-01 0.90294487E+02</pdfrwt>
<pdfrwt beam="1">  1       -1 0.24085220E-02 0.90294487E+02</pdfrwt>
<totfact> 0.11220788E+05</totfact>
</mgrwt>
</event>
<event>
 7    1  0.3607059E-009  0.9066871E+02  0.7818608E-02  0.1301240E+00
         -1   -1    0    0    0  501 -0.00000000000E+00  0.00000000000E+00  0.41797966360E+01  0.41797996746E+01  0.50400000000E-02 0.  1.
          1   -1    0    0  501    0  0.00000000000E+00 -0.00000000000E+00 -0.49169927856E+03  0.49169927859E+03  0.50400000000E-02 0. -1.
         23    2    1    2    0    0  0.00000000000E+00  0.00000000000E+00 -0.48751948192E+03  0.49587907826E+03  0.90668710154E+02 0.  0.
    9000005    2    3    3    0    0  0.19687555591E+02  0.23516940394E+02 -0.42527505150E+03  0.42648876590E+03  0.96515118157E+01 0.  0.
         22    1    3    3    0    0 -0.19687555591E+02 -0.23516940394E+02 -0.62244430425E+02  0.69390312361E+02  0.00000000000E+00 0.  1.
         22    1    4    4    0    0  0.13428948916E+02  0.17098638308E+02 -0.23530310428E+03  0.23630541886E+03  0.00000000000E+00 0. -1.
         22    1    4    4    0    0  0.62586066745E+01  0.64183020850E+01 -0.18997194722E+03  0.19018334704E+03  0.00000000000E+00 0. -1.
<mgrwt>
<rscale>  0 0.90668710E+02</rscale>
<asrwt>0</asrwt>
<pdfrwt beam="2">  1        1 0.75645997E-01 0.90668710E+02</pdfrwt>
<pdfrwt beam="1">  1       -1 0.64304626E-03 0.90668710E+02</pdfrwt>
<totfact> 0.14105804E+05</totfact>
</mgrwt>
</event>
<event>
 7    1  0.3607059E-009  0.9458464E+02  0.7818608E-02  0.1292114E+00
          1   -1    0    0  501    0  0.00000000000E+00  0.00000000000E+00  0.34744535695E+02  0.34744536060E+02  0.50400000000E-02 0. -1.
         -1   -1    0    0    0  501 -0.00000000000E+00 -0.00000000000E+00 -0.64371663425E+02  0.64371663623E+02  0.50400000000E-02 0.  1.
         23    2    1    2    0    0  0.00000000000E+00  0.00000000000E+00 -0.29627127730E+02  0.99116199683E+02  0.94584641153E+02 0.  0.
    9000005    2    3    3    0    0  0.13009570431E+02  0.47653867372E+01  0.32381006936E+02  0.35579071967E+02  0.50381463121E+01 0.  0.
         22    1    3    3    0    0 -0.13009570431E+02 -0.47653867372E+01 -0.62008134667E+02  0.63537127716E+02  0.00000000000E+00 0.  1.
         22    1    4    4    0    0  0.48433531717E+01  0.44302388174E+01  0.13942429110E+02  0.15410269803E+02  0.00000000000E+00 0.  1.
         22    1    4    4    0    0  0.81662172593E+01  0.33514791973E+00  0.18438577827E+02  0.20168802164E+02  0.00000000000E+00 0.  1.
<mgrwt>
<rscale>  0 0.94584641E+02</rscale>
<asrwt>0</asrwt>
<pdfrwt beam="1">  1        1 0.53453132E-02 0.94584641E+02</pdfrwt>
<pdfrwt beam="2">  1       -1 0.99033329E-02 0.94584641E+02</pdfrwt>
<totfact> 0.79888116E+04</totfact>
</mgrwt>
</event>
<event>
 7    1  0.3607059E-009  0.9201381E+02  0.7818608E-02  0.1298047E+00
          1   -1    0    0  501    0  0.00000000000E+00  0.00000000000E+00  0.34653851866E+03  0.34653851870E+03  0.50400000000E-02 0. -1.
         -1   -1    0    0    0  501 -0.00000000000E+00 -0.00000000000E+00 -0.61079352271E+01  0.61079373065E+01  0.50400000000E-02 0.  1.
         23    2    1    2    0    0  0.71054273576E-14 -0.35527136788E-14  0.34043058343E+03  0.35264645600E+03  0.92013807633E+02 0.  0.
    9000005    2    3    3    0    0 -0.35496586808E+02  0.28220398771E+02  0.18341019912E+03  0.18920900720E+03  0.10215120268E+02 0.  0.
         22    1    3    3    0    0  0.35496586808E+02 -0.28220398771E+02  0.15702038431E+03  0.16343744880E+03  0.00000000000E+00 0.  1.
         22    1    4    4    0    0 -0.34749716805E+02  0.24555342074E+02  0.17269658858E+03  0.17786123622E+03  0.00000000000E+00 0.  1.
         22    1    4    4    0    0 -0.74687000303E+00  0.36650566971E+01  0.10713610542E+02  0.11347770981E+02  0.00000000000E+00 0.  1.
<mgrwt>
<rscale>  0 0.92013808E+02</rscale>
<asrwt>0</asrwt>
<pdfrwt beam="1">  1        1 0.53313626E-01 0.92013808E+02</pdfrwt>
<pdfrwt beam="2">  1       -1 0.93968237E-03 0.92013808E+02</pdfrwt>
<totfact> 0.12843538E+05</totfact>
</mgrwt>
</event>
<event>
 7    1  0.3607059E-009  0.9130273E+02  0.7818608E-02  0.1299727E+00
          1   -1    0    0  501    0  0.00000000000E+00  0.00000000000E+00  0.14925547064E+03  0.14925547073E+03  0.50400000000E-02 0. -1.
         -1   -1    0    0    0  501 -0.00000000000E+00 -0.00000000000E+00 -0.13962953251E+02  0.13962954160E+02  0.50400000000E-02 0.  1.
         23    2    1    2    0    0  0.00000000000E+00 -0.35527136788E-14  0.13529251739E+03  0.16321842489E+03  0.91302732492E+02 0.  0.
    9000005    2    3    3    0    0  0.23327633242E+02 -0.28861782562E+02  0.25058598725E+02  0.46905494437E+02  0.13964636516E+02 0.  0.
         22    1    3    3    0    0 -0.23327633242E+02  0.28861782562E+02  0.11023391866E+03  0.11631293045E+03  0.00000000000E+00 0. -1.
         22    1    4    4    0    0  0.50265575240E+01 -0.17201524208E+01 -0.55331620159E+00  0.53414757991E+01  0.00000000000E+00 0. -1.
         22    1    4    4    0    0  0.18301075717E+02 -0.27141630141E+02  0.25611914927E+02  0.41564018638E+02  0.00000000000E+00 0. -1.
<mgrwt>
<rscale>  0 0.91302732E+02</rscale>
<asrwt>0</asrwt>
<pdfrwt beam="1">  1        1 0.22962380E-01 0.91302732E+02</pdfrwt>
<pdfrwt beam="2">  1       -1 0.21481467E-02 0.91302732E+02</pdfrwt>
<totfact> 0.11161353E+05</totfact>
</mgrwt>
</event>
<event>
 7    1  0.3607059E-009  0.9480572E+02  0.7818608E-02  0.1291614E+00
          1   -1    0    0  501    0  0.00000000000E+00  0.00000000000E+00  0.45190135364E+01  0.45190163469E+01  0.50400000000E-02 0. -1.
         -1   -1    0    0    0  501 -0.00000000000E+00 -0.00000000000E+00 -0.49723911745E+03  0.49723911748E+03  0.50400000000E-02 0.  1.
         23    2    1    2    0    0  0.00000000000E+00 -0.44408920985E-15 -0.49272010392E+03  0.50175813383E+03  0.94805717425E+02 0.  0.
    9000005    2    3    3    0    0 -0.34279711656E+02 -0.28899425988E+01 -0.41632726270E+03  0.41797677200E+03  0.13883150537E+02 0.  0.
         22    1    3    3    0    0  0.34279711656E+02  0.28899425988E+01 -0.76392841219E+02  0.83781361823E+02  0.00000000000E+00 0. -1.
         22    1    4    4    0    0  0.12952345980E+01  0.42638372131E+00 -0.14155699753E+02  0.14221226081E+02  0.00000000000E+00 0.  1.
         22    1    4    4    0    0 -0.35574946254E+02 -0.33163263201E+01 -0.40217156295E+03  0.40375554592E+03  0.00000000000E+00 0.  1.
<mgrwt>
<rscale>  0 0.94805717E+02</rscale>
<asrwt>0</asrwt>
<pdfrwt beam="1">  1        1 0.69523346E-03 0.94805717E+02</pdfrwt>
<pdfrwt beam="2">  1       -1 0.76498283E-01 0.94805717E+02</pdfrwt>
<totfact> 0.42601860E+04</totfact>
</mgrwt>
</event>
<event>
 7    1  0.3607059E-009  0.9070913E+02  0.7818608E-02  0.1301143E+00
         -1   -1    0    0    0  501 -0.00000000000E+00  0.00000000000E+00  0.91352647211E+01  0.91352661114E+01  0.50400000000E-02 0.  1.
          1   -1    0    0  501    0  0.00000000000E+00 -0.00000000000E+00 -0.22517534586E+03  0.22517534591E+03  0.50400000000E-02 0. -1.
         23    2    1    2    0    0  0.71054273576E-14 -0.88817841970E-15 -0.21604008114E+03  0.23431061202E+03  0.90709129917E+02 0.  0.
    9000005    2    3    3    0    0 -0.41982992946E+02  0.75404982399E+01 -0.14605343938E+03  0.15234988463E+03  0.77103425577E+01 0.  0.
         22    1    3    3    0    0  0.41982992946E+02 -0.75404982399E+01 -0.69986641758E+02  0.81960727394E+02  0.00000000000E+00 0.  1.
         22    1    4    4    0    0 -0.25317606483E+02  0.42313753590E+01 -0.74184884450E+02  0.78500209021E+02  0.00000000000E+00 0.  1.
         22    1    4    4    0    0 -0.16665386463E+02  0.33091228809E+01 -0.71868554927E+02  0.73849675609E+02  0.00000000000E+00 0.  1.
<mgrwt>
<rscale>  0 0.90709130E+02</rscale>
<asrwt>0</asrwt>
<pdfrwt beam="2">  1        1 0.34642357E-01 0.90709130E+02</pdfrwt>
<pdfrwt beam="1">  1       -1 0.14054256E-02 0.90709130E+02</pdfrwt>
<totfact> 0.12285052E+05</totfact>
</mgrwt>
</event>
<event>
 7    1  0.3607059E-009  0.8994177E+02  0.7818608E-02  0.1302993E+00
         -1   -1    0    0    0  501 -0.00000000000E+00  0.00000000000E+00  0.13328484297E+03  0.13328484307E+03  0.50400000000E-02 0.  1.
          1   -1    0    0  501    0  0.00000000000E+00 -0.00000000000E+00 -0.15173371492E+02  0.15173372329E+02  0.50400000000E-02 0. -1.
         23    2    1    2    0    0 -0.35527136788E-14  0.00000000000E+00  0.11811147148E+03  0.14845821540E+03  0.89941770182E+02 0.  0.
    9000005    2    3    3    0    0  0.28491538676E+02 -0.10354630431E+02  0.11299691373E+03  0.11771500723E+03  0.13020532495E+02 0.  0.
         22    1    3    3    0    0 -0.28491538676E+02  0.10354630431E+02  0.51145577482E+01  0.30743208168E+02  0.00000000000E+00 0. -1.
         22    1    4    4    0    0  0.21309902729E+02 -0.13419612815E+02  0.85839741615E+02  0.89457583261E+02  0.00000000000E+00 0.  1.
         22    1    4    4    0    0  0.71816359467E+01  0.30649823840E+01  0.27157172116E+02  0.28257423967E+02  0.00000000000E+00 0.  1.
<mgrwt>
<rscale>  0 0.89941770E+02</rscale>
<asrwt>0</asrwt>
<pdfrwt beam="2">  1        1 0.23343650E-02 0.89941770E+02</pdfrwt>
<pdfrwt beam="1">  1       -1 0.20505360E-01 0.89941770E+02</pdfrwt>
<totfact> 0.79568676E+04</totfact>
</mgrwt>
</event>
<event>
 7    1  0.3607059E-009  0.8653623E+02  0.7818608E-02  0.1311463E+00
         -1   -1    0    0    0  501 -0.00000000000E+00  0.00000000000E+00  0.97050274449E+02  0.97050274580E+02  0.50400000000E-02 0.  1.
          1   -1    0    0  501    0  0.00000000000E+00 -0.00000000000E+00 -0.19290309444E+02  0.19290310102E+02  0.50400000000E-02 0. -1.
         23    2    1    2    0    0  0.00000000000E+00  0.00000000000E+00  0.77759965006E+02  0.11634058468E+03  0.86536232218E+02 0.  0.
    9000005    2    3    3    0    0 -0.10378423609E+02 -0.40879731739E+02  0.42602362018E+02  0.61432286662E+02  0.13420150945E+02 0.  0.
         22    1    3    3    0    0  0.10378423609E+02  0.40879731739E+02  0.35157602988E+02  0.54908298020E+02  0.00000000000E+00 0. -1.
         22    1    4    4    0    0 -0.87727680463E+01 -0.11782737377E+02  0.10381175512E+02  0.17987861582E+02  0.00000000000E+00 0.  1.
         22    1    4    4    0    0 -0.16056555628E+01 -0.29096994361E+02  0.32221186506E+02  0.43444425080E+02  0.00000000000E+00 0.  1.
<mgrwt>
<rscale>  0 0.86536232E+02</rscale>
<asrwt>0</asrwt>
<pdfrwt beam="2">  1        1 0.29677400E-02 0.86536232E+02</pdfrwt>
<pdfrwt beam="1">  1       -1 0.14930812E-01 0.86536232E+02</pdfrwt>
<totfact> 0.93572594E+04</totfact>
</mgrwt>
</event>
<event>
 7    1  0.3607059E-009  0.9029379E+02  0.7818608E-02  0.1302142E+00
          1   -1    0    0  501    0  0.00000000000E+00  0.00000000000E+00  0.26312417714E+02  0.26312418197E+02  0.50400000000E-02 0.  1.
         -1   -1    0    0    0  501 -0.00000000000E+00 -0.00000000000E+00 -0.77463130063E+02  0.77463130227E+02  0.50400000000E-02 0. -1.
         23    2    1    2    0    0  0.35527136788E-14  0.00000000000E+00 -0.51150712349E+02  0.10377554842E+03  0.90293793125E+02 0.  0.
    9000005    2    3    3    0    0  0.23299313225E+02 -0.17931291064E+02  0.11322040963E+02  0.34730388547E+02  0.14615816129E+02 0.  0.
         22    1    3    3    0    0 -0.23299313225E+02  0.17931291064E+02 -0.62472753312E+02  0.69045159877E+02  0.00000000000E+00 0. -1.
         22    1    4    4    0    0  0.70699619264E+01  0.20148171998E+00  0.71189170411E+01  0.10035135094E+02  0.00000000000E+00 0. -1.
         22    1    4    4    0    0  0.16229351298E+02 -0.18132772784E+02  0.42031239220E+01  0.24695253453E+02  0.00000000000E+00 0. -1.
<mgrwt>
<rscale>  0 0.90293793E+02</rscale>
<asrwt>0</asrwt>
<pdfrwt beam="1">  1        1 0.40480644E-02 0.90293793E+02</pdfrwt>
<pdfrwt beam="2">  1       -1 0.11917405E-01 0.90293793E+02</pdfrwt>
<totfact> 0.87253497E+04</totfact>
</mgrwt>
</event>
<event>
 7    1  0.3607059E-009  0.8947475E+02  0.7818608E-02  0.1304129E+00
         -1   -1    0    0    0  501 -0.00000000000E+00  0.00000000000E+00  0.65546346925E+02  0.65546347118E+02  0.50400000000E-02 0.  1.
          1   -1    0    0  501    0  0.00000000000E+00 -0.00000000000E+00 -0.30534617289E+02  0.30534617705E+02  0.50400000000E-02 0. -1.
         23    2    1    2    0    0  0.35527136788E-14  0.11102230246E-15  0.35011729635E+02  0.96080964824E+02  0.89474748334E+02 0.  0.
    9000005    2    3    3    0    0 -0.18686801382E+02 -0.66120656490E+00  0.60709116557E+02  0.64300633884E+02  0.99669927670E+01 0.  0.
         22    1    3    3    0    0  0.18686801382E+02  0.66120656490E+00 -0.25697386922E+02  0.31780330939E+02  0.00000000000E+00 0. -1.
         22    1    4    4    0    0 -0.14410716643E+02 -0.10116206259E+01  0.56396579599E+02  0.58217405652E+02  0.00000000000E+00 0. -1.
         22    1    4    4    0    0 -0.42760847390E+01  0.35041406104E+00  0.43125369583E+01  0.60832282322E+01  0.00000000000E+00 0. -1.
<mgrwt>
<rscale>  0 0.89474748E+02</rscale>
<asrwt>0</asrwt>
<pdfrwt beam="2">  1        1 0.46976335E-02 0.89474748E+02</pdfrwt>
<pdfrwt beam="1">  1       -1 0.10084053E-01 0.89474748E+02</pdfrwt>
<totfact> 0.91745726E+04</totfact>
</mgrwt>
</event>
<event>
 7    1  0.3607059E-009  0.9006367E+02  0.7818608E-02  0.1302698E+00
         -1   -1    0    0    0  501 -0.00000000000E+00  0.00000000000E+00  0.24122924529E+02  0.24122925055E+02  0.50400000000E-02 0.  1.
          1   -1    0    0  501    0  0.00000000000E+00 -0.00000000000E+00 -0.84063853272E+02  0.84063853423E+02  0.50400000000E-02 0. -1.
         23    2    1    2    0    0  0.00000000000E+00  0.17763568394E-14 -0.59940928743E+02  0.10818677848E+03  0.90063666919E+02 0.  0.
    9000005    2    3    3    0    0  0.12813779951E+02  0.14038524449E+02 -0.78687214937E+02  0.81490404728E+02  0.93667039549E+01 0.  0.
         22    1    3    3    0    0 -0.12813779951E+02 -0.14038524449E+02  0.18746286194E+02  0.26696373750E+02  0.00000000000E+00 0.  1.
         22    1    4    4    0    0  0.83343215901E+01  0.13207417187E+02 -0.48260070208E+02  0.50724068859E+02  0.00000000000E+00 0.  1.
         22    1    4    4    0    0  0.44794583605E+01  0.83110726107E+00 -0.30427144729E+02  0.30766335870E+02  0.00000000000E+00 0.  1.
<mgrwt>
<rscale>  0 0.90063667E+02</rscale>
<asrwt>0</asrwt>
<pdfrwt beam="2">  1        1 0.12932900E-01 0.90063667E+02</pdfrwt>
<pdfrwt beam="1">  1       -1 0.37112193E-02 0.90063667E+02</pdfrwt>
<totfact> 0.10501008E+05</totfact>
</mgrwt>
</event>
<event>
 7    1  0.3607059E-009  0.9100496E+02  0.7818608E-02  0.1300436E+00
         -1   -1    0    0    0  501 -0.00000000000E+00  0.00000000000E+00  0.13976293545E+02  0.13976294454E+02  0.50400000000E-02 0.  1.
          1   -1    0    0  501    0  0.00000000000E+00 -0.00000000000E+00 -0.14814195918E+03  0.14814195927E+03  0.50400000000E-02 0. -1.
         23    2    1    2    0    0  0.35527136788E-14  0.00000000000E+00 -0.13416566564E+03  0.16211825372E+03  0.91004957853E+02 0.  0.
    9000005    2    3    3    0    0  0.16927340775E+02  0.14034884983E+02 -0.13760557144E+03  0.13986188802E+03  0.11939077339E+02 0.  0.
         22    1    3    3    0    0 -0.16927340775E+02 -0.14034884983E+02  0.34399058030E+01  0.22256365699E+02  0.00000000000E+00 0.  1.
         22    1    4    4    0    0  0.16561348554E+02  0.12906557238E+02 -0.97336840575E+02  0.99575689899E+02  0.00000000000E+00 0.  1.
         22    1    4    4    0    0  0.36599222105E+00  0.11283277453E+01 -0.40268730864E+02  0.40286198122E+02  0.00000000000E+00 0.  1.
<mgrwt>
<rscale>  0 0.91004958E+02</rscale>
<asrwt>0</asrwt>
<pdfrwt beam="2">  1        1 0.22791070E-01 0.91004958E+02</pdfrwt>
<pdfrwt beam="1">  1       -1 0.21501992E-02 0.91004958E+02</pdfrwt>
<totfact> 0.11244780E+05</totfact>
</mgrwt>
</event>
<event>
 7    1  0.3607059E-009  0.8292434E+02  0.7818608E-02  0.1320952E+00
         -1   -1    0    0    0  501 -0.00000000000E+00  0.00000000000E+00  0.24158865845E+02  0.24158866371E+02  0.50400000000E-02 0.  1.
          1   -1    0    0  501    0  0.00000000000E+00 -0.00000000000E+00 -0.71158622953E+02  0.71158623132E+02  0.50400000000E-02 0. -1.
         23    2    1    2    0    0  0.00000000000E+00 -0.35527136788E-14 -0.46999757108E+02  0.95317489503E+02  0.82924342849E+02 0.  0.
    9000005    2    3    3    0    0  0.19090202266E+02  0.27791493946E+02  0.24213691573E+01  0.35490650378E+02  0.10812968017E+02 0.  0.
         22    1    3    3    0    0 -0.19090202266E+02 -0.27791493946E+02 -0.49421126265E+02  0.59826839125E+02  0.00000000000E+00 0. -1.
         22    1    4    4    0    0  0.19839609847E+02  0.22243495874E+02  0.18482562886E+01  0.29863008537E+02  0.00000000000E+00 0.  1.
         22    1    4    4    0    0 -0.74940758072E+00  0.55479980727E+01  0.57311286873E+00  0.56276418416E+01  0.00000000000E+00 0.  1.
<mgrwt>
<rscale>  0 0.82924343E+02</rscale>
<asrwt>0</asrwt>
<pdfrwt beam="2">  1        1 0.10947480E-01 0.82924343E+02</pdfrwt>
<pdfrwt beam="1">  1       -1 0.37167487E-02 0.82924343E+02</pdfrwt>
<totfact> 0.12823022E+05</totfact>
</mgrwt>
</event>
<event>
 7    1  0.3607059E-009  0.9377350E+02  0.7818608E-02  0.1293963E+00
          1   -1    0    0  501    0  0.00000000000E+00  0.00000000000E+00  0.67487599702E+02  0.67487599890E+02  0.50400000000E-02 0. -1.
         -1   -1    0    0    0  501 -0.00000000000E+00 -0.00000000000E+00 -0.32574387053E+02  0.32574387443E+02  0.50400000000E-02 0.  1.
         23    2    1    2    0    0  0.00000000000E+00  0.00000000000E+00  0.34913212649E+02  0.10006198733E+03  0.93773497811E+02 0.  0.
    9000005    2    3    3    0    0 -0.12094107241E+02 -0.16155690100E+02  0.62567573913E+02  0.65826954845E+02  0.33485707763E+01 0.  0.
         22    1    3    3    0    0  0.12094107241E+02  0.16155690100E+02 -0.27654361264E+02  0.34235032489E+02  0.00000000000E+00 0.  1.
         22    1    4    4    0    0 -0.27321961073E+01 -0.22706116944E+01  0.81425024458E+01  0.88837446562E+01  0.00000000000E+00 0. -1.
         22    1    4    4    0    0 -0.93619111340E+01 -0.13885078406E+02  0.54425071467E+02  0.56943210189E+02  0.00000000000E+00 0. -1.
<mgrwt>
<rscale>  0 0.93773498E+02</rscale>
<asrwt>0</asrwt>
<pdfrwt beam="1">  1        1 0.10382707E-01 0.93773498E+02</pdfrwt>
<pdfrwt beam="2">  1       -1 0.50114443E-02 0.93773498E+02</pdfrwt>
<totfact> 0.90771734E+04</totfact>
</mgrwt>
</event>
<event>
 7    1  0.3607059E-009  0.9055906E+02  0.7818608E-02  0.1301503E+00
          1   -1    0    0  501    0  0.00000000000E+00  0.00000000000E+00  0.13553874127E+03  0.13553874136E+03  0.50400000000E-02 0. -1.
         -1   -1    0    0    0  501 -0.00000000000E+00 -0.00000000000E+00 -0.15126566873E+02  0.15126567713E+02  0.50400000000E-02 0.  1.
         23    2    1    2    0    0 -0.44408920985E-15  0.00000000000E+00  0.12041217439E+03  0.15066530907E+03  0.90559061479E+02 0.  0.
    9000005    2    3    3    0    0  0.36350034489E+01  0.16061378871E+02  0.13016184579E+03  0.13152798341E+03  0.92910267715E+01 0.  0.
         22    1    3    3    0    0 -0.36350034489E+01 -0.16061378871E+02 -0.97496713963E+01  0.19137325666E+02  0.00000000000E+00 0.  1.
         22    1    4    4    0    0 -0.10928037795E+01  0.11540949517E+02  0.63808732266E+02  0.64853234686E+02  0.00000000000E+00 0.  1.
         22    1    4    4    0    0  0.47278072284E+01  0.45204293539E+01  0.66353113524E+02  0.66674748722E+02  0.00000000000E+00 0.  1.
<mgrwt>
<rscale>  0 0.90559061E+02</rscale>
<asrwt>0</asrwt>
<pdfrwt beam="1">  1        1 0.20852114E-01 0.90559061E+02</pdfrwt>
<pdfrwt beam="2">  1       -1 0.23271642E-02 0.90559061E+02</pdfrwt>
<totfact> 0.11212585E+05</totfact>
</mgrwt>
</event>
<event>
 7    1  0.3607059E-009  0.9214592E+02  0.7818608E-02  0.1297737E+00
         -1   -1    0    0    0  501 -0.00000000000E+00  0.00000000000E+00  0.64154297261E+02  0.64154297459E+02  0.50400000000E-02 0.  1.
          1   -1    0    0  501    0  0.00000000000E+00 -0.00000000000E+00 -0.33087693468E+02  0.33087693852E+02  0.50400000000E-02 0. -1.
         23    2    1    2    0    0  0.00000000000E+00  0.35527136788E-14  0.31066603793E+02  0.97241991311E+02  0.92145922334E+02 0.  0.
    9000005    2    3    3    0    0  0.24427732852E+02 -0.26289940829E+02 -0.13606394966E+02  0.39939705674E+02  0.11053098402E+02 0.  0.
         22    1    3    3    0    0 -0.24427732852E+02  0.26289940829E+02  0.44672998759E+02  0.57302285637E+02  0.00000000000E+00 0.  1.
         22    1    4    4    0    0  0.19301726617E+02 -0.14119519850E+02 -0.58331229023E+01  0.24615905711E+02  0.00000000000E+00 0. -1.
         22    1    4    4    0    0  0.51260062348E+01 -0.12170420979E+02 -0.77732720634E+01  0.15323799963E+02  0.00000000000E+00 0. -1.
<mgrwt>
<rscale>  0 0.92145922E+02</rscale>
<asrwt>0</asrwt>
<pdfrwt beam="2">  1        1 0.50904145E-02 0.92145922E+02</pdfrwt>
<pdfrwt beam="1">  1       -1 0.98698918E-02 0.92145922E+02</pdfrwt>
<totfact> 0.85424808E+04</totfact>
</mgrwt>
</event>
<event>
 7    1  0.3607059E-009  0.9798829E+02  0.7818608E-02  0.1284584E+00
         -1   -1    0    0    0  501 -0.00000000000E+00  0.00000000000E+00  0.10853997152E+03  0.10853997164E+03  0.50400000000E-02 0.  1.
          1   -1    0    0  501    0  0.00000000000E+00 -0.00000000000E+00 -0.22115598140E+02  0.22115598714E+02  0.50400000000E-02 0. -1.
         23    2    1    2    0    0  0.00000000000E+00  0.00000000000E+00  0.86424373379E+02  0.13065557035E+03  0.97988293941E+02 0.  0.
    9000005    2    3    3    0    0 -0.28097817141E+02  0.15066092783E+02  0.91813609413E+02  0.98321094247E+02  0.14860155473E+02 0.  0.
         22    1    3    3    0    0  0.28097817141E+02 -0.15066092783E+02 -0.53892360340E+01  0.32334476103E+02  0.00000000000E+00 0. -1.
         22    1    4    4    0    0 -0.12159118109E+02  0.88939191041E+01  0.63379303637E+02  0.65145084847E+02  0.00000000000E+00 0. -1.
         22    1    4    4    0    0 -0.15938699032E+02  0.61721736789E+01  0.28434305776E+02  0.33176009400E+02  0.00000000000E+00 0. -1.
<mgrwt>
<rscale>  0 0.97988294E+02</rscale>
<asrwt>0</asrwt>
<pdfrwt beam="2">  1        1 0.34023997E-02 0.97988294E+02</pdfrwt>
<pdfrwt beam="1">  1       -1 0.16698457E-01 0.97988294E+02</pdfrwt>
<totfact> 0.66501115E+04</totfact>
</mgrwt>
</event>
<event>
 7    1  0.3607059E-009  0.9324783E+02  0.7818608E-02  0.1295172E+00
          1   -1    0    0  501    0  0.00000000000E+00  0.00000000000E+00  0.16714720554E+02  0.16714721314E+02  0.50400000000E-02 0. -1.
         -1   -1    0    0    0  501 -0.00000000000E+00 -0.00000000000E+00 -0.13005239747E+03  0.13005239757E+03  0.50400000000E-02 0.  1.
         23    2    1    2    0    0  0.17763568394E-14  0.00000000000E+00 -0.11333767692E+03  0.14676711888E+03  0.93247832017E+02 0.  0.
    9000005    2    3    3    0    0  0.11916798043E+02 -0.42723402992E+01 -0.12710967924E+03  0.12806067574E+03  0.90776178821E+01 0.  0.
         22    1    3    3    0    0 -0.11916798043E+02  0.42723402992E+01  0.13772002322E+02  0.18706443146E+02  0.00000000000E+00 0. -1.
         22    1    4    4    0    0  0.52848846887E+01 -0.12076648085E+01 -0.93924605616E+02  0.94080922618E+02  0.00000000000E+00 0.  1.
         22    1    4    4    0    0  0.66319133541E+01 -0.30646754907E+01 -0.33185073622E+02  0.33979753117E+02  0.00000000000E+00 0.  1.
<mgrwt>
<rscale>  0 0.93247832E+02</rscale>
<asrwt>0</asrwt>
<pdfrwt beam="1">  1        1 0.25714956E-02 0.93247832E+02</pdfrwt>
<pdfrwt beam="2">  1       -1 0.20008061E-01 0.93247832E+02</pdfrwt>
<totfact> 0.72849851E+04</totfact>
</mgrwt>
</event>
<event>
 7    1  0.3607059E-009  0.9091562E+02  0.7818608E-02  0.1300649E+00
         -1   -1    0    0    0  501 -0.00000000000E+00  0.00000000000E+00  0.14027419590E+02  0.14027420496E+02  0.50400000000E-02 0.  1.
          1   -1    0    0  501    0  0.00000000000E+00 -0.00000000000E+00 -0.14731236088E+03  0.14731236096E+03  0.50400000000E-02 0. -1.
         23    2    1    2    0    0  0.00000000000E+00 -0.35527136788E-14 -0.13328494129E+03  0.16133978146E+03  0.90915617512E+02 0.  0.
    9000005    2    3    3    0    0  0.31208328866E+02  0.26185548640E+02 -0.10034117021E+03  0.10894765609E+03  0.11899520145E+02 0.  0.
         22    1    3    3    0    0 -0.31208328866E+02 -0.26185548640E+02 -0.32943771074E+02  0.52392125369E+02  0.00000000000E+00 0. -1.
         22    1    4    4    0    0  0.15052994597E+02  0.58184149734E+01 -0.44954621596E+02  0.47763632630E+02  0.00000000000E+00 0.  1.
         22    1    4    4    0    0  0.16155334269E+02  0.20367133666E+02 -0.55386548619E+02  0.61184023462E+02  0.00000000000E+00 0.  1.
<mgrwt>
<rscale>  0 0.90915618E+02</rscale>
<asrwt>0</asrwt>
<pdfrwt beam="2">  1        1 0.22663439E-01 0.90915618E+02</pdfrwt>
<pdfrwt beam="1">  1       -1 0.21580647E-02 0.90915618E+02</pdfrwt>
<totfact> 0.11263004E+05</totfact>
</mgrwt>
</event>
<event>
 7    1  0.3607059E-009  0.7178242E+02  0.7818608E-02  0.1354135E+00
          1   -1    0    0  501    0  0.00000000000E+00  0.00000000000E+00  0.11007563520E+02  0.11007564674E+02  0.50400000000E-02 0. -1.
         -1   -1    0    0    0  501 -0.00000000000E+00 -0.00000000000E+00 -0.11702669290E+03  0.11702669301E+03  0.50400000000E-02 0.  1.
         23    2    1    2    0    0  0.00000000000E+00  0.35527136788E-14 -0.10601912938E+03  0.12803425768E+03  0.71782416690E+02 0.  0.
    9000005    2    3    3    0    0  0.25581206196E+02  0.22544935957E+02 -0.71552996516E+02  0.79551409557E+02  0.67766661637E+01 0.  0.
         22    1    3    3    0    0 -0.25581206196E+02 -0.22544935957E+02 -0.34466132862E+02  0.48482848124E+02  0.00000000000E+00 0. -1.
         22    1    4    4    0    0  0.18294028297E+02  0.18051088874E+02 -0.59024595924E+02  0.64377140390E+02  0.00000000000E+00 0.  1.
         22    1    4    4    0    0  0.72871778990E+01  0.44938470830E+01 -0.12528400593E+02  0.15174269167E+02  0.00000000000E+00 0.  1.
<mgrwt>
<rscale>  0 0.71782417E+02</rscale>
<asrwt>0</asrwt>
<pdfrwt beam="1">  1        1 0.16934715E-02 0.71782417E+02</pdfrwt>
<pdfrwt beam="2">  1       -1 0.18004106E-01 0.71782417E+02</pdfrwt>
<totfact> 0.14586184E+05</totfact>
</mgrwt>
</event>
<event>
 7    1  0.3607059E-009  0.9115064E+02  0.7818608E-02  0.1300089E+00
         -1   -1    0    0    0  501 -0.00000000000E+00  0.00000000000E+00  0.55043208898E+01  0.55043231972E+01  0.50400000000E-02 0.  1.
          1   -1    0    0  501    0  0.00000000000E+00 -0.00000000000E+00 -0.37735978718E+03  0.37735978721E+03  0.50400000000E-02 0. -1.
         23    2    1    2    0    0  0.00000000000E+00 -0.88817841970E-15 -0.37185546629E+03  0.38286411041E+03  0.91150640320E+02 0.  0.
    9000005    2    3    3    0    0 -0.31622796912E+02 -0.63581198469E+01 -0.31906828061E+03  0.32100205463E+03  0.14047220977E+02 0.  0.
         22    1    3    3    0    0  0.31622796912E+02  0.63581198469E+01 -0.52787185680E+02  0.61862055774E+02  0.00000000000E+00 0.  1.
         22    1    4    4    0    0 -0.41362975451E+01  0.25508539984E+01 -0.21917778152E+02  0.22450051506E+02  0.00000000000E+00 0. -1.
         22    1    4    4    0    0 -0.27486499367E+02 -0.89089738453E+01 -0.29715050245E+03  0.29855200313E+03  0.00000000000E+00 0. -1.
<mgrwt>
<rscale>  0 0.91150640E+02</rscale>
<asrwt>0</asrwt>
<pdfrwt beam="2">  1        1 0.58055332E-01 0.91150640E+02</pdfrwt>
<pdfrwt beam="1">  1       -1 0.84681907E-03 0.91150640E+02</pdfrwt>
<totfact> 0.13368051E+05</totfact>
</mgrwt>
</event>
<event>
 7    1  0.3607059E-009  0.9321116E+02  0.7818608E-02  0.1295257E+00
          1   -1    0    0  501    0  0.00000000000E+00  0.00000000000E+00  0.15334389169E+02  0.15334389997E+02  0.50400000000E-02 0. -1.
         -1   -1    0    0    0  501 -0.00000000000E+00 -0.00000000000E+00 -0.14164765054E+03  0.14164765063E+03  0.50400000000E-02 0.  1.
         23    2    1    2    0    0  0.00000000000E+00  0.00000000000E+00 -0.12631326137E+03  0.15698204063E+03  0.93211163930E+02 0.  0.
    9000005    2    3    3    0    0 -0.29128627124E+02  0.35784466549E+02 -0.56595893621E+02  0.73378713358E+02  0.72343233984E+01 0.  0.
         22    1    3    3    0    0  0.29128627124E+02 -0.35784466549E+02 -0.69717367749E+02  0.83603327268E+02  0.00000000000E+00 0. -1.
         22    1    4    4    0    0 -0.21624144736E+02  0.28760207660E+02 -0.47933717199E+02  0.59936586696E+02  0.00000000000E+00 0. -1.
         22    1    4    4    0    0 -0.75044823875E+01  0.70242588888E+01 -0.86621764219E+01  0.13442126662E+02  0.00000000000E+00 0. -1.
<mgrwt>
<rscale>  0 0.93211164E+02</rscale>
<asrwt>0</asrwt>
<pdfrwt beam="1">  1        1 0.23591370E-02 0.93211164E+02</pdfrwt>
<pdfrwt beam="2">  1       -1 0.21791945E-01 0.93211164E+02</pdfrwt>
<totfact> 0.71560070E+04</totfact>
</mgrwt>
</event>
<event>
 7    1  0.3607059E-009  0.9080287E+02  0.7818608E-02  0.1300919E+00
         -1   -1    0    0    0  501 -0.00000000000E+00  0.00000000000E+00  0.80475563883E+02  0.80475564041E+02  0.50400000000E-02 0.  1.
          1   -1    0    0  501    0  0.00000000000E+00 -0.00000000000E+00 -0.25613867760E+02  0.25613868256E+02  0.50400000000E-02 0. -1.
         23    2    1    2    0    0 -0.17763568394E-14  0.00000000000E+00  0.54861696124E+02  0.10608943230E+03  0.90802874093E+02 0.  0.
    9000005    2    3    3    0    0  0.10934908363E+02  0.32714463861E+02 -0.49052976328E+01  0.37082897032E+02  0.12699249615E+02 0.  0.
         22    1    3    3    0    0 -0.10934908363E+02 -0.32714463861E+02  0.59766993756E+02  0.69006535265E+02  0.00000000000E+00 0.  1.
         22    1    4    4    0    0  0.14203537817E+01  0.10874759250E+02  0.39663533957E+01  0.11662321933E+02  0.00000000000E+00 0.  1.
         22    1    4    4    0    0  0.95145545812E+01  0.21839704611E+02 -0.88716510285E+01  0.25420575099E+02  0.00000000000E+00 0.  1.
<mgrwt>
<rscale>  0 0.90802874E+02</rscale>
<asrwt>0</asrwt>
<pdfrwt beam="2">  1        1 0.39405951E-02 0.90802874E+02</pdfrwt>
<pdfrwt beam="1">  1       -1 0.12380856E-01 0.90802874E+02</pdfrwt>
<totfact> 0.85460025E+04</totfact>
</mgrwt>
</event>
<event>
 7    1  0.3607059E-009  0.9256831E+02  0.7818608E-02  0.1296749E+00
         -1   -1    0    0    0  501 -0.00000000000E+00  0.00000000000E+00  0.23345576478E+02  0.23345577022E+02  0.50400000000E-02 0.  1.
          1   -1    0    0  501    0  0.00000000000E+00 -0.00000000000E+00 -0.91761415966E+02  0.91761416104E+02  0.50400000000E-02 0. -1.
         23    2    1    2    0    0  0.00000000000E+00  0.00000000000E+00 -0.68415839488E+02  0.11510699313E+03  0.92568314091E+02 0.  0.
    9000005    2    3    3    0    0 -0.80980693576E+01  0.39362082356E+02 -0.62596137904E+02  0.74501313951E+02  0.41493427384E+01 0.  0.
         22    1    3    3    0    0  0.80980693576E+01 -0.39362082356E+02 -0.58197015840E+01  0.40605679175E+02  0.00000000000E+00 0. -1.
         22    1    4    4    0    0 -0.55500085053E+01  0.27987548594E+02 -0.40848000560E+02  0.49826344643E+02  0.00000000000E+00 0. -1.
         22    1    4    4    0    0 -0.25480608523E+01  0.11374533762E+02 -0.21748137345E+02  0.24674969308E+02  0.00000000000E+00 0. -1.
<mgrwt>
<rscale>  0 0.92568314E+02</rscale>
<asrwt>0</asrwt>
<pdfrwt beam="2">  1        1 0.14117141E-01 0.92568314E+02</pdfrwt>
<pdfrwt beam="1">  1       -1 0.35916272E-02 0.92568314E+02</pdfrwt>
<totfact> 0.98800532E+04</totfact>
</mgrwt>
</event>
<event>
 7    1  0.3607059E-009  0.9506992E+02  0.7818608E-02  0.1291019E+00
         -1   -1    0    0    0  501 -0.00000000000E+00  0.00000000000E+00  0.19398348254E+03  0.19398348261E+03  0.50400000000E-02 0.  1.
          1   -1    0    0  501    0  0.00000000000E+00 -0.00000000000E+00 -0.11648271448E+02  0.11648272539E+02  0.50400000000E-02 0. -1.
         23    2    1    2    0    0  0.71054273576E-14 -0.17763568394E-14  0.18233521109E+03  0.20563175515E+03  0.95069919112E+02 0.  0.
    9000005    2    3    3    0    0 -0.44316623416E+02  0.11222413773E+02  0.71882391023E+02  0.86092091672E+02  0.12444453680E+02 0.  0.
         22    1    3    3    0    0  0.44316623416E+02 -0.11222413773E+02  0.11045282007E+03  0.11953966347E+03  0.00000000000E+00 0.  1.
         22    1    4    4    0    0 -0.96262711932E+01  0.17349183786E+01  0.74251802315E+01  0.12280404730E+02  0.00000000000E+00 0. -1.
         22    1    4    4    0    0 -0.34690352223E+02  0.94874953942E+01  0.64457210792E+02  0.73811686942E+02  0.00000000000E+00 0. -1.
<mgrwt>
<rscale>  0 0.95069919E+02</rscale>
<asrwt>0</asrwt>
<pdfrwt beam="2">  1        1 0.17920420E-02 0.95069919E+02</pdfrwt>
<pdfrwt beam="1">  1       -1 0.29843609E-01 0.95069919E+02</pdfrwt>
<totfact> 0.62788745E+04</totfact>
</mgrwt>
</event>
<event>
 7    1  0.3607059E-009  0.8959846E+02  0.7818608E-02  0.1303827E+00
          1   -1    0    0  501    0  0.00000000000E+00  0.00000000000E+00  0.22729027591E+02  0.22729028150E+02  0.50400000000E-02 0. -1.
         -1   -1    0    0    0  501 -0.00000000000E+00 -0.00000000000E+00 -0.88299909063E+02  0.88299909207E+02  0.50400000000E-02 0.  1.
         23    2    1    2    0    0  0.71054273576E-14  0.00000000000E+00 -0.65570881472E+02  0.11102893736E+03  0.89598462227E+02 0.  0.
    9000005    2    3    3    0    0 -0.42916589982E+02 -0.11944588817E+02 -0.38564800837E+02  0.58934453109E+02  0.12324779951E+01 0.  0.
         22    1    3    3    0    0  0.42916589982E+02  0.11944588817E+02 -0.27006080635E+02  0.52094484247E+02  0.00000000000E+00 0. -1.
         22    1    4    4    0    0 -0.30643012270E+02 -0.87557509887E+01 -0.26905958867E+02  0.41708368452E+02  0.00000000000E+00 0.  1.
         22    1    4    4    0    0 -0.12273577712E+02 -0.31888378282E+01 -0.11658841970E+02  0.17226084657E+02  0.00000000000E+00 0.  1.
<mgrwt>
<rscale>  0 0.89598462E+02</rscale>
<asrwt>0</asrwt>
<pdfrwt beam="1">  1        1 0.34967736E-02 0.89598462E+02</pdfrwt>
<pdfrwt beam="2">  1       -1 0.13584601E-01 0.89598462E+02</pdfrwt>
<totfact> 0.87033199E+04</totfact>
</mgrwt>
</event>
<event>
 7    1  0.3607059E-009  0.1134842E+03  0.7818608E-02  0.1254250E+00
          1   -1    0    0  501    0  0.00000000000E+00  0.00000000000E+00  0.65036512208E+02  0.65036512403E+02  0.50400000000E-02 0. -1.
         -1   -1    0    0    0  501 -0.00000000000E+00 -0.00000000000E+00 -0.49505496012E+02  0.49505496269E+02  0.50400000000E-02 0.  1.
         23    2    1    2    0    0 -0.35527136788E-14  0.00000000000E+00  0.15531016196E+02  0.11454200867E+03  0.11348418078E+03 0.  0.
    9000005    2    3    3    0    0 -0.30758421857E+02 -0.20231350745E+02 -0.35259362801E+02  0.51812026473E+02  0.92668955948E+01 0.  0.
         22    1    3    3    0    0  0.30758421857E+02  0.20231350745E+02  0.50790378996E+02  0.62729982199E+02  0.00000000000E+00 0. -1.
         22    1    4    4    0    0 -0.25985571113E+01 -0.50082011940E+00 -0.63865472508E+01  0.69131256056E+01  0.00000000000E+00 0. -1.
         22    1    4    4    0    0 -0.28159864746E+02 -0.19730530625E+02 -0.28872815550E+02  0.44898900867E+02  0.00000000000E+00 0. -1.
<mgrwt>
<rscale>  0 0.11348418E+03</rscale>
<asrwt>0</asrwt>
<pdfrwt beam="1">  1        1 0.10005617E-01 0.11348418E+03</pdfrwt>
<pdfrwt beam="2">  1       -1 0.76162302E-02 0.11348418E+03</pdfrwt>
<totfact> 0.52707053E+04</totfact>
</mgrwt>
</event>
<event>
 7    1  0.3607059E-009  0.9274413E+02  0.7818608E-02  0.1296339E+00
          1   -1    0    0  501    0  0.00000000000E+00  0.00000000000E+00  0.81069023222E+02  0.81069023379E+02  0.50400000000E-02 0. -1.
         -1   -1    0    0    0  501 -0.00000000000E+00 -0.00000000000E+00 -0.26525154426E+02  0.26525154905E+02  0.50400000000E-02 0.  1.
         23    2    1    2    0    0  0.44408920985E-15 -0.35527136788E-14  0.54543868796E+02  0.10759417828E+03  0.92744129611E+02 0.  0.
    9000005    2    3    3    0    0 -0.34463576698E+01  0.26898127013E+02  0.69898324190E+02  0.76430964097E+02  0.14850250176E+02 0.  0.
         22    1    3    3    0    0  0.34463576698E+01 -0.26898127013E+02 -0.15354455393E+02  0.31163214187E+02  0.00000000000E+00 0.  1.
         22    1    4    4    0    0 -0.14511870832E+01  0.38973215094E+01  0.18110943584E+01  0.45359807840E+01  0.00000000000E+00 0. -1.
         22    1    4    4    0    0 -0.19951705867E+01  0.23000805504E+02  0.68087229831E+02  0.71894983313E+02  0.00000000000E+00 0. -1.
<mgrwt>
<rscale>  0 0.92744130E+02</rscale>
<asrwt>0</asrwt>
<pdfrwt beam="1">  1        1 0.12472157E-01 0.92744130E+02</pdfrwt>
<pdfrwt beam="2">  1       -1 0.40807931E-02 0.92744130E+02</pdfrwt>
<totfact> 0.96334200E+04</totfact>
</mgrwt>
</event>
<event>
 7    1  0.3607059E-009  0.9060190E+02  0.7818608E-02  0.1301401E+00
          1   -1    0    0  501    0  0.00000000000E+00  0.00000000000E+00  0.75355629461E+03  0.75355629463E+03  0.50400000000E-02 0. -1.
         -1   -1    0    0    0  501 -0.00000000000E+00 -0.00000000000E+00 -0.27233189687E+01  0.27233236324E+01  0.50400000000E-02 0.  1.
         23    2    1    2    0    0  0.71054273576E-14  0.11102230246E-15  0.75083297564E+03  0.75627961826E+03  0.90601896691E+02 0.  0.
    9000005    2    3    3    0    0 -0.33429302889E+02 -0.91002292261E+00  0.62888497840E+03  0.62982938906E+03  0.83902820497E+01 0.  0.
         22    1    3    3    0    0  0.33429302889E+02  0.91002292261E+00  0.12194799724E+03  0.12645022919E+03  0.00000000000E+00 0.  1.
         22    1    4    4    0    0 -0.31743649201E+02  0.46453480896E+00  0.60875270004E+03  0.60957995772E+03  0.00000000000E+00 0.  1.
         22    1    4    4    0    0 -0.16856536883E+01 -0.13745577316E+01  0.20132278369E+02  0.20249431341E+02  0.00000000000E+00 0.  1.
<mgrwt>
<rscale>  0 0.90601897E+02</rscale>
<asrwt>0</asrwt>
<pdfrwt beam="1">  1        1 0.11593182E+00 0.90601897E+02</pdfrwt>
<pdfrwt beam="2">  1       -1 0.41897221E-03 0.90601897E+02</pdfrwt>
<totfact> 0.14426703E+05</totfact>
</mgrwt>
</event>
<event>
 7    1  0.3607059E-009  0.9084555E+02  0.7818608E-02  0.1300817E+00
         -1   -1    0    0    0  501 -0.00000000000E+00  0.00000000000E+00  0.38164096046E+02  0.38164096379E+02  0.50400000000E-02 0.  1.
          1   -1    0    0  501    0  0.00000000000E+00 -0.00000000000E+00 -0.54062030685E+02  0.54062030920E+02  0.50400000000E-02 0. -1.
         23    2    1    2    0    0  0.00000000000E+00  0.00000000000E+00 -0.15897934640E+02  0.92226127299E+02  0.90845551519E+02 0.  0.
    9000005    2    3    3    0    0  0.22868262936E+02 -0.19282197795E+02 -0.41465110261E+02  0.52875891331E+02  0.13481243026E+02 0.  0.
         22    1    3    3    0    0 -0.22868262936E+02  0.19282197795E+02  0.25567175621E+02  0.39350235968E+02  0.00000000000E+00 0. -1.
         22    1    4    4    0    0  0.47198277405E+00 -0.56789026129E+01 -0.12955018552E+02  0.14152922253E+02  0.00000000000E+00 0.  1.
         22    1    4    4    0    0  0.22396280162E+02 -0.13603295182E+02 -0.28510091709E+02  0.38722969078E+02  0.00000000000E+00 0.  1.
<mgrwt>
<rscale>  0 0.90845552E+02</rscale>
<asrwt>0</asrwt>
<pdfrwt beam="2">  1        1 0.83172355E-02 0.90845552E+02</pdfrwt>
<pdfrwt beam="1">  1       -1 0.58713995E-02 0.90845552E+02</pdfrwt>
<totfact> 0.95836092E+04</totfact>
</mgrwt>
</event>
<event>
 7    1  0.3607059E-009  0.9010347E+02  0.7818608E-02  0.1302601E+00
         -1   -1    0    0    0  501 -0.00000000000E+00  0.00000000000E+00  0.32249684089E+03  0.32249684093E+03  0.50400000000E-02 0.  1.
          1   -1    0    0  501    0  0.00000000000E+00 -0.00000000000E+00 -0.62935760470E+01  0.62935780650E+01  0.50400000000E-02 0. -1.
         23    2    1    2    0    0  0.00000000000E+00  0.00000000000E+00  0.31620326484E+03  0.32879041899E+03  0.90103467886E+02 0.  0.
    9000005    2    3    3    0    0 -0.99513922166E+01  0.51320960919E+01  0.31725142055E+03  0.31754465323E+03  0.77957895440E+01 0.  0.
         22    1    3    3    0    0  0.99513922166E+01 -0.51320960919E+01 -0.10481557056E+01  0.11245765769E+02  0.00000000000E+00 0. -1.
         22    1    4    4    0    0 -0.15058417696E+00 -0.16402219482E+01  0.51534276396E+02  0.51560591999E+02  0.00000000000E+00 0. -1.
         22    1    4    4    0    0 -0.98008080397E+01  0.67723180402E+01  0.26571714415E+03  0.26598406123E+03  0.00000000000E+00 0. -1.
<mgrwt>
<rscale>  0 0.90103468E+02</rscale>
<asrwt>0</asrwt>
<pdfrwt beam="2">  1        1 0.96824216E-03 0.90103468E+02</pdfrwt>
<pdfrwt beam="1">  1       -1 0.49614922E-01 0.90103468E+02</pdfrwt>
<totfact> 0.60684683E+04</totfact>
</mgrwt>
</event>
<event>
 7    1  0.3607059E-009  0.9095079E+02  0.7818608E-02  0.1300565E+00
          1   -1    0    0  501    0  0.00000000000E+00  0.00000000000E+00  0.46287885745E+02  0.46287886019E+02  0.50400000000E-02 0. -1.
         -1   -1    0    0    0  501 -0.00000000000E+00 -0.00000000000E+00 -0.44677162442E+02  0.44677162726E+02  0.50400000000E-02 0.  1.
         23    2    1    2    0    0  0.00000000000E+00 -0.35527136788E-14  0.16107233030E+01  0.90965048746E+02  0.90950787043E+02 0.  0.
    9000005    2    3    3    0    0  0.16825793830E+02 -0.26682431968E+02  0.32847130745E+02  0.46571663387E+02  0.97430138423E+01 0.  0.
         22    1    3    3    0    0 -0.16825793830E+02  0.26682431968E+02 -0.31236407442E+02  0.44393385359E+02  0.00000000000E+00 0.  1.
         22    1    4    4    0    0  0.97606547603E+01 -0.15198443437E+02  0.11798150663E+02  0.21574508646E+02  0.00000000000E+00 0.  1.
         22    1    4    4    0    0  0.70651390699E+01 -0.11483988531E+02  0.21048980082E+02  0.24997154741E+02  0.00000000000E+00 0.  1.
<mgrwt>
<rscale>  0 0.90950787E+02</rscale>
<asrwt>0</asrwt>
<pdfrwt beam="1">  1        1 0.71212132E-02 0.90950787E+02</pdfrwt>
<pdfrwt beam="2">  1       -1 0.68734097E-02 0.90950787E+02</pdfrwt>
<totfact> 0.93331838E+04</totfact>
</mgrwt>
</event>
<event>
 7    1  0.3607059E-009  0.9089689E+02  0.7818608E-02  0.1300694E+00
          1   -1    0    0  501    0  0.00000000000E+00  0.00000000000E+00  0.65468484775E+02  0.65468484969E+02  0.50400000000E-02 0. -1.
         -1   -1    0    0    0  501 -0.00000000000E+00 -0.00000000000E+00 -0.31550461477E+02  0.31550461879E+02  0.50400000000E-02 0.  1.
         23    2    1    2    0    0  0.17763568394E-14 -0.35527136788E-14  0.33918023298E+02  0.97018946848E+02  0.90896885222E+02 0.  0.
    9000005    2    3    3    0    0  0.12140288054E+02 -0.22134378337E+02 -0.21547984839E+02  0.36078029912E+02  0.14141827794E+02 0.  0.
         22    1    3    3    0    0 -0.12140288054E+02  0.22134378337E+02  0.55466008137E+02  0.60940916936E+02  0.00000000000E+00 0. -1.
         22    1    4    4    0    0 -0.27517926635E+00 -0.12500617924E+02 -0.56394655991E+01  0.13716586469E+02  0.00000000000E+00 0.  1.
         22    1    4    4    0    0  0.12415467320E+02 -0.96337604126E+01 -0.15908519239E+02  0.22361443443E+02  0.00000000000E+00 0.  1.
<mgrwt>
<rscale>  0 0.90896885E+02</rscale>
<asrwt>0</asrwt>
<pdfrwt beam="1">  1        1 0.10072075E-01 0.90896885E+02</pdfrwt>
<pdfrwt beam="2">  1       -1 0.48539172E-02 0.90896885E+02</pdfrwt>
<totfact> 0.98491638E+04</totfact>
</mgrwt>
</event>
<event>
 7    1  0.3607059E-009  0.8392231E+02  0.7818608E-02  0.1318275E+00
          1   -1    0    0  501    0  0.00000000000E+00  0.00000000000E+00  0.14460796496E+02  0.14460797374E+02  0.50400000000E-02 0. -1.
         -1   -1    0    0    0  501 -0.00000000000E+00 -0.00000000000E+00 -0.12175944329E+03  0.12175944339E+03  0.50400000000E-02 0.  1.
         23    2    1    2    0    0 -0.35527136788E-14  0.17763568394E-14 -0.10729864679E+03  0.13622024077E+03  0.83922311640E+02 0.  0.
    9000005    2    3    3    0    0  0.31845657154E+02 -0.86501109250E+01 -0.15682284237E+02  0.38841967079E+02  0.13183097856E+02 0.  0.
         22    1    3    3    0    0 -0.31845657154E+02  0.86501109250E+01 -0.91616362554E+02  0.97378273687E+02  0.00000000000E+00 0.  1.
         22    1    4    4    0    0  0.29707446356E+02 -0.53647302181E+01 -0.17074525444E+02  0.34682158504E+02  0.00000000000E+00 0. -1.
         22    1    4    4    0    0  0.21382107978E+01 -0.32853807068E+01  0.13922412070E+01  0.41598085753E+01  0.00000000000E+00 0. -1.
<mgrwt>
<rscale>  0 0.83922312E+02</rscale>
<asrwt>0</asrwt>
<pdfrwt beam="1">  1        1 0.22247381E-02 0.83922312E+02</pdfrwt>
<pdfrwt beam="2">  1       -1 0.18732221E-01 0.83922312E+02</pdfrwt>
<totfact> 0.96965808E+04</totfact>
</mgrwt>
</event>
<event>
 7    1  0.3607059E-009  0.9142667E+02  0.7818608E-02  0.1299433E+00
          1   -1    0    0  501    0  0.00000000000E+00  0.00000000000E+00  0.51002933178E+02  0.51002933427E+02  0.50400000000E-02 0. -1.
         -1   -1    0    0    0  501 -0.00000000000E+00 -0.00000000000E+00 -0.40972332873E+02  0.40972333183E+02  0.50400000000E-02 0.  1.
         23    2    1    2    0    0  0.00000000000E+00  0.00000000000E+00  0.10030600305E+02  0.91975266610E+02  0.91426674038E+02 0.  0.
    9000005    2    3    3    0    0 -0.20425092921E+02  0.32721457198E+02 -0.18414991909E+02  0.44047926830E+02  0.10640946810E+02 0.  0.
         22    1    3    3    0    0  0.20425092921E+02 -0.32721457198E+02  0.28445592214E+02  0.47927339780E+02  0.00000000000E+00 0. -1.
         22    1    4    4    0    0 -0.91004685140E+01  0.10645280295E+02 -0.11944184551E+02  0.18406630988E+02  0.00000000000E+00 0. -1.
         22    1    4    4    0    0 -0.11324624407E+02  0.22076176903E+02 -0.64708073589E+01  0.25641295842E+02  0.00000000000E+00 0. -1.
<mgrwt>
<rscale>  0 0.91426674E+02</rscale>
<asrwt>0</asrwt>
<pdfrwt beam="1">  1        1 0.78466052E-02 0.91426674E+02</pdfrwt>
<pdfrwt beam="2">  1       -1 0.63034359E-02 0.91426674E+02</pdfrwt>
<totfact> 0.93326992E+04</totfact>
</mgrwt>
</event>
<event>
 7    1  0.3607059E-009  0.9109006E+02  0.7818608E-02  0.1300233E+00
         -1   -1    0    0    0  501 -0.00000000000E+00  0.00000000000E+00  0.26577930848E+02  0.26577931326E+02  0.50400000000E-02 0.  1.
          1   -1    0    0  501    0  0.00000000000E+00 -0.00000000000E+00 -0.78047827753E+02  0.78047827916E+02  0.50400000000E-02 0. -1.
         23    2    1    2    0    0  0.00000000000E+00  0.00000000000E+00 -0.51469896905E+02  0.10462575924E+03  0.91090060981E+02 0.  0.
    9000005    2    3    3    0    0 -0.39497697343E+02  0.91597415286E+01 -0.46938963337E+02  0.63827495562E+02  0.15057023285E+02 0.  0.
         22    1    3    3    0    0  0.39497697343E+02 -0.91597415286E+01 -0.45309335673E+01  0.40798263680E+02  0.00000000000E+00 0. -1.
         22    1    4    4    0    0 -0.26219042353E+02 -0.52845644408E+00 -0.23591851747E+02  0.35274536382E+02  0.00000000000E+00 0. -1.
         22    1    4    4    0    0 -0.13278654991E+02  0.96881979727E+01 -0.23347111591E+02  0.28552959180E+02  0.00000000000E+00 0. -1.
<mgrwt>
<rscale>  0 0.91090061E+02</rscale>
<asrwt>0</asrwt>
<pdfrwt beam="2">  1        1 0.12007358E-01 0.91090061E+02</pdfrwt>
<pdfrwt beam="1">  1       -1 0.40889125E-02 0.91090061E+02</pdfrwt>
<totfact> 0.10061614E+05</totfact>
</mgrwt>
</event>
<event>
 7    1  0.3607059E-009  0.9929685E+02  0.7818608E-02  0.1281782E+00
         -1   -1    0    0    0  501 -0.00000000000E+00  0.00000000000E+00  0.37779645603E+01  0.37779679221E+01  0.50400000000E-02 0.  1.
          1   -1    0    0  501    0  0.00000000000E+00 -0.00000000000E+00 -0.65245850980E+03  0.65245850982E+03  0.50400000000E-02 0. -1.
         23    2    1    2    0    0  0.35527136788E-14  0.00000000000E+00 -0.64868054524E+03  0.65623647774E+03  0.99296852650E+02 0.  0.
    9000005    2    3    3    0    0 -0.31635286192E+02 -0.11642372412E+02 -0.56448792535E+03  0.56554616176E+03  0.77140816063E+01 0.  0.
         22    1    3    3    0    0  0.31635286192E+02  0.11642372412E+02 -0.84192619895E+02  0.90690315981E+02  0.00000000000E+00 0.  1.
         22    1    4    4    0    0 -0.19602762306E+02 -0.39938483019E+01 -0.36644183610E+03  0.36698751799E+03  0.00000000000E+00 0.  1.
         22    1    4    4    0    0 -0.12032523886E+02 -0.76485241104E+01 -0.19804608925E+03  0.19855864378E+03  0.00000000000E+00 0.  1.
<mgrwt>
<rscale>  0 0.99296853E+02</rscale>
<asrwt>0</asrwt>
<pdfrwt beam="2">  1        1 0.10037814E+00 0.99296853E+02</pdfrwt>
<pdfrwt beam="1">  1       -1 0.58122609E-03 0.99296853E+02</pdfrwt>
<totfact> 0.11327617E+05</totfact>
</mgrwt>
</event>
<event>
 7    1  0.3607059E-009  0.9058069E+02  0.7818608E-02  0.1301452E+00
          1   -1    0    0  501    0  0.00000000000E+00  0.00000000000E+00  0.78105154444E+02  0.78105154607E+02  0.50400000000E-02 0. -1.
         -1   -1    0    0    0  501 -0.00000000000E+00 -0.00000000000E+00 -0.26262225546E+02  0.26262226029E+02  0.50400000000E-02 0.  1.
         23    2    1    2    0    0 -0.35527136788E-14 -0.35527136788E-14  0.51842928899E+02  0.10436738064E+03  0.90580687037E+02 0.  0.
    9000005    2    3    3    0    0  0.30933019831E+02  0.17513612318E+02 -0.44028477408E+01  0.37830430585E+02  0.12172841810E+02 0.  0.
         22    1    3    3    0    0 -0.30933019831E+02 -0.17513612318E+02  0.56245776639E+02  0.66536950051E+02  0.00000000000E+00 0. -1.
         22    1    4    4    0    0  0.30033580641E+02  0.13722552216E+02 -0.61030526022E+01  0.33579333771E+02  0.00000000000E+00 0.  1.
         22    1    4    4    0    0  0.89943919034E+00  0.37910601024E+01  0.17002048614E+01  0.42510968146E+01  0.00000000000E+00 0.  1.
<mgrwt>
<rscale>  0 0.90580687E+02</rscale>
<asrwt>0</asrwt>
<pdfrwt beam="1">  1        1 0.12016178E-01 0.90580687E+02</pdfrwt>
<pdfrwt beam="2">  1       -1 0.40403425E-02 0.90580687E+02</pdfrwt>
<totfact> 0.10218777E+05</totfact>
</mgrwt>
</event>
<event>
 7    1  0.3607059E-009  0.9361805E+02  0.7818608E-02  0.1294319E+00
         -1   -1    0    0    0  501 -0.00000000000E+00  0.00000000000E+00  0.86353213704E+02  0.86353213851E+02  0.50400000000E-02 0.  1.
          1   -1    0    0  501    0  0.00000000000E+00 -0.00000000000E+00 -0.25373515876E+02  0.25373516377E+02  0.50400000000E-02 0. -1.
         23    2    1    2    0    0 -0.35527136788E-14  0.00000000000E+00  0.60979697828E+02  0.11172673023E+03  0.93618046872E+02 0.  0.
    9000005    2    3    3    0    0 -0.31292945957E+02  0.22944280082E+02  0.19058879885E+00  0.39608741961E+02  0.79452917150E+01 0.  0.
         22    1    3    3    0    0  0.31292945957E+02 -0.22944280082E+02  0.60789109029E+02  0.72117988267E+02  0.00000000000E+00 0.  1.
         22    1    4    4    0    0 -0.20824824573E+00  0.17227929250E+01  0.91932661234E+00  0.19638085992E+01  0.00000000000E+00 0. -1.
         22    1    4    4    0    0 -0.31084697712E+02  0.21221487157E+02 -0.72873781348E+00  0.37644933361E+02  0.00000000000E+00 0. -1.
<mgrwt>
<rscale>  0 0.93618047E+02</rscale>
<asrwt>0</asrwt>
<pdfrwt beam="2">  1        1 0.39036179E-02 0.93618047E+02</pdfrwt>
<pdfrwt beam="1">  1       -1 0.13285110E-01 0.93618047E+02</pdfrwt>
<totfact> 0.78065241E+04</totfact>
</mgrwt>
</event>
<event>
 7    1  0.3607059E-009  0.9089342E+02  0.7818608E-02  0.1300702E+00
         -1   -1    0    0    0  501 -0.00000000000E+00  0.00000000000E+00  0.10562310085E+03  0.10562310097E+03  0.50400000000E-02 0.  1.
          1   -1    0    0  501    0  0.00000000000E+00 -0.00000000000E+00 -0.19554467285E+02  0.19554467934E+02  0.50400000000E-02 0. -1.
         23    2    1    2    0    0  0.00000000000E+00  0.22204460493E-15  0.86068633565E+02  0.12517756890E+03  0.90893421506E+02 0.  0.
    9000005    2    3    3    0    0  0.45423568535E+02 -0.11750292345E+01  0.42471465237E+02  0.62206191610E+02  0.10505441424E+01 0.  0.
         22    1    3    3    0    0 -0.45423568535E+02  0.11750292345E+01  0.43597168328E+02  0.62971377294E+02  0.00000000000E+00 0. -1.
         22    1    4    4    0    0  0.43738043769E+01 -0.36146572689E+00  0.43594204937E+01  0.61859008430E+01  0.00000000000E+00 0. -1.
         22    1    4    4    0    0  0.41049764158E+02 -0.81356350757E+00  0.38112044744E+02  0.56020290767E+02  0.00000000000E+00 0. -1.
<mgrwt>
<rscale>  0 0.90893422E+02</rscale>
<asrwt>0</asrwt>
<pdfrwt beam="2">  1        1 0.30083796E-02 0.90893422E+02</pdfrwt>
<pdfrwt beam="1">  1       -1 0.16249708E-01 0.90893422E+02</pdfrwt>
<totfact> 0.81185076E+04</totfact>
</mgrwt>
</event>
<event>
 7    1  0.3607059E-009  0.9179630E+02  0.7818608E-02  0.1298559E+00
          1   -1    0    0  501    0  0.00000000000E+00  0.00000000000E+00  0.20844507333E+02  0.20844507943E+02  0.50400000000E-02 0. -1.
         -1   -1    0    0    0  501 -0.00000000000E+00 -0.00000000000E+00 -0.10106451677E+03  0.10106451690E+03  0.50400000000E-02 0.  1.
         23    2    1    2    0    0  0.00000000000E+00  0.00000000000E+00 -0.80220009437E+02  0.12190902484E+03  0.91796298526E+02 0.  0.
    9000005    2    3    3    0    0  0.41255984129E+02  0.16436954919E+02 -0.33852267430E+02  0.57704685326E+02  0.14547336010E+02 0.  0.
         22    1    3    3    0    0 -0.41255984129E+02 -0.16436954919E+02 -0.46367742008E+02  0.64204339513E+02  0.00000000000E+00 0.  1.
         22    1    4    4    0    0  0.24183966277E+02  0.83288986352E+01 -0.27990255680E+02  0.37916872107E+02  0.00000000000E+00 0.  1.
         22    1    4    4    0    0  0.17072017852E+02  0.81080562834E+01 -0.58620117499E+01  0.19787813219E+02  0.00000000000E+00 0.  1.
<mgrwt>
<rscale>  0 0.91796299E+02</rscale>
<asrwt>0</asrwt>
<pdfrwt beam="1">  1        1 0.32068474E-02 0.91796299E+02</pdfrwt>
<pdfrwt beam="2">  1       -1 0.15548387E-01 0.91796299E+02</pdfrwt>
<totfact> 0.79804412E+04</totfact>
</mgrwt>
</event>
<event>
 7    1  0.3607059E-009  0.9569418E+02  0.7818608E-02  0.1289620E+00
         -1   -1    0    0    0  501 -0.00000000000E+00  0.00000000000E+00  0.35723742368E+01  0.35723777920E+01  0.50400000000E-02 0.  1.
          1   -1    0    0  501    0  0.00000000000E+00 -0.00000000000E+00 -0.64084637299E+03  0.64084637301E+03  0.50400000000E-02 0. -1.
         23    2    1    2    0    0 -0.35527136788E-14  0.00000000000E+00 -0.63727399875E+03  0.64441875080E+03  0.95694184244E+02 0.  0.
    9000005    2    3    3    0    0 -0.29743624151E+02 -0.35807038474E+02 -0.37722825240E+03  0.38023961200E+03  0.10685548318E+02 0.  0.
         22    1    3    3    0    0  0.29743624151E+02  0.35807038474E+02 -0.26004574635E+03  0.26417913880E+03  0.00000000000E+00 0.  1.
         22    1    4    4    0    0 -0.68862117468E+01 -0.65968224985E+01 -0.48749742312E+02  0.49673688758E+02  0.00000000000E+00 0.  1.
         22    1    4    4    0    0 -0.22857412405E+02 -0.29210215975E+02 -0.32847851009E+03  0.33056592324E+03  0.00000000000E+00 0.  1.
<mgrwt>
<rscale>  0 0.95694184E+02</rscale>
<asrwt>0</asrwt>
<pdfrwt beam="2">  1        1 0.98591659E-01 0.95694184E+02</pdfrwt>
<pdfrwt beam="1">  1       -1 0.54959682E-03 0.95694184E+02</pdfrwt>
<totfact> 0.12492513E+05</totfact>
</mgrwt>
</event>
<event>
 7    1  0.3607059E-009  0.9154452E+02  0.7818608E-02  0.1299154E+00
          1   -1    0    0  501    0  0.00000000000E+00  0.00000000000E+00  0.17022308303E+02  0.17022309049E+02  0.50400000000E-02 0. -1.
         -1   -1    0    0    0  501 -0.00000000000E+00 -0.00000000000E+00 -0.12307964316E+03  0.12307964326E+03  0.50400000000E-02 0.  1.
         23    2    1    2    0    0  0.00000000000E+00 -0.35527136788E-14 -0.10605733485E+03  0.14010195231E+03  0.91544517938E+02 0.  0.
    9000005    2    3    3    0    0 -0.34869262131E+02 -0.18670836410E+02 -0.86477182681E+02  0.95967522065E+02  0.12922716165E+02 0.  0.
         22    1    3    3    0    0  0.34869262131E+02  0.18670836410E+02 -0.19580152173E+02  0.44134430244E+02  0.00000000000E+00 0. -1.
         22    1    4    4    0    0 -0.12521434779E+02 -0.21532983571E+01 -0.38272947008E+02  0.40326684657E+02  0.00000000000E+00 0. -1.
         22    1    4    4    0    0 -0.22347827351E+02 -0.16517538053E+02 -0.48204235673E+02  0.55640837408E+02  0.00000000000E+00 0. -1.
<mgrwt>
<rscale>  0 0.91544518E+02</rscale>
<asrwt>0</asrwt>
<pdfrwt beam="1">  1        1 0.26188168E-02 0.91544518E+02</pdfrwt>
<pdfrwt beam="2">  1       -1 0.18935329E-01 0.91544518E+02</pdfrwt>
<totfact> 0.77311815E+04</totfact>
</mgrwt>
</event>
<event>
 7    1  0.3607059E-009  0.9057850E+02  0.7818608E-02  0.1301457E+00
          1   -1    0    0  501    0  0.00000000000E+00  0.00000000000E+00  0.11079615552E+03  0.11079615563E+03  0.50400000000E-02 0. -1.
         -1   -1    0    0    0  501 -0.00000000000E+00 -0.00000000000E+00 -0.18512518679E+02  0.18512519365E+02  0.50400000000E-02 0.  1.
         23    2    1    2    0    0  0.00000000000E+00 -0.17763568394E-14  0.92283636838E+02  0.12930867500E+03  0.90578495248E+02 0.  0.
    9000005    2    3    3    0    0  0.41657025815E+02  0.15642892444E+02  0.49855669573E+02  0.67825829503E+02  0.11608078027E+02 0.  0.
         22    1    3    3    0    0 -0.41657025815E+02 -0.15642892444E+02  0.42427967265E+02  0.61482845493E+02  0.00000000000E+00 0. -1.
         22    1    4    4    0    0  0.28764482061E+01 -0.96863048056E+00  0.72821744285E+01  0.78893766355E+01  0.00000000000E+00 0. -1.
         22    1    4    4    0    0  0.38780577608E+02  0.16611522925E+02  0.42573495145E+02  0.59936452868E+02  0.00000000000E+00 0. -1.
<mgrwt>
<rscale>  0 0.90578495E+02</rscale>
<asrwt>0</asrwt>
<pdfrwt beam="1">  1        1 0.17045563E-01 0.90578495E+02</pdfrwt>
<pdfrwt beam="2">  1       -1 0.28480798E-02 0.90578495E+02</pdfrwt>
<totfact> 0.10818706E+05</totfact>
</mgrwt>
</event>
<event>
 7    1  0.3607059E-009  0.9198966E+02  0.7818608E-02  0.1298104E+00
         -1   -1    0    0    0  501 -0.00000000000E+00  0.00000000000E+00  0.12922591072E+03  0.12922591081E+03  0.50400000000E-02 0.  1.
          1   -1    0    0  501    0  0.00000000000E+00 -0.00000000000E+00 -0.16370743338E+02  0.16370744113E+02  0.50400000000E-02 0. -1.
         23    2    1    2    0    0  0.00000000000E+00  0.00000000000E+00  0.11285516738E+03  0.14559665493E+03  0.91989657691E+02 0.  0.
    9000005    2    3    3    0    0 -0.97153950231E+01  0.32379122997E+02  0.10577283333E+03  0.11105746035E+03  0.17523475346E+01 0.  0.
         22    1    3    3    0    0  0.97153950231E+01 -0.32379122997E+02  0.70823340472E+01  0.34539194578E+02  0.00000000000E+00 0. -1.
         22    1    4    4    0    0 -0.16898528695E+01  0.70643179824E+01  0.20834310270E+02  0.22064194426E+02  0.00000000000E+00 0.  1.
         22    1    4    4    0    0 -0.80255421537E+01  0.25314805015E+02  0.84938523061E+02  0.88993265923E+02  0.00000000000E+00 0.  1.
<mgrwt>
<rscale>  0 0.91989658E+02</rscale>
<asrwt>0</asrwt>
<pdfrwt beam="2">  1        1 0.25185761E-02 0.91989658E+02</pdfrwt>
<pdfrwt beam="1">  1       -1 0.19880909E-01 0.91989658E+02</pdfrwt>
<totfact> 0.75565190E+04</totfact>
</mgrwt>
</event>
<event>
 7    1  0.3607059E-009  0.9348274E+02  0.7818608E-02  0.1294630E+00
         -1   -1    0    0    0  501 -0.00000000000E+00  0.00000000000E+00  0.32964999393E+02  0.32964999778E+02  0.50400000000E-02 0.  1.
          1   -1    0    0  501    0  0.00000000000E+00 -0.00000000000E+00 -0.66275003768E+02  0.66275003959E+02  0.50400000000E-02 0. -1.
         23    2    1    2    0    0  0.00000000000E+00  0.22204460493E-15 -0.33310004375E+02  0.99240003738E+02  0.93482736109E+02 0.  0.
    9000005    2    3    3    0    0 -0.14671327805E+02  0.52880534488E+00  0.28987614287E+02  0.35235935229E+02  0.13629448071E+02 0.  0.
         22    1    3    3    0    0  0.14671327805E+02 -0.52880534488E+00 -0.62297618662E+02  0.64004068509E+02  0.00000000000E+00 0. -1.
         22    1    4    4    0    0 -0.11289502220E+02 -0.53724647040E+01  0.13957091435E+02  0.18738106593E+02  0.00000000000E+00 0. -1.
         22    1    4    4    0    0 -0.33818255857E+01  0.59012700489E+01  0.15030522852E+02  0.16497828636E+02  0.00000000000E+00 0. -1.
<mgrwt>
<rscale>  0 0.93482736E+02</rscale>
<asrwt>0</asrwt>
<pdfrwt beam="2">  1        1 0.10196154E-01 0.93482736E+02</pdfrwt>
<pdfrwt beam="1">  1       -1 0.50715384E-02 0.93482736E+02</pdfrwt>
<totfact> 0.91298813E+04</totfact>
</mgrwt>
</event>
<event>
 7    1  0.3607059E-009  0.9269409E+02  0.7818608E-02  0.1296456E+00
         -1   -1    0    0    0  501 -0.00000000000E+00  0.00000000000E+00  0.17328300189E+01  0.17328373484E+01  0.50400000000E-02 0.  1.
          1   -1    0    0  501    0  0.00000000000E+00 -0.00000000000E+00 -0.12396161572E+04  0.12396161572E+04  0.50400000000E-02 0. -1.
         23    2    1    2    0    0  0.35527136788E-14  0.88817841970E-15 -0.12378833272E+04  0.12413489945E+04  0.92694091390E+02 0.  0.
    9000005    2    3    3    0    0  0.27797609894E+02  0.58609910591E+01 -0.11071622184E+04  0.11075765511E+04  0.10515726057E+02 0.  0.
         22    1    3    3    0    0 -0.27797609894E+02 -0.58609910591E+01 -0.13072110879E+03  0.13377244341E+03  0.00000000000E+00 0.  1.
         22    1    4    4    0    0  0.13656151127E+02  0.54676260839E+00 -0.70152320831E+03  0.70165632700E+03  0.00000000000E+00 0. -1.
         22    1    4    4    0    0  0.14141458767E+02  0.53142284507E+01 -0.40563901005E+03  0.40592022412E+03  0.00000000000E+00 0. -1.
<mgrwt>
<rscale>  0 0.92694091E+02</rscale>
<asrwt>0</asrwt>
<pdfrwt beam="2">  1        1 0.19070947E+00 0.92694091E+02</pdfrwt>
<pdfrwt beam="1">  1       -1 0.26659079E-03 0.92694091E+02</pdfrwt>
<totfact> 0.11993081E+05</totfact>
</mgrwt>
</event>
<event>
 7    1  0.3607059E-009  0.9646228E+02  0.7818608E-02  0.1287916E+00
          1   -1    0    0  501    0  0.00000000000E+00  0.00000000000E+00  0.71825430489E+01  0.71825448171E+01  0.50400000000E-02 0. -1.
         -1   -1    0    0    0  501 -0.00000000000E+00 -0.00000000000E+00 -0.32387448703E+03  0.32387448707E+03  0.50400000000E-02 0.  1.
         23    2    1    2    0    0 -0.35527136788E-14  0.00000000000E+00 -0.31669194398E+03  0.33105703188E+03  0.96462277491E+02 0.  0.
    9000005    2    3    3    0    0 -0.28550725478E+02  0.21481203910E+02 -0.26923159877E+03  0.27165105227E+03  0.56616583473E+01 0.  0.
         22    1    3    3    0    0  0.28550725478E+02 -0.21481203910E+02 -0.47460345205E+02  0.59405979612E+02  0.00000000000E+00 0. -1.
         22    1    4    4    0    0 -0.25413630538E+02  0.21066250576E+02 -0.24625207948E+03  0.24845467631E+03  0.00000000000E+00 0.  1.
         22    1    4    4    0    0 -0.31370949395E+01  0.41495333412E+00 -0.22979519289E+02  0.23196375960E+02  0.00000000000E+00 0.  1.
<mgrwt>
<rscale>  0 0.96462277E+02</rscale>
<asrwt>0</asrwt>
<pdfrwt beam="1">  1        1 0.11050070E-02 0.96462277E+02</pdfrwt>
<pdfrwt beam="2">  1       -1 0.49826833E-01 0.96462277E+02</pdfrwt>
<totfact> 0.50659720E+04</totfact>
</mgrwt>
</event>
<event>
 7    1  0.3607059E-009  0.9360513E+02  0.7818608E-02  0.1294349E+00
          1   -1    0    0  501    0  0.00000000000E+00  0.00000000000E+00  0.63773583491E+01  0.63773603406E+01  0.50400000000E-02 0.  1.
         -1   -1    0    0    0  501 -0.00000000000E+00 -0.00000000000E+00 -0.34347759780E+03  0.34347759784E+03  0.50400000000E-02 0. -1.
         23    2    1    2    0    0  0.00000000000E+00  0.00000000000E+00 -0.33710023945E+03  0.34985495818E+03  0.93605129793E+02 0.  0.
    9000005    2    3    3    0    0  0.22479326462E+02  0.10164313042E+02 -0.31662145099E+03  0.31779229836E+03  0.11583103674E+02 0.  0.
         22    1    3    3    0    0 -0.22479326462E+02 -0.10164313042E+02 -0.20478788456E+02  0.32062659815E+02  0.00000000000E+00 0.  1.
         22    1    4    4    0    0  0.13361657356E+02  0.72369464548E+01 -0.25281478689E+03  0.25327104799E+03  0.00000000000E+00 0.  1.
         22    1    4    4    0    0  0.91176691059E+01  0.29273665872E+01 -0.63806664107E+02  0.64521250372E+02  0.00000000000E+00 0.  1.
<mgrwt>
<rscale>  0 0.93605130E+02</rscale>
<asrwt>0</asrwt>
<pdfrwt beam="1">  1        1 0.98113248E-03 0.93605130E+02</pdfrwt>
<pdfrwt beam="2">  1       -1 0.52842693E-01 0.93605130E+02</pdfrwt>
<totfact> 0.53450963E+04</totfact>
</mgrwt>
</event>
<event>
 7    1  0.3607059E-009  0.9229973E+02  0.7818608E-02  0.1297376E+00
         -1   -1    0    0    0  501 -0.00000000000E+00  0.00000000000E+00  0.22055636221E+03  0.22055636227E+03  0.50400000000E-02 0.  1.
          1   -1    0    0  501    0  0.00000000000E+00 -0.00000000000E+00 -0.96565325672E+01  0.96565338825E+01  0.50400000000E-02 0. -1.
         23    2    1    2    0    0  0.00000000000E+00 -0.71054273576E-14  0.21089982965E+03  0.23021289615E+03  0.92299725951E+02 0.  0.
    9000005    2    3    3    0    0  0.27772544962E+02 -0.34583283897E+02  0.77645348041E+02  0.89770471485E+02  0.79132609898E+01 0.  0.
         22    1    3    3    0    0 -0.27772544962E+02  0.34583283897E+02  0.13325448161E+03  0.14044242467E+03  0.00000000000E+00 0.  1.
         22    1    4    4    0    0  0.22594201914E+02 -0.24656638758E+02  0.52527114481E+02  0.62269940989E+02  0.00000000000E+00 0.  1.
         22    1    4    4    0    0  0.51783430476E+01 -0.99266451392E+01  0.25118233559E+02  0.27500530496E+02  0.00000000000E+00 0.  1.
<mgrwt>
<rscale>  0 0.92299726E+02</rscale>
<asrwt>0</asrwt>
<pdfrwt beam="2">  1        1 0.14856206E-02 0.92299726E+02</pdfrwt>
<pdfrwt beam="1">  1       -1 0.33931745E-01 0.92299726E+02</pdfrwt>
<totfact> 0.65317370E+04</totfact>
</mgrwt>
</event>
<event>
 7    1  0.3607059E-009  0.9153969E+02  0.7818608E-02  0.1299165E+00
         -1   -1    0    0    0  501 -0.00000000000E+00  0.00000000000E+00  0.12166443920E+02  0.12166444964E+02  0.50400000000E-02 0.  1.
          1   -1    0    0  501    0  0.00000000000E+00 -0.00000000000E+00 -0.17218494394E+03  0.17218494401E+03  0.50400000000E-02 0. -1.
         23    2    1    2    0    0 -0.71054273576E-14  0.00000000000E+00 -0.16001850002E+03  0.18435138898E+03  0.91539686854E+02 0.  0.
    9000005    2    3    3    0    0  0.38107082660E+02  0.19262979697E+02 -0.10882690225E+03  0.11768961719E+03  0.13577157475E+02 0.  0.
         22    1    3    3    0    0 -0.38107082660E+02 -0.19262979697E+02 -0.51191597764E+02  0.66661771783E+02  0.00000000000E+00 0.  1.
         22    1    4    4    0    0  0.16246144356E+01  0.71055393004E+00 -0.17756659889E+02  0.17844977707E+02  0.00000000000E+00 0. -1.
         22    1    4    4    0    0  0.36482468224E+02  0.18552425767E+02 -0.91070242365E+02  0.99844639485E+02  0.00000000000E+00 0. -1.
<mgrwt>
<rscale>  0 0.91539687E+02</rscale>
<asrwt>0</asrwt>
<pdfrwt beam="2">  1        1 0.26489990E-01 0.91539687E+02</pdfrwt>
<pdfrwt beam="1">  1       -1 0.18717608E-02 0.91539687E+02</pdfrwt>
<totfact> 0.11382842E+05</totfact>
</mgrwt>
</event>
<event>
 7    1  0.3607059E-009  0.9277328E+02  0.7818608E-02  0.1296271E+00
         -1   -1    0    0    0  501 -0.00000000000E+00  0.00000000000E+00  0.74182558663E+02  0.74182558834E+02  0.50400000000E-02 0.  1.
          1   -1    0    0  501    0  0.00000000000E+00 -0.00000000000E+00 -0.29005741509E+02  0.29005741947E+02  0.50400000000E-02 0. -1.
         23    2    1    2    0    0  0.00000000000E+00 -0.71054273576E-14  0.45176817154E+02  0.10318830078E+03  0.92773275301E+02 0.  0.
    9000005    2    3    3    0    0  0.13464628799E+02 -0.42072561524E+02  0.10915868706E+02  0.47284729783E+02  0.12856625498E+02 0.  0.
         22    1    3    3    0    0 -0.13464628799E+02  0.42072561524E+02  0.34260948447E+02  0.55903570998E+02  0.00000000000E+00 0.  1.
         22    1    4    4    0    0  0.65752524779E+01 -0.33451649297E+02  0.12123633903E+02  0.36183273550E+02  0.00000000000E+00 0.  1.
         22    1    4    4    0    0  0.68893763211E+01 -0.86209122267E+01 -0.12077651964E+01  0.11101456233E+02  0.00000000000E+00 0.  1.
<mgrwt>
<rscale>  0 0.92773275E+02</rscale>
<asrwt>0</asrwt>
<pdfrwt beam="2">  1        1 0.44624219E-02 0.92773275E+02</pdfrwt>
<pdfrwt beam="1">  1       -1 0.11412701E-01 0.92773275E+02</pdfrwt>
<totfact> 0.82001937E+04</totfact>
</mgrwt>
</event>
<event>
 7    1  0.3607059E-009  0.9235835E+02  0.7818608E-02  0.1297239E+00
          1   -1    0    0  501    0  0.00000000000E+00  0.00000000000E+00  0.57765296095E+03  0.57765296097E+03  0.50400000000E-02 0. -1.
         -1   -1    0    0    0  501 -0.00000000000E+00 -0.00000000000E+00 -0.36916889345E+01  0.36916923748E+01  0.50400000000E-02 0.  1.
         23    2    1    2    0    0  0.00000000000E+00  0.00000000000E+00  0.57396127202E+03  0.58134465335E+03  0.92358346679E+02 0.  0.
    9000005    2    3    3    0    0 -0.46670501306E+01  0.20398952936E+02  0.54579040949E+03  0.54625197415E+03  0.81332362958E+01 0.  0.
         22    1    3    3    0    0  0.46670501306E+01 -0.20398952936E+02  0.28170862521E+02  0.35092679194E+02  0.00000000000E+00 0.  1.
         22    1    4    4    0    0 -0.64036602170E+01  0.14238404037E+02  0.33370376291E+03  0.33406876597E+03  0.00000000000E+00 0. -1.
         22    1    4    4    0    0  0.17366100864E+01  0.61605488988E+01  0.21208664658E+03  0.21218320818E+03  0.00000000000E+00 0. -1.
<mgrwt>
<rscale>  0 0.92358347E+02</rscale>
<asrwt>0</asrwt>
<pdfrwt beam="1">  1        1 0.88869707E-01 0.92358347E+02</pdfrwt>
<pdfrwt beam="2">  1       -1 0.56795228E-03 0.92358347E+02</pdfrwt>
<totfact> 0.13649173E+05</totfact>
</mgrwt>
</event>
