<event>
 7    1  0.1729354E-009  0.8913676E+02  0.7818608E-02  0.1304956E+00
         -3   -1    0    0    0  501 -0.00000000000E+00  0.00000000000E+00  0.21176374754E+03  0.21176377162E+03  0.10100000000E+00 0.  1.
          3   -1    0    0  501    0  0.00000000000E+00 -0.00000000000E+00 -0.93796864935E+01  0.93802302593E+01  0.10100000000E+00 0. -1.
         23    2    1    2    0    0  0.00000000000E+00  0.00000000000E+00  0.20238406104E+03  0.22114400188E+03  0.89136756750E+02 0.  0.
    9000005    2    3    3    0    0 -0.44929588886E+01 -0.19624833004E+02  0.19953671737E+03  0.20081107007E+03  0.10240289783E+02 0.  0.
         22    1    3    3    0    0  0.44929588886E+01  0.19624833004E+02  0.28473436745E+01  0.20332931811E+02  0.00000000000E+00 0. -1.
         22    1    4    4    0    0 -0.13349304047E+01 -0.28858831476E+01  0.96181537067E+01  0.10130115570E+02  0.00000000000E+00 0.  1.
         22    1    4    4    0    0 -0.31580284839E+01 -0.16738949857E+02  0.18991856366E+03  0.19068095450E+03  0.00000000000E+00 0.  1.
<mgrwt>
<rscale>  0 0.89136757E+02</rscale>
<asrwt>0</asrwt>
<pdfrwt beam="2">  1        3 0.14430723E-02 0.89136757E+02</pdfrwt>
<pdfrwt beam="1">  1       -3 0.32579083E-01 0.89136757E+02</pdfrwt>
<totfact> 0.29159146E+04</totfact>
</mgrwt>
</event>
<event>
 7    1  0.1312339E-009  0.9008169E+02  0.7818608E-02  0.1302654E+00
          3   -1    0    0  501    0  0.00000000000E+00  0.00000000000E+00  0.79733094265E+02  0.79733158235E+02  0.10100000000E+00 0. -1.
         -3   -1    0    0    0  501 -0.00000000000E+00 -0.00000000000E+00 -0.25443185068E+02  0.25443385533E+02  0.10100000000E+00 0.  1.
         23    2    1    2    0    0  0.00000000000E+00  0.00000000000E+00  0.54289909197E+02  0.10517654377E+03  0.90081691360E+02 0.  0.
    9000005    2    3    3    0    0 -0.33357279269E+02  0.25701381767E+02  0.43106424108E+02  0.61606606384E+02  0.12803946492E+02 0.  0.
         22    1    3    3    0    0  0.33357279269E+02 -0.25701381767E+02  0.11183485089E+02  0.43569937384E+02  0.00000000000E+00 0. -1.
         22    1    4    4    0    0 -0.29965328970E+02  0.19102449901E+02  0.40155376210E+02  0.53621625964E+02  0.00000000000E+00 0. -1.
         22    1    4    4    0    0 -0.33919502989E+01  0.65989318660E+01  0.29510478986E+01  0.79849804196E+01  0.00000000000E+00 0. -1.
<mgrwt>
<rscale>  0 0.90081691E+02</rscale>
<asrwt>0</asrwt>
<pdfrwt beam="1">  1        3 0.12266650E-01 0.90081691E+02</pdfrwt>
<pdfrwt beam="2">  1       -3 0.39143565E-02 0.90081691E+02</pdfrwt>
<totfact> 0.35434897E+04</totfact>
</mgrwt>
</event>
<event>
 7    1  0.1312339E-009  0.9084541E+02  0.7818608E-02  0.1300817E+00
         -3   -1    0    0    0  501 -0.00000000000E+00  0.00000000000E+00  0.23336500284E+01  0.23358346378E+01  0.10100000000E+00 0.  1.
          3   -1    0    0  501    0  0.00000000000E+00 -0.00000000000E+00 -0.88370221580E+03  0.88370222158E+03  0.10100000000E+00 0. -1.
         23    2    1    2    0    0  0.00000000000E+00  0.71054273576E-14 -0.88136856578E+03  0.88603805621E+03  0.90845408917E+02 0.  0.
    9000005    2    3    3    0    0  0.14221674635E+02  0.35892367254E+02 -0.67177484789E+03  0.67291826682E+03  0.68578056058E+01 0.  0.
         22    1    3    3    0    0 -0.14221674635E+02 -0.35892367254E+02 -0.20959371788E+03  0.21311978940E+03  0.00000000000E+00 0. -1.
         22    1    4    4    0    0  0.21412323311E+01  0.28292699357E+01 -0.37536851113E+02  0.37704175309E+02  0.00000000000E+00 0. -1.
         22    1    4    4    0    0  0.12080442304E+02  0.33063097319E+02 -0.63423799678E+03  0.63521409151E+03  0.00000000000E+00 0. -1.
<mgrwt>
<rscale>  0 0.90845409E+02</rscale>
<asrwt>0</asrwt>
<pdfrwt beam="2">  1        3 0.13595409E+00 0.90845409E+02</pdfrwt>
<pdfrwt beam="1">  1       -3 0.35919228E-03 0.90845409E+02</pdfrwt>
<totfact> 0.11405382E+04</totfact>
</mgrwt>
</event>
<event>
 7    1  0.1312339E-009  0.9061796E+02  0.7818608E-02  0.1301362E+00
          3   -1    0    0  501    0  0.00000000000E+00  0.00000000000E+00  0.49105002063E+02  0.49105105932E+02  0.10100000000E+00 0. -1.
         -3   -1    0    0    0  501 -0.00000000000E+00 -0.00000000000E+00 -0.41806196517E+02  0.41806318520E+02  0.10100000000E+00 0.  1.
         23    2    1    2    0    0 -0.35527136788E-14  0.44408920985E-15  0.72988055465E+01  0.90911424452E+02  0.90617959222E+02 0.  0.
    9000005    2    3    3    0    0 -0.28502254217E+02  0.30507600481E+01 -0.30136153200E+02  0.43762068479E+02  0.13610484029E+02 0.  0.
         22    1    3    3    0    0  0.28502254217E+02 -0.30507600481E+01  0.37434958747E+02  0.47149355973E+02  0.00000000000E+00 0. -1.
         22    1    4    4    0    0 -0.98076214344E+01  0.61227353894E+01 -0.58417855675E+01  0.12953910045E+02  0.00000000000E+00 0. -1.
         22    1    4    4    0    0 -0.18694632782E+02 -0.30719753413E+01 -0.24294367633E+02  0.30808158433E+02  0.00000000000E+00 0. -1.
<mgrwt>
<rscale>  0 0.90617959E+02</rscale>
<asrwt>0</asrwt>
<pdfrwt beam="1">  1        3 0.75546331E-02 0.90617959E+02</pdfrwt>
<pdfrwt beam="2">  1       -3 0.64317399E-02 0.90617959E+02</pdfrwt>
<totfact> 0.35955770E+04</totfact>
</mgrwt>
</event>
<event>
 7    1  0.1312339E-009  0.9060726E+02  0.7818608E-02  0.1301388E+00
          3   -1    0    0  501    0  0.00000000000E+00  0.00000000000E+00  0.16485530293E+02  0.16485839683E+02  0.10100000000E+00 0. -1.
         -3   -1    0    0    0  501 -0.00000000000E+00 -0.00000000000E+00 -0.12449671714E+03  0.12449675811E+03  0.10100000000E+00 0.  1.
         23    2    1    2    0    0  0.00000000000E+00  0.00000000000E+00 -0.10801118684E+03  0.14098259779E+03  0.90607264587E+02 0.  0.
    9000005    2    3    3    0    0 -0.36932278087E+02 -0.24596674376E+02 -0.44956166023E+02  0.63879256709E+02  0.95138330347E+01 0.  0.
         22    1    3    3    0    0  0.36932278087E+02  0.24596674376E+02 -0.63055020820E+02  0.77103341080E+02  0.00000000000E+00 0. -1.
         22    1    4    4    0    0 -0.28436331834E+02 -0.14239133105E+02 -0.34179346230E+02  0.46686246245E+02  0.00000000000E+00 0. -1.
         22    1    4    4    0    0 -0.84959462533E+01 -0.10357541272E+02 -0.10776819793E+02  0.17193010463E+02  0.00000000000E+00 0. -1.
<mgrwt>
<rscale>  0 0.90607265E+02</rscale>
<asrwt>0</asrwt>
<pdfrwt beam="1">  1        3 0.25362625E-02 0.90607265E+02</pdfrwt>
<pdfrwt beam="2">  1       -3 0.19153367E-01 0.90607265E+02</pdfrwt>
<totfact> 0.32414469E+04</totfact>
</mgrwt>
</event>
<event>
 7    1  0.1312339E-009  0.8868650E+02  0.7818608E-02  0.1306064E+00
         -3   -1    0    0    0  501 -0.00000000000E+00  0.00000000000E+00  0.91880278897E+01  0.91885829974E+01  0.10100000000E+00 0.  1.
          3   -1    0    0  501    0  0.00000000000E+00 -0.00000000000E+00 -0.21400229268E+03  0.21400231652E+03  0.10100000000E+00 0. -1.
         23    2    1    2    0    0  0.00000000000E+00 -0.71054273576E-14 -0.20481426479E+03  0.22319089952E+03  0.88686495946E+02 0.  0.
    9000005    2    3    3    0    0 -0.53076281859E+01  0.42271167692E+02 -0.13330180391E+03  0.13994995648E+03  0.12636689546E+01 0.  0.
         22    1    3    3    0    0  0.53076281859E+01 -0.42271167692E+02 -0.71512460887E+02  0.83240943033E+02  0.00000000000E+00 0. -1.
         22    1    4    4    0    0 -0.26072442176E+01  0.15857950781E+02 -0.50140839073E+02  0.52653357617E+02  0.00000000000E+00 0.  1.
         22    1    4    4    0    0 -0.27003839682E+01  0.26413216911E+02 -0.83160964835E+02  0.87296598865E+02  0.00000000000E+00 0.  1.
<mgrwt>
<rscale>  0 0.88686496E+02</rscale>
<asrwt>0</asrwt>
<pdfrwt beam="2">  1        3 0.32923470E-01 0.88686496E+02</pdfrwt>
<pdfrwt beam="1">  1       -3 0.14135874E-02 0.88686496E+02</pdfrwt>
<totfact> 0.29454080E+04</totfact>
</mgrwt>
</event>
<event>
 7    1  0.1312339E-009  0.9157452E+02  0.7818608E-02  0.1299083E+00
         -3   -1    0    0    0  501 -0.00000000000E+00  0.00000000000E+00  0.80194509037E+01  0.80200868946E+01  0.10100000000E+00 0.  1.
          3   -1    0    0  501    0  0.00000000000E+00 -0.00000000000E+00 -0.26141253947E+03  0.26141255898E+03  0.10100000000E+00 0. -1.
         23    2    1    2    0    0  0.00000000000E+00  0.00000000000E+00 -0.25339308857E+03  0.26943264588E+03  0.91574523371E+02 0.  0.
    9000005    2    3    3    0    0  0.33454679861E+02  0.24446497217E+02 -0.18142532342E+03  0.18638924728E+03  0.10438232191E+02 0.  0.
         22    1    3    3    0    0 -0.33454679861E+02 -0.24446497217E+02 -0.71967765145E+02  0.83043398598E+02  0.00000000000E+00 0.  1.
         22    1    4    4    0    0  0.27374887263E+02  0.20743693957E+02 -0.16414815711E+03  0.16770301958E+03  0.00000000000E+00 0.  1.
         22    1    4    4    0    0  0.60797925988E+01  0.37028032607E+01 -0.17277166310E+02  0.18686227702E+02  0.00000000000E+00 0.  1.
<mgrwt>
<rscale>  0 0.91574523E+02</rscale>
<asrwt>0</asrwt>
<pdfrwt beam="2">  1        3 0.40217358E-01 0.91574523E+02</pdfrwt>
<pdfrwt beam="1">  1       -3 0.12338123E-02 0.91574523E+02</pdfrwt>
<totfact> 0.24969891E+04</totfact>
</mgrwt>
</event>
<event>
 7    1  0.1312339E-009  0.9002887E+02  0.7818608E-02  0.1302782E+00
         -3   -1    0    0    0  501 -0.00000000000E+00  0.00000000000E+00  0.87398313134E+01  0.87404148864E+01  0.10100000000E+00 0.  1.
          3   -1    0    0  501    0  0.00000000000E+00 -0.00000000000E+00 -0.23183816863E+03  0.23183819063E+03  0.10100000000E+00 0. -1.
         23    2    1    2    0    0 -0.35527136788E-14  0.00000000000E+00 -0.22309833732E+03  0.24057860552E+03  0.90028869364E+02 0.  0.
    9000005    2    3    3    0    0  0.30473554033E+02 -0.29848430973E+02 -0.14020735549E+03  0.14735585510E+03  0.15364868108E+02 0.  0.
         22    1    3    3    0    0 -0.30473554033E+02  0.29848430973E+02 -0.82890981830E+02  0.93222750419E+02  0.00000000000E+00 0.  1.
         22    1    4    4    0    0  0.12293674177E+02 -0.84955810971E+01 -0.73321682387E+02  0.74828994588E+02  0.00000000000E+00 0.  1.
         22    1    4    4    0    0  0.18179879857E+02 -0.21352849876E+02 -0.66885673101E+02  0.72526860512E+02  0.00000000000E+00 0.  1.
<mgrwt>
<rscale>  0 0.90028869E+02</rscale>
<asrwt>0</asrwt>
<pdfrwt beam="2">  1        3 0.35667452E-01 0.90028869E+02</pdfrwt>
<pdfrwt beam="1">  1       -3 0.13446362E-02 0.90028869E+02</pdfrwt>
<totfact> 0.27446461E+04</totfact>
</mgrwt>
</event>
<event>
 7    1  0.1312339E-009  0.9356647E+02  0.7818608E-02  0.1294438E+00
          3   -1    0    0  501    0  0.00000000000E+00  0.00000000000E+00  0.14335342162E+02  0.14335697957E+02  0.10100000000E+00 0.  1.
         -3   -1    0    0    0  501 -0.00000000000E+00 -0.00000000000E+00 -0.15267432823E+03  0.15267436164E+03  0.10100000000E+00 0. -1.
         23    2    1    2    0    0  0.00000000000E+00  0.00000000000E+00 -0.13833898607E+03  0.16701005959E+03  0.93566473372E+02 0.  0.
    9000005    2    3    3    0    0 -0.39186427431E+02 -0.21731513561E+02 -0.49885608664E+02  0.67854450824E+02  0.10383533519E+02 0.  0.
         22    1    3    3    0    0  0.39186427431E+02  0.21731513561E+02 -0.88453377402E+02  0.99155608769E+02  0.00000000000E+00 0.  1.
         22    1    4    4    0    0 -0.11956506393E+02 -0.39768723726E+01 -0.83729452738E+01  0.15128772969E+02  0.00000000000E+00 0. -1.
         22    1    4    4    0    0 -0.27229921038E+02 -0.17754641189E+02 -0.41512663390E+02  0.52725677855E+02  0.00000000000E+00 0. -1.
<mgrwt>
<rscale>  0 0.93566473E+02</rscale>
<asrwt>0</asrwt>
<pdfrwt beam="1">  1        3 0.22054673E-02 0.93566473E+02</pdfrwt>
<pdfrwt beam="2">  1       -3 0.23488387E-01 0.93566473E+02</pdfrwt>
<totfact> 0.28244766E+04</totfact>
</mgrwt>
</event>
<event>
 7    1  0.1312339E-009  0.9229280E+02  0.7818608E-02  0.1297392E+00
          3   -1    0    0  501    0  0.00000000000E+00  0.00000000000E+00  0.64289063430E+02  0.64289142767E+02  0.10100000000E+00 0. -1.
         -3   -1    0    0    0  501 -0.00000000000E+00 -0.00000000000E+00 -0.33123503910E+02  0.33123657894E+02  0.10100000000E+00 0.  1.
         23    2    1    2    0    0  0.00000000000E+00  0.71054273576E-14  0.31165559520E+02  0.97412800660E+02  0.92292803795E+02 0.  0.
    9000005    2    3    3    0    0  0.58574968724E+01 -0.41611423035E+02  0.35588656073E+02  0.55158989238E+02  0.31844710819E+01 0.  0.
         22    1    3    3    0    0 -0.58574968724E+01  0.41611423035E+02 -0.44230965527E+01  0.42253811423E+02  0.00000000000E+00 0.  1.
         22    1    4    4    0    0  0.50286894772E+01 -0.37224616061E+02  0.30471477722E+02  0.48368075352E+02  0.00000000000E+00 0.  1.
         22    1    4    4    0    0  0.82880739522E+00 -0.43868069744E+01  0.51171783506E+01  0.67909138855E+01  0.00000000000E+00 0.  1.
<mgrwt>
<rscale>  0 0.92292804E+02</rscale>
<asrwt>0</asrwt>
<pdfrwt beam="1">  1        3 0.98906431E-02 0.92292804E+02</pdfrwt>
<pdfrwt beam="2">  1       -3 0.50959416E-02 0.92292804E+02</pdfrwt>
<totfact> 0.33725644E+04</totfact>
</mgrwt>
</event>
<event>
 7    1  0.1312339E-009  0.9519539E+02  0.7818608E-02  0.1290737E+00
         -3   -1    0    0    0  501 -0.00000000000E+00  0.00000000000E+00  0.12747589827E+02  0.12747989936E+02  0.10100000000E+00 0. -1.
          3   -1    0    0  501    0  0.00000000000E+00 -0.00000000000E+00 -0.17771985027E+03  0.17771987897E+03  0.10100000000E+00 0.  1.
         23    2    1    2    0    0  0.71054273576E-14  0.35527136788E-14 -0.16497226045E+03  0.19046786891E+03  0.95195390487E+02 0.  0.
    9000005    2    3    3    0    0 -0.36628038917E+02 -0.27977017373E+02 -0.70040107823E+02  0.84938534894E+02  0.13587173000E+02 0.  0.
         22    1    3    3    0    0  0.36628038917E+02  0.27977017373E+02 -0.94932152624E+02  0.10552933402E+03  0.00000000000E+00 0. -1.
         22    1    4    4    0    0 -0.36543378337E+01 -0.23707924831E+01 -0.16387607179E+02  0.16956665682E+02  0.00000000000E+00 0. -1.
         22    1    4    4    0    0 -0.32973701083E+02 -0.25606224889E+02 -0.53652500645E+02  0.67981869213E+02  0.00000000000E+00 0. -1.
<mgrwt>
<rscale>  0 0.95195390E+02</rscale>
<asrwt>0</asrwt>
<pdfrwt beam="2">  1        3 0.27341547E-01 0.95195390E+02</pdfrwt>
<pdfrwt beam="1">  1       -3 0.19612008E-02 0.95195390E+02</pdfrwt>
<totfact> 0.25800236E+04</totfact>
</mgrwt>
</event>
<event>
 7    1  0.1312339E-009  0.9285237E+02  0.7818608E-02  0.1296088E+00
         -3   -1    0    0    0  501 -0.00000000000E+00  0.00000000000E+00  0.25026798892E+02  0.25027002693E+02  0.10100000000E+00 0.  1.
          3   -1    0    0  501    0  0.00000000000E+00 -0.00000000000E+00 -0.86122721594E+02  0.86122780818E+02  0.10100000000E+00 0. -1.
         23    2    1    2    0    0  0.00000000000E+00  0.00000000000E+00 -0.61095922702E+02  0.11114978351E+03  0.92852369941E+02 0.  0.
    9000005    2    3    3    0    0 -0.12008117473E+02  0.30224985891E+02  0.67187065404E+01  0.35939620655E+02  0.13739383461E+02 0.  0.
         22    1    3    3    0    0  0.12008117473E+02 -0.30224985891E+02 -0.67814629243E+02  0.75210162855E+02  0.00000000000E+00 0. -1.
         22    1    4    4    0    0  0.35757939158E+00  0.59364201503E+01  0.63246405113E+01  0.86815911456E+01  0.00000000000E+00 0.  1.
         22    1    4    4    0    0 -0.12365696865E+02  0.24288565741E+02  0.39406602910E+00  0.27258029510E+02  0.00000000000E+00 0.  1.
<mgrwt>
<rscale>  0 0.92852370E+02</rscale>
<asrwt>0</asrwt>
<pdfrwt beam="2">  1        3 0.13249670E-01 0.92852370E+02</pdfrwt>
<pdfrwt beam="1">  1       -3 0.38502970E-02 0.92852370E+02</pdfrwt>
<totfact> 0.32223494E+04</totfact>
</mgrwt>
</event>
<event>
 7    1  0.1312339E-009  0.9437291E+02  0.7818608E-02  0.1292595E+00
         -3   -1    0    0    0  501 -0.00000000000E+00  0.00000000000E+00  0.27281086490E+02  0.27281273450E+02  0.10100000000E+00 0.  1.
          3   -1    0    0  501    0  0.00000000000E+00 -0.00000000000E+00 -0.81615073265E+02  0.81615135759E+02  0.10100000000E+00 0. -1.
         23    2    1    2    0    0 -0.17763568394E-14  0.00000000000E+00 -0.54333986775E+02  0.10889640921E+03  0.94372908294E+02 0.  0.
    9000005    2    3    3    0    0  0.12597801545E+02  0.23729911166E+02  0.15320727708E+02  0.34239912255E+02  0.14691276527E+02 0.  0.
         22    1    3    3    0    0 -0.12597801545E+02 -0.23729911166E+02 -0.69654714484E+02  0.74656496954E+02  0.00000000000E+00 0. -1.
         22    1    4    4    0    0  0.14340967901E+02  0.17858585859E+02  0.70816555405E+01  0.23973783482E+02  0.00000000000E+00 0. -1.
         22    1    4    4    0    0 -0.17431663560E+01  0.58713253064E+01  0.82390721679E+01  0.10266128773E+02  0.00000000000E+00 0. -1.
<mgrwt>
<rscale>  0 0.94372908E+02</rscale>
<asrwt>0</asrwt>
<pdfrwt beam="2">  1        3 0.12556184E-01 0.94372908E+02</pdfrwt>
<pdfrwt beam="1">  1       -3 0.41971095E-02 0.94372908E+02</pdfrwt>
<totfact> 0.30971122E+04</totfact>
</mgrwt>
</event>
<event>
 7    1  0.1312339E-009  0.9048443E+02  0.7818608E-02  0.1301683E+00
         -3   -1    0    0    0  501 -0.00000000000E+00  0.00000000000E+00  0.19499080987E+02  0.19499342562E+02  0.10100000000E+00 0.  1.
          3   -1    0    0  501    0  0.00000000000E+00 -0.00000000000E+00 -0.10497104461E+03  0.10497109320E+03  0.10100000000E+00 0. -1.
         23    2    1    2    0    0  0.00000000000E+00 -0.35527136788E-14 -0.85471963622E+02  0.12447043576E+03  0.90484434093E+02 0.  0.
    9000005    2    3    3    0    0 -0.88726390989E+01  0.27926864973E+02 -0.89299762473E+02  0.94919030450E+02  0.13286882707E+02 0.  0.
         22    1    3    3    0    0  0.88726390989E+01 -0.27926864973E+02  0.38277988509E+01  0.29551405311E+02  0.00000000000E+00 0.  1.
         22    1    4    4    0    0  0.40625351858E+00  0.82279680462E+00 -0.18777766151E+02  0.18800173885E+02  0.00000000000E+00 0.  1.
         22    1    4    4    0    0 -0.92788926175E+01  0.27104068169E+02 -0.70521996322E+02  0.76118856565E+02  0.00000000000E+00 0.  1.
<mgrwt>
<rscale>  0 0.90484434E+02</rscale>
<asrwt>0</asrwt>
<pdfrwt beam="2">  1        3 0.16149415E-01 0.90484434E+02</pdfrwt>
<pdfrwt beam="1">  1       -3 0.29998825E-02 0.90484434E+02</pdfrwt>
<totfact> 0.33631123E+04</totfact>
</mgrwt>
</event>
<event>
 7    1  0.1312339E-009  0.9193195E+02  0.7818608E-02  0.1298240E+00
          3   -1    0    0  501    0  0.00000000000E+00  0.00000000000E+00  0.42095952831E+01  0.42108067455E+01  0.10100000000E+00 0. -1.
         -3   -1    0    0    0  501 -0.00000000000E+00 -0.00000000000E+00 -0.50184438602E+03  0.50184439619E+03  0.10100000000E+00 0.  1.
         23    2    1    2    0    0  0.35527136788E-14  0.00000000000E+00 -0.49763479074E+03  0.50605520293E+03  0.91931950158E+02 0.  0.
    9000005    2    3    3    0    0 -0.19697597073E+02 -0.38015581718E+02 -0.32515459626E+03  0.32834027032E+03  0.15768381782E+02 0.  0.
         22    1    3    3    0    0  0.19697597073E+02  0.38015581718E+02 -0.17248019448E+03  0.17771493261E+03  0.00000000000E+00 0.  1.
         22    1    4    4    0    0 -0.15506557002E+02 -0.38354552573E+02 -0.29032488461E+03  0.29325767447E+03  0.00000000000E+00 0. -1.
         22    1    4    4    0    0 -0.41910400706E+01  0.33897085452E+00 -0.34829711646E+02  0.35082595848E+02  0.00000000000E+00 0. -1.
<mgrwt>
<rscale>  0 0.91931950E+02</rscale>
<asrwt>0</asrwt>
<pdfrwt beam="1">  1        3 0.64772441E-03 0.91931950E+02</pdfrwt>
<pdfrwt beam="2">  1       -3 0.77206875E-01 0.91931950E+02</pdfrwt>
<totfact> 0.17358512E+04</totfact>
</mgrwt>
</event>
<event>
 7    1  0.1312339E-009  0.8798998E+02  0.7818608E-02  0.1307794E+00
         -3   -1    0    0    0  501 -0.00000000000E+00  0.00000000000E+00  0.52264126756E+01  0.52273884929E+01  0.10100000000E+00 0.  1.
          3   -1    0    0  501    0  0.00000000000E+00 -0.00000000000E+00 -0.37030627706E+03  0.37030629084E+03  0.10100000000E+00 0. -1.
         23    2    1    2    0    0  0.00000000000E+00  0.00000000000E+00 -0.36507986439E+03  0.37553367933E+03  0.87989981985E+02 0.  0.
    9000005    2    3    3    0    0  0.35015338194E+02  0.25352343135E+02 -0.20125564571E+03  0.20610171706E+03  0.10260001763E+02 0.  0.
         22    1    3    3    0    0 -0.35015338194E+02 -0.25352343135E+02 -0.16382421868E+03  0.16943196227E+03  0.00000000000E+00 0.  1.
         22    1    4    4    0    0  0.19132429382E+02  0.10258974044E+02 -0.80585278372E+02  0.83458273963E+02  0.00000000000E+00 0. -1.
         22    1    4    4    0    0  0.15882908811E+02  0.15093369091E+02 -0.12067036733E+03  0.12264344310E+03  0.00000000000E+00 0. -1.
<mgrwt>
<rscale>  0 0.87989982E+02</rscale>
<asrwt>0</asrwt>
<pdfrwt beam="2">  1        3 0.56970252E-01 0.87989982E+02</pdfrwt>
<pdfrwt beam="1">  1       -3 0.80413990E-03 0.87989982E+02</pdfrwt>
<totfact> 0.23503312E+04</totfact>
</mgrwt>
</event>
<event>
 7    1  0.1312339E-009  0.9101922E+02  0.7818608E-02  0.1300402E+00
          3   -1    0    0  501    0  0.00000000000E+00  0.00000000000E+00  0.18817409985E+03  0.18817412695E+03  0.10100000000E+00 0. -1.
         -3   -1    0    0    0  501 -0.00000000000E+00 -0.00000000000E+00 -0.11006166964E+02  0.11006630377E+02  0.10100000000E+00 0.  1.
         23    2    1    2    0    0  0.00000000000E+00  0.71054273576E-14  0.17716793288E+03  0.19918075733E+03  0.91019215819E+02 0.  0.
    9000005    2    3    3    0    0  0.31189786838E+01  0.35414761981E+02  0.15001719875E+03  0.15444714851E+03  0.92102316735E+01 0.  0.
         22    1    3    3    0    0 -0.31189786838E+01 -0.35414761981E+02  0.27150734133E+02  0.44733608821E+02  0.00000000000E+00 0.  1.
         22    1    4    4    0    0  0.76098447166E+00  0.18136663412E+02  0.95465854073E+02  0.97176370333E+02  0.00000000000E+00 0. -1.
         22    1    4    4    0    0  0.23579942122E+01  0.17278098568E+02  0.54551344677E+02  0.57270778176E+02  0.00000000000E+00 0. -1.
<mgrwt>
<rscale>  0 0.91019216E+02</rscale>
<asrwt>0</asrwt>
<pdfrwt beam="1">  1        3 0.28949900E-01 0.91019216E+02</pdfrwt>
<pdfrwt beam="2">  1       -3 0.16932941E-02 0.91019216E+02</pdfrwt>
<totfact> 0.28674665E+04</totfact>
</mgrwt>
</event>
<event>
 7    1  0.1312339E-009  0.8974876E+02  0.7818608E-02  0.1303461E+00
         -3   -1    0    0    0  501 -0.00000000000E+00  0.00000000000E+00  0.55560990164E+01  0.55570169408E+01  0.10100000000E+00 0.  1.
          3   -1    0    0  501    0  0.00000000000E+00 -0.00000000000E+00 -0.36240145762E+03  0.36240147169E+03  0.10100000000E+00 0. -1.
         23    2    1    2    0    0 -0.35527136788E-14  0.00000000000E+00 -0.35684535860E+03  0.36795848864E+03  0.89748757103E+02 0.  0.
    9000005    2    3    3    0    0 -0.29900087691E+02  0.31972980632E+02 -0.19905981219E+03  0.20421306003E+03  0.12723141130E+02 0.  0.
         22    1    3    3    0    0  0.29900087691E+02 -0.31972980632E+02 -0.15778554641E+03  0.16374542861E+03  0.00000000000E+00 0.  1.
         22    1    4    4    0    0 -0.88890081308E+01  0.98556642137E+01 -0.89755342501E+02  0.90731307111E+02  0.00000000000E+00 0.  1.
         22    1    4    4    0    0 -0.21011079561E+02  0.22117316418E+02 -0.10930446969E+03  0.11348175292E+03  0.00000000000E+00 0.  1.
<mgrwt>
<rscale>  0 0.89748757E+02</rscale>
<asrwt>0</asrwt>
<pdfrwt beam="2">  1        3 0.55754124E-01 0.89748757E+02</pdfrwt>
<pdfrwt beam="1">  1       -3 0.85485644E-03 0.89748757E+02</pdfrwt>
<totfact> 0.22550785E+04</totfact>
</mgrwt>
</event>
<event>
 7    1  0.1312339E-009  0.8972158E+02  0.7818608E-02  0.1303527E+00
          3   -1    0    0  501    0  0.00000000000E+00  0.00000000000E+00  0.15112912741E+03  0.15112916116E+03  0.10100000000E+00 0. -1.
         -3   -1    0    0    0  501 -0.00000000000E+00 -0.00000000000E+00 -0.13316136911E+02  0.13316519937E+02  0.10100000000E+00 0.  1.
         23    2    1    2    0    0 -0.35527136788E-14  0.35527136788E-14  0.13781299050E+03  0.16444568110E+03  0.89721578680E+02 0.  0.
    9000005    2    3    3    0    0  0.30033657403E+02 -0.28148436839E+02  0.10094347863E+03  0.10918524336E+03  0.61217984182E+01 0.  0.
         22    1    3    3    0    0 -0.30033657403E+02  0.28148436839E+02  0.36869511869E+02  0.55260437738E+02  0.00000000000E+00 0. -1.
         22    1    4    4    0    0  0.37474219089E+01 -0.40771575899E+01  0.19777164026E+02  0.20537833427E+02  0.00000000000E+00 0.  1.
         22    1    4    4    0    0  0.26286235494E+02 -0.24071279249E+02  0.81166314605E+02  0.88647409932E+02  0.00000000000E+00 0.  1.
<mgrwt>
<rscale>  0 0.89721579E+02</rscale>
<asrwt>0</asrwt>
<pdfrwt beam="1">  1        3 0.23250668E-01 0.89721579E+02</pdfrwt>
<pdfrwt beam="2">  1       -3 0.20486684E-02 0.89721579E+02</pdfrwt>
<totfact> 0.31797229E+04</totfact>
</mgrwt>
</event>
<event>
 7    1  0.1670431E-009  0.8960344E+02  0.7818608E-02  0.1303815E+00
          3   -1    0    0  501    0  0.00000000000E+00  0.00000000000E+00  0.11761264663E+03  0.11761269000E+03  0.10100000000E+00 0. -1.
         -3   -1    0    0    0  501 -0.00000000000E+00 -0.00000000000E+00 -0.17065946108E+02  0.17066244975E+02  0.10100000000E+00 0.  1.
         23    2    1    2    0    0  0.00000000000E+00  0.44408920985E-15  0.10054670052E+03  0.13467893497E+03  0.89603440443E+02 0.  0.
    9000005    2    3    3    0    0  0.23797380534E+02 -0.23511581718E+01  0.10630349995E+03  0.11008251237E+03  0.15680630238E+02 0.  0.
         22    1    3    3    0    0 -0.23797380534E+02  0.23511581718E+01 -0.57567994237E+01  0.24596422598E+02  0.00000000000E+00 0.  1.
         22    1    4    4    0    0  0.23093141089E+02  0.25549966395E+01  0.93745631368E+02  0.96581906038E+02  0.00000000000E+00 0. -1.
         22    1    4    4    0    0  0.70423944555E+00 -0.49061548114E+01  0.12557868578E+02  0.13500606336E+02  0.00000000000E+00 0. -1.
<mgrwt>
<rscale>  0 0.89603440E+02</rscale>
<asrwt>0</asrwt>
<pdfrwt beam="1">  1        3 0.18094280E-01 0.89603440E+02</pdfrwt>
<pdfrwt beam="2">  1       -3 0.26255565E-02 0.89603440E+02</pdfrwt>
<totfact> 0.33826647E+04</totfact>
</mgrwt>
</event>
<event>
 7    1  0.1312339E-009  0.8973595E+02  0.7818608E-02  0.1303492E+00
         -3   -1    0    0    0  501 -0.00000000000E+00  0.00000000000E+00  0.60343276642E+02  0.60343361167E+02  0.10100000000E+00 0.  1.
          3   -1    0    0  501    0  0.00000000000E+00 -0.00000000000E+00 -0.33361196334E+02  0.33361349220E+02  0.10100000000E+00 0. -1.
         23    2    1    2    0    0  0.00000000000E+00  0.00000000000E+00  0.26982080309E+02  0.93704710387E+02  0.89735946482E+02 0.  0.
    9000005    2    3    3    0    0 -0.40258710068E+02  0.12804751095E+02  0.24511117776E+02  0.51386498672E+02  0.15970346403E+02 0.  0.
         22    1    3    3    0    0  0.40258710068E+02 -0.12804751095E+02  0.24709625332E+01  0.42318211715E+02  0.00000000000E+00 0. -1.
         22    1    4    4    0    0 -0.19558734082E+01 -0.86268327937E+00 -0.19286333294E+01  0.28791126669E+01  0.00000000000E+00 0.  1.
         22    1    4    4    0    0 -0.38302836660E+02  0.13667434374E+02  0.26439751105E+02  0.48507386005E+02  0.00000000000E+00 0.  1.
<mgrwt>
<rscale>  0 0.89735946E+02</rscale>
<asrwt>0</asrwt>
<pdfrwt beam="2">  1        3 0.51325100E-02 0.89735946E+02</pdfrwt>
<pdfrwt beam="1">  1       -3 0.92835993E-02 0.89735946E+02</pdfrwt>
<totfact> 0.36700485E+04</totfact>
</mgrwt>
</event>
<event>
 7    1  0.1312339E-009  0.9206406E+02  0.7818608E-02  0.1297929E+00
         -3   -1    0    0    0  501 -0.00000000000E+00  0.00000000000E+00  0.66635999872E+02  0.66636076415E+02  0.10100000000E+00 0.  1.
          3   -1    0    0  501    0  0.00000000000E+00 -0.00000000000E+00 -0.31798670043E+02  0.31798830442E+02  0.10100000000E+00 0. -1.
         23    2    1    2    0    0  0.88817841970E-15  0.00000000000E+00  0.34837329829E+02  0.98434906857E+02  0.92064061057E+02 0.  0.
    9000005    2    3    3    0    0 -0.74488850715E+01  0.14082121453E+02 -0.27523374466E+02  0.34071489657E+02  0.12228582585E+02 0.  0.
         22    1    3    3    0    0  0.74488850715E+01 -0.14082121453E+02  0.62360704295E+02  0.64363417200E+02  0.00000000000E+00 0.  1.
         22    1    4    4    0    0  0.19249048953E+00  0.57071835019E+01 -0.19133812085E+02  0.19967768053E+02  0.00000000000E+00 0. -1.
         22    1    4    4    0    0 -0.76413755610E+01  0.83749379507E+01 -0.83895623817E+01  0.14103721605E+02  0.00000000000E+00 0. -1.
<mgrwt>
<rscale>  0 0.92064061E+02</rscale>
<asrwt>0</asrwt>
<pdfrwt beam="2">  1        3 0.48921213E-02 0.92064061E+02</pdfrwt>
<pdfrwt beam="1">  1       -3 0.10251711E-01 0.92064061E+02</pdfrwt>
<totfact> 0.33881526E+04</totfact>
</mgrwt>
</event>
<event>
 7    1  0.1312339E-009  0.9067526E+02  0.7818608E-02  0.1301225E+00
          3   -1    0    0  501    0  0.00000000000E+00  0.00000000000E+00  0.14422592482E+02  0.14422946125E+02  0.10100000000E+00 0. -1.
         -3   -1    0    0    0  501 -0.00000000000E+00 -0.00000000000E+00 -0.14251736796E+03  0.14251740375E+03  0.10100000000E+00 0.  1.
         23    2    1    2    0    0  0.00000000000E+00  0.00000000000E+00 -0.12809477548E+03  0.15694034987E+03  0.90675255244E+02 0.  0.
    9000005    2    3    3    0    0 -0.30758434076E+02  0.31325559575E+02 -0.73507810930E+02  0.86889592219E+02  0.14799696573E+02 0.  0.
         22    1    3    3    0    0  0.30758434076E+02 -0.31325559575E+02 -0.54586964546E+02  0.70050757654E+02  0.00000000000E+00 0.  1.
         22    1    4    4    0    0 -0.51150852832E+01  0.26903979114E+01 -0.21220123755E+02  0.21993089609E+02  0.00000000000E+00 0.  1.
         22    1    4    4    0    0 -0.25643348792E+02  0.28635161664E+02 -0.52287687175E+02  0.64896502609E+02  0.00000000000E+00 0.  1.
<mgrwt>
<rscale>  0 0.90675255E+02</rscale>
<asrwt>0</asrwt>
<pdfrwt beam="1">  1        3 0.22188904E-02 0.90675255E+02</pdfrwt>
<pdfrwt beam="2">  1       -3 0.21925778E-01 0.90675255E+02</pdfrwt>
<totfact> 0.31352774E+04</totfact>
</mgrwt>
</event>
<event>
 7    1  0.1312339E-009  0.9055030E+02  0.7818608E-02  0.1301525E+00
          3   -1    0    0  501    0  0.00000000000E+00  0.00000000000E+00  0.76725933117E+01  0.76732580516E+01  0.10100000000E+00 0. -1.
         -3   -1    0    0    0  501 -0.00000000000E+00 -0.00000000000E+00 -0.26715156700E+03  0.26715158609E+03  0.10100000000E+00 0.  1.
         23    2    1    2    0    0  0.71054273576E-14  0.00000000000E+00 -0.25947897369E+03  0.27482484415E+03  0.90550301890E+02 0.  0.
    9000005    2    3    3    0    0 -0.34392457949E+02  0.25746494196E+02 -0.10628768224E+03  0.11572332026E+03  0.15782659108E+02 0.  0.
         22    1    3    3    0    0  0.34392457949E+02 -0.25746494196E+02 -0.15319129145E+03  0.15910152389E+03  0.00000000000E+00 0.  1.
         22    1    4    4    0    0 -0.49845177584E+01  0.12434147584E+02 -0.27913110651E+02  0.30961188441E+02  0.00000000000E+00 0. -1.
         22    1    4    4    0    0 -0.29407940190E+02  0.13312346612E+02 -0.78374571588E+02  0.84762131816E+02  0.00000000000E+00 0. -1.
<mgrwt>
<rscale>  0 0.90550302E+02</rscale>
<asrwt>0</asrwt>
<pdfrwt beam="1">  1        3 0.11804518E-02 0.90550302E+02</pdfrwt>
<pdfrwt beam="2">  1       -3 0.41100287E-01 0.90550302E+02</pdfrwt>
<totfact> 0.25500606E+04</totfact>
</mgrwt>
</event>
<event>
 7    1  0.1312339E-009  0.9147527E+02  0.7818608E-02  0.1299318E+00
         -3   -1    0    0    0  501 -0.00000000000E+00  0.00000000000E+00  0.21877164734E+02  0.21877397876E+02  0.10100000000E+00 0.  1.
          3   -1    0    0  501    0  0.00000000000E+00 -0.00000000000E+00 -0.95620918199E+02  0.95620971540E+02  0.10100000000E+00 0. -1.
         23    2    1    2    0    0  0.00000000000E+00  0.35527136788E-14 -0.73743753465E+02  0.11749836942E+03  0.91475273381E+02 0.  0.
    9000005    2    3    3    0    0 -0.37416013370E+02  0.23511394646E+02 -0.47523974016E+02  0.66115292736E+02  0.12647533064E+02 0.  0.
         22    1    3    3    0    0  0.37416013370E+02 -0.23511394646E+02 -0.26219779450E+02  0.51383076680E+02  0.00000000000E+00 0.  1.
         22    1    4    4    0    0 -0.36489908171E+02  0.24381980814E+02 -0.47716812082E+02  0.64829688739E+02  0.00000000000E+00 0. -1.
         22    1    4    4    0    0 -0.92610519964E+00 -0.87058616820E+00  0.19283806640E+00  0.12856039969E+01  0.00000000000E+00 0. -1.
<mgrwt>
<rscale>  0 0.91475273E+02</rscale>
<asrwt>0</asrwt>
<pdfrwt beam="2">  1        3 0.14710932E-01 0.91475273E+02</pdfrwt>
<pdfrwt beam="1">  1       -3 0.33657397E-02 0.91475273E+02</pdfrwt>
<totfact> 0.33122371E+04</totfact>
</mgrwt>
</event>
<event>
 7    1  0.1312339E-009  0.8866232E+02  0.7818608E-02  0.1306124E+00
         -3   -1    0    0    0  501 -0.00000000000E+00  0.00000000000E+00  0.19744236560E+02  0.19744494887E+02  0.10100000000E+00 0.  1.
          3   -1    0    0  501    0  0.00000000000E+00 -0.00000000000E+00 -0.99534521261E+02  0.99534572504E+02  0.10100000000E+00 0. -1.
         23    2    1    2    0    0  0.00000000000E+00  0.00000000000E+00 -0.79790284701E+02  0.11927906739E+03  0.88662316602E+02 0.  0.
    9000005    2    3    3    0    0  0.13859508043E+02 -0.33483003357E+02 -0.73095265687E+02  0.82427734219E+02  0.11756531196E+02 0.  0.
         22    1    3    3    0    0 -0.13859508043E+02  0.33483003357E+02 -0.66950190138E+01  0.36851333172E+02  0.00000000000E+00 0.  1.
         22    1    4    4    0    0  0.10475766455E+02 -0.20328342685E+02 -0.56692073101E+02  0.61130797080E+02  0.00000000000E+00 0. -1.
         22    1    4    4    0    0  0.33837415875E+01 -0.13154660672E+02 -0.16403192586E+02  0.21296937140E+02  0.00000000000E+00 0. -1.
<mgrwt>
<rscale>  0 0.88662317E+02</rscale>
<asrwt>0</asrwt>
<pdfrwt beam="2">  1        3 0.15313027E-01 0.88662317E+02</pdfrwt>
<pdfrwt beam="1">  1       -3 0.30375987E-02 0.88662317E+02</pdfrwt>
<totfact> 0.35914708E+04</totfact>
</mgrwt>
</event>
<event>
 7    1  0.1312339E-009  0.9104741E+02  0.7818608E-02  0.1300335E+00
         -3   -1    0    0    0  501 -0.00000000000E+00  0.00000000000E+00  0.22476745289E+02  0.22476972212E+02  0.10100000000E+00 0.  1.
          3   -1    0    0  501    0  0.00000000000E+00 -0.00000000000E+00 -0.92201593734E+02  0.92201649052E+02  0.10100000000E+00 0. -1.
         23    2    1    2    0    0 -0.71054273576E-14 -0.35527136788E-14 -0.69724848444E+02  0.11467862126E+03  0.91047414485E+02 0.  0.
    9000005    2    3    3    0    0  0.39828501011E+02  0.18776806778E+02 -0.27895514322E+02  0.53945013116E+02  0.13893406895E+02 0.  0.
         22    1    3    3    0    0 -0.39828501011E+02 -0.18776806778E+02 -0.41829334122E+02  0.60733608148E+02  0.00000000000E+00 0. -1.
         22    1    4    4    0    0  0.10049458219E+02  0.43575816753E+01 -0.14681901255E+02  0.18317705997E+02  0.00000000000E+00 0. -1.
         22    1    4    4    0    0  0.29779042793E+02  0.14419225103E+02 -0.13213613067E+02  0.35627307118E+02  0.00000000000E+00 0. -1.
<mgrwt>
<rscale>  0 0.91047414E+02</rscale>
<asrwt>0</asrwt>
<pdfrwt beam="2">  1        3 0.14184882E-01 0.91047414E+02</pdfrwt>
<pdfrwt beam="1">  1       -3 0.34579826E-02 0.91047414E+02</pdfrwt>
<totfact> 0.33744465E+04</totfact>
</mgrwt>
</event>
<event>
 7    1  0.1312339E-009  0.9390074E+02  0.7818608E-02  0.1293671E+00
          3   -1    0    0  501    0  0.00000000000E+00  0.00000000000E+00  0.64459091283E+01  0.64467003568E+01  0.10100000000E+00 0. -1.
         -3   -1    0    0    0  501 -0.00000000000E+00 -0.00000000000E+00 -0.34195278740E+03  0.34195280232E+03  0.10100000000E+00 0.  1.
         23    2    1    2    0    0  0.00000000000E+00  0.00000000000E+00 -0.33550687827E+03  0.34839950268E+03  0.93900735327E+02 0.  0.
    9000005    2    3    3    0    0 -0.41242392622E+02  0.11546380865E+01 -0.90616898630E+02  0.10005826512E+03  0.98977757084E+01 0.  0.
         22    1    3    3    0    0  0.41242392622E+02 -0.11546380865E+01 -0.24488997965E+03  0.24834123755E+03  0.00000000000E+00 0.  1.
         22    1    4    4    0    0 -0.35694802949E+02  0.44135645014E+01 -0.75506793151E+02  0.83635365254E+02  0.00000000000E+00 0. -1.
         22    1    4    4    0    0 -0.55475896732E+01 -0.32589264149E+01 -0.15110105479E+02  0.16422899870E+02  0.00000000000E+00 0. -1.
<mgrwt>
<rscale>  0 0.93900735E+02</rscale>
<asrwt>0</asrwt>
<pdfrwt beam="1">  1        3 0.99174060E-03 0.93900735E+02</pdfrwt>
<pdfrwt beam="2">  1       -3 0.52608169E-01 0.93900735E+02</pdfrwt>
<totfact> 0.20567929E+04</totfact>
</mgrwt>
</event>
<event>
 7    1  0.1312339E-009  0.9103346E+02  0.7818608E-02  0.1300368E+00
         -3   -1    0    0    0  501 -0.00000000000E+00  0.00000000000E+00  0.12198431731E+03  0.12198435912E+03  0.10100000000E+00 0.  1.
          3   -1    0    0  501    0  0.00000000000E+00 -0.00000000000E+00 -0.16983731009E+02  0.16984031324E+02  0.10100000000E+00 0. -1.
         23    2    1    2    0    0  0.00000000000E+00  0.00000000000E+00  0.10500058630E+03  0.13896839044E+03  0.91033457693E+02 0.  0.
    9000005    2    3    3    0    0 -0.40662760009E+01 -0.34249004874E+02  0.96958011507E+02  0.10355353558E+03  0.11530385994E+02 0.  0.
         22    1    3    3    0    0  0.40662760009E+01  0.34249004874E+02  0.80425747899E+01  0.35414854858E+02  0.00000000000E+00 0. -1.
         22    1    4    4    0    0  0.18803314943E+01 -0.49321815225E+01  0.71000365256E+01  0.88471791981E+01  0.00000000000E+00 0. -1.
         22    1    4    4    0    0 -0.59466074953E+01 -0.29316823352E+02  0.89857974982E+02  0.94706356386E+02  0.00000000000E+00 0. -1.
<mgrwt>
<rscale>  0 0.91033458E+02</rscale>
<asrwt>0</asrwt>
<pdfrwt beam="2">  1        3 0.26129081E-02 0.91033458E+02</pdfrwt>
<pdfrwt beam="1">  1       -3 0.18766844E-01 0.91033458E+02</pdfrwt>
<totfact> 0.32134248E+04</totfact>
</mgrwt>
</event>
<event>
 7    1  0.1312339E-009  0.1031418E+03  0.7818608E-02  0.1273825E+00
         -3   -1    0    0    0  501 -0.00000000000E+00  0.00000000000E+00  0.93445560325E+02  0.93445614908E+02  0.10100000000E+00 0.  1.
          3   -1    0    0  501    0  0.00000000000E+00 -0.00000000000E+00 -0.28460881025E+02  0.28461060235E+02  0.10100000000E+00 0. -1.
         23    2    1    2    0    0  0.00000000000E+00  0.00000000000E+00  0.64984679301E+02  0.12190667514E+03  0.10314179027E+03 0.  0.
    9000005    2    3    3    0    0  0.50505496655E+02 -0.40960829257E+01  0.43128095781E+02  0.66722498689E+02  0.49270780297E+01 0.  0.
         22    1    3    3    0    0 -0.50505496655E+02  0.40960829257E+01  0.21856583519E+02  0.55184176453E+02  0.00000000000E+00 0.  1.
         22    1    4    4    0    0  0.26502391892E+02 -0.15416514377E+01  0.25705568431E+02  0.36953074480E+02  0.00000000000E+00 0.  1.
         22    1    4    4    0    0  0.24003104762E+02 -0.25544314880E+01  0.17422527351E+02  0.29769424209E+02  0.00000000000E+00 0.  1.
<mgrwt>
<rscale>  0 0.10314179E+03</rscale>
<asrwt>0</asrwt>
<pdfrwt beam="2">  1        3 0.43786150E-02 0.10314179E+03</pdfrwt>
<pdfrwt beam="1">  1       -3 0.14376258E-01 0.10314179E+03</pdfrwt>
<totfact> 0.23629465E+04</totfact>
</mgrwt>
</event>
<event>
 6    1  0.1312339E-009  0.1398976E+03  0.7818608E-02  0.1213467E+00
         -3   -1    0    0    0  501 -0.00000000000E+00  0.00000000000E+00  0.56790380659E+03  0.56790381557E+03  0.10100000000E+00 0.  1.
          3   -1    0    0  501    0  0.00000000000E+00 -0.00000000000E+00 -0.86152951128E+01  0.86158871209E+01  0.10100000000E+00 0. -1.
    9000005    2    1    2    0    0 -0.47915733359E+02  0.21981539218E+02  0.46794440180E+03  0.47105477041E+03  0.11896553057E+02 0.  0.
         22    1    1    2    0    0  0.47915733359E+02 -0.21981539218E+02  0.91344109672E+02  0.10546493228E+03  0.00000000000E+00 0. -1.
         22    1    3    3    0    0 -0.39140588119E+02  0.19331473797E+02  0.41825098121E+03  0.42052297773E+03  0.00000000000E+00 0. -1.
         22    1    3    3    0    0 -0.87751452394E+01  0.26500654204E+01  0.49693420598E+02  0.50531792680E+02  0.00000000000E+00 0. -1.
<mgrwt>
<rscale>  0 0.13989756E+03</rscale>
<asrwt>0</asrwt>
<pdfrwt beam="2">  1        3 0.13254764E-02 0.13989756E+03</pdfrwt>
<pdfrwt beam="1">  1       -3 0.87369850E-01 0.13989756E+03</pdfrwt>
<totfact> 0.50249642E+03</totfact>
</mgrwt>
</event>
<event>
 7    1  0.1312339E-009  0.9346823E+02  0.7818608E-02  0.1294664E+00
          3   -1    0    0  501    0  0.00000000000E+00  0.00000000000E+00  0.63340015339E+02  0.63340095865E+02  0.10100000000E+00 0. -1.
         -3   -1    0    0    0  501 -0.00000000000E+00 -0.00000000000E+00 -0.34481616512E+02  0.34481764431E+02  0.10100000000E+00 0.  1.
         23    2    1    2    0    0  0.00000000000E+00 -0.35527136788E-14  0.28858398827E+02  0.97821860296E+02  0.93468225451E+02 0.  0.
    9000005    2    3    3    0    0 -0.13539179013E+01 -0.23298198120E+02  0.56226194454E+02  0.61854717419E+02  0.10953629301E+02 0.  0.
         22    1    3    3    0    0  0.13539179013E+01  0.23298198120E+02 -0.27367795627E+02  0.35967142878E+02  0.00000000000E+00 0.  1.
         22    1    4    4    0    0  0.19534273633E+01 -0.19307237658E+02  0.35155693357E+02  0.40156046616E+02  0.00000000000E+00 0. -1.
         22    1    4    4    0    0 -0.33073452646E+01 -0.39909604616E+01  0.21070501097E+02  0.21698670802E+02  0.00000000000E+00 0. -1.
<mgrwt>
<rscale>  0 0.93468225E+02</rscale>
<asrwt>0</asrwt>
<pdfrwt beam="1">  1        3 0.97446353E-02 0.93468225E+02</pdfrwt>
<pdfrwt beam="2">  1       -3 0.53048817E-02 0.93468225E+02</pdfrwt>
<totfact> 0.32550867E+04</totfact>
</mgrwt>
</event>
<event>
 7    1  0.1312339E-009  0.9198441E+02  0.7818608E-02  0.1298116E+00
         -3   -1    0    0    0  501 -0.00000000000E+00  0.00000000000E+00  0.90457438951E+02  0.90457495337E+02  0.10100000000E+00 0. -1.
          3   -1    0    0  501    0  0.00000000000E+00 -0.00000000000E+00 -0.23384118966E+02  0.23384337083E+02  0.10100000000E+00 0.  1.
         23    2    1    2    0    0  0.71054273576E-14  0.35527136788E-14  0.67073319985E+02  0.11384183242E+03  0.91984414739E+02 0.  0.
    9000005    2    3    3    0    0  0.38732270930E+02 -0.23150470321E+02  0.29424298658E+02  0.55074648598E+02  0.11458380303E+02 0.  0.
         22    1    3    3    0    0 -0.38732270930E+02  0.23150470321E+02  0.37649021328E+02  0.58767183823E+02  0.00000000000E+00 0.  1.
         22    1    4    4    0    0  0.16531172960E+01 -0.20265436176E+00 -0.96433837375E+00  0.19245295747E+01  0.00000000000E+00 0.  1.
         22    1    4    4    0    0  0.37079153634E+02 -0.22947815960E+02  0.30388637031E+02  0.53150119023E+02  0.00000000000E+00 0.  1.
<mgrwt>
<rscale>  0 0.91984415E+02</rscale>
<asrwt>0</asrwt>
<pdfrwt beam="2">  1        3 0.35975780E-02 0.91984415E+02</pdfrwt>
<pdfrwt beam="1">  1       -3 0.13916550E-01 0.91984415E+02</pdfrwt>
<totfact> 0.32875554E+04</totfact>
</mgrwt>
</event>
<event>
 7    1  0.1312339E-009  0.8775677E+02  0.7818608E-02  0.1308377E+00
         -3   -1    0    0    0  501 -0.00000000000E+00  0.00000000000E+00  0.18425555222E+02  0.18425832037E+02  0.10100000000E+00 0.  1.
          3   -1    0    0  501    0  0.00000000000E+00 -0.00000000000E+00 -0.10449035331E+03  0.10449040212E+03  0.10100000000E+00 0. -1.
         23    2    1    2    0    0  0.00000000000E+00  0.00000000000E+00 -0.86064798083E+02  0.12291623416E+03  0.87756772673E+02 0.  0.
    9000005    2    3    3    0    0  0.33095315756E+02  0.12051870954E+02 -0.10079981668E+02  0.39165175392E+02  0.13847650144E+02 0.  0.
         22    1    3    3    0    0 -0.33095315756E+02 -0.12051870954E+02 -0.75984816415E+02  0.83751058764E+02  0.00000000000E+00 0. -1.
         22    1    4    4    0    0  0.88559194237E+01  0.99178042706E+01 -0.15783440525E+01  0.13389597467E+02  0.00000000000E+00 0.  1.
         22    1    4    4    0    0  0.24239396333E+02  0.21340666830E+01 -0.85016376158E+01  0.25775577924E+02  0.00000000000E+00 0.  1.
<mgrwt>
<rscale>  0 0.87756773E+02</rscale>
<asrwt>0</asrwt>
<pdfrwt beam="2">  1        3 0.16075464E-01 0.87756773E+02</pdfrwt>
<pdfrwt beam="1">  1       -3 0.28347259E-02 0.87756773E+02</pdfrwt>
<totfact> 0.36648511E+04</totfact>
</mgrwt>
</event>
<event>
 7    1  0.1312339E-009  0.9111096E+02  0.7818608E-02  0.1300183E+00
         -3   -1    0    0    0  501 -0.00000000000E+00  0.00000000000E+00  0.82679272471E+02  0.82679334162E+02  0.10100000000E+00 0.  1.
          3   -1    0    0  501    0  0.00000000000E+00 -0.00000000000E+00 -0.25100456099E+02  0.25100659301E+02  0.10100000000E+00 0. -1.
         23    2    1    2    0    0  0.00000000000E+00  0.00000000000E+00  0.57578816373E+02  0.10777999346E+03  0.91110959253E+02 0.  0.
    9000005    2    3    3    0    0  0.10383671220E+02 -0.40659715461E+01  0.80692640739E+02  0.82116758487E+02  0.10368558356E+02 0.  0.
         22    1    3    3    0    0 -0.10383671220E+02  0.40659715461E+01 -0.23113824366E+02  0.25663234976E+02  0.00000000000E+00 0. -1.
         22    1    4    4    0    0  0.27114093080E+01  0.66316012489E+00  0.51240778782E+02  0.51316750988E+02  0.00000000000E+00 0.  1.
         22    1    4    4    0    0  0.76722619116E+01 -0.47291316710E+01  0.29451861957E+02  0.30800007499E+02  0.00000000000E+00 0.  1.
<mgrwt>
<rscale>  0 0.91110959E+02</rscale>
<asrwt>0</asrwt>
<pdfrwt beam="2">  1        3 0.38616290E-02 0.91110959E+02</pdfrwt>
<pdfrwt beam="1">  1       -3 0.12719909E-01 0.91110959E+02</pdfrwt>
<totfact> 0.34172471E+04</totfact>
</mgrwt>
</event>
<event>
 7    1  0.1312339E-009  0.8472259E+02  0.7818608E-02  0.1316160E+00
          3   -1    0    0  501    0  0.00000000000E+00  0.00000000000E+00  0.34937561074E+02  0.34937707063E+02  0.10100000000E+00 0. -1.
         -3   -1    0    0    0  501 -0.00000000000E+00 -0.00000000000E+00 -0.51362160223E+02  0.51362259528E+02  0.10100000000E+00 0.  1.
         23    2    1    2    0    0  0.00000000000E+00  0.00000000000E+00 -0.16424599149E+02  0.86299966591E+02  0.84722587167E+02 0.  0.
    9000005    2    3    3    0    0 -0.61709283401E+01 -0.39382522202E+02 -0.22375477161E+02  0.45995173319E+02  0.50823792526E+01 0.  0.
         22    1    3    3    0    0  0.61709283401E+01  0.39382522202E+02  0.59508780116E+01  0.40304793272E+02  0.00000000000E+00 0.  1.
         22    1    4    4    0    0 -0.22011725903E+00 -0.12468105342E+02 -0.88488002161E+01  0.15290630062E+02  0.00000000000E+00 0.  1.
         22    1    4    4    0    0 -0.59508110810E+01 -0.26914416860E+02 -0.13526676945E+02  0.30704543257E+02  0.00000000000E+00 0.  1.
<mgrwt>
<rscale>  0 0.84722587E+02</rscale>
<asrwt>0</asrwt>
<pdfrwt beam="1">  1        3 0.53750283E-02 0.84722587E+02</pdfrwt>
<pdfrwt beam="2">  1       -3 0.79018896E-02 0.84722587E+02</pdfrwt>
<totfact> 0.43583474E+04</totfact>
</mgrwt>
</event>
<event>
 7    1  0.1312339E-009  0.9094772E+02  0.7818608E-02  0.1300573E+00
          3   -1    0    0  501    0  0.00000000000E+00  0.00000000000E+00  0.47788606623E+03  0.47788607690E+03  0.10100000000E+00 0. -1.
         -3   -1    0    0    0  501 -0.00000000000E+00 -0.00000000000E+00 -0.43265228286E+01  0.43277015593E+01  0.10100000000E+00 0.  1.
         23    2    1    2    0    0  0.00000000000E+00 -0.11102230246E-15  0.47355954340E+03  0.48221377846E+03  0.90947715707E+02 0.  0.
    9000005    2    3    3    0    0 -0.38767492710E+02 -0.94448916293E+00  0.35892497708E+03  0.36119768719E+03  0.11524734686E+02 0.  0.
         22    1    3    3    0    0  0.38767492710E+02  0.94448916293E+00  0.11463456632E+03  0.12101609127E+03  0.00000000000E+00 0.  1.
         22    1    4    4    0    0  0.53396162118E+00 -0.10221038740E+01  0.99144239442E+01  0.99812631208E+01  0.00000000000E+00 0.  1.
         22    1    4    4    0    0 -0.39301454331E+02  0.77614711075E-01  0.34901055314E+03  0.35121642407E+03  0.00000000000E+00 0.  1.
<mgrwt>
<rscale>  0 0.90947716E+02</rscale>
<asrwt>0</asrwt>
<pdfrwt beam="1">  1        3 0.73520988E-01 0.90947716E+02</pdfrwt>
<pdfrwt beam="2">  1       -3 0.66571072E-03 0.90947716E+02</pdfrwt>
<totfact> 0.18474338E+04</totfact>
</mgrwt>
</event>
<event>
 7    1  0.1312339E-009  0.9760701E+02  0.7818608E-02  0.1285410E+00
         -3   -1    0    0    0  501 -0.00000000000E+00  0.00000000000E+00  0.35598680232E+03  0.35598681665E+03  0.10100000000E+00 0.  1.
          3   -1    0    0  501    0  0.00000000000E+00 -0.00000000000E+00 -0.66902518215E+01  0.66910141560E+01  0.10100000000E+00 0. -1.
         23    2    1    2    0    0 -0.17763568394E-14  0.00000000000E+00  0.34929655050E+03  0.36267783081E+03  0.97607011872E+02 0.  0.
    9000005    2    3    3    0    0  0.79925080771E+01  0.46346363375E+02  0.22190816331E+03  0.22688509619E+03  0.46635121938E+01 0.  0.
         22    1    3    3    0    0 -0.79925080771E+01 -0.46346363375E+02  0.12738838719E+03  0.13579273461E+03  0.00000000000E+00 0.  1.
         22    1    4    4    0    0  0.32143664607E+00  0.74201962221E+01  0.28701701662E+02  0.29647096178E+02  0.00000000000E+00 0.  1.
         22    1    4    4    0    0  0.76710714311E+01  0.38926167153E+02  0.19320646165E+03  0.19723800002E+03  0.00000000000E+00 0.  1.
<mgrwt>
<rscale>  0 0.97607012E+02</rscale>
<asrwt>0</asrwt>
<pdfrwt beam="2">  1        3 0.10293292E-02 0.97607012E+02</pdfrwt>
<pdfrwt beam="1">  1       -3 0.54767265E-01 0.97607012E+02</pdfrwt>
<totfact> 0.18131084E+04</totfact>
</mgrwt>
</event>
<event>
 7    1  0.1312339E-009  0.9636884E+02  0.7818608E-02  0.1288123E+00
          3   -1    0    0  501    0  0.00000000000E+00  0.00000000000E+00  0.33450922053E+02  0.33451074529E+02  0.10100000000E+00 0. -1.
         -3   -1    0    0    0  501 -0.00000000000E+00 -0.00000000000E+00 -0.69406955673E+02  0.69407029160E+02  0.10100000000E+00 0.  1.
         23    2    1    2    0    0  0.00000000000E+00  0.00000000000E+00 -0.35956033621E+02  0.10285810369E+03  0.96368839056E+02 0.  0.
    9000005    2    3    3    0    0  0.12424030299E+02  0.36877084702E+02 -0.46741695152E+02  0.62477335994E+02  0.14295297905E+02 0.  0.
         22    1    3    3    0    0 -0.12424030299E+02 -0.36877084702E+02  0.10785661531E+02  0.40380767696E+02  0.00000000000E+00 0. -1.
         22    1    4    4    0    0  0.71214847293E+01  0.47299320294E+01 -0.67446813089E+01  0.10889376828E+02  0.00000000000E+00 0. -1.
         22    1    4    4    0    0  0.53025455697E+01  0.32147152673E+02 -0.39997013843E+02  0.51587959166E+02  0.00000000000E+00 0. -1.
<mgrwt>
<rscale>  0 0.96368839E+02</rscale>
<asrwt>0</asrwt>
<pdfrwt beam="1">  1        3 0.51463131E-02 0.96368839E+02</pdfrwt>
<pdfrwt beam="2">  1       -3 0.10678011E-01 0.96368839E+02</pdfrwt>
<totfact> 0.29619777E+04</totfact>
</mgrwt>
</event>
<event>
 7    1  0.1478557E-009  0.9063652E+02  0.7818608E-02  0.1301318E+00
         -3   -1    0    0    0  501 -0.00000000000E+00  0.00000000000E+00  0.40014494508E+02  0.40014621974E+02  0.10100000000E+00 0.  1.
          3   -1    0    0  501    0  0.00000000000E+00 -0.00000000000E+00 -0.51324764840E+02  0.51324864217E+02  0.10100000000E+00 0. -1.
         23    2    1    2    0    0 -0.27755575616E-15  0.00000000000E+00 -0.11310270332E+02  0.91339486191E+02  0.90636524220E+02 0.  0.
    9000005    2    3    3    0    0  0.33743007874E+00 -0.19641356225E+02 -0.45916948241E+02  0.51546033347E+02  0.12756593769E+02 0.  0.
         22    1    3    3    0    0 -0.33743007874E+00  0.19641356225E+02  0.34606677909E+02  0.39793452845E+02  0.00000000000E+00 0.  1.
         22    1    4    4    0    0  0.30114825306E+01 -0.34994352636E+01 -0.27301405083E+01  0.53636500065E+01  0.00000000000E+00 0.  1.
         22    1    4    4    0    0 -0.26740524518E+01 -0.16141920962E+02 -0.43186807733E+02  0.46182383340E+02  0.00000000000E+00 0.  1.
<mgrwt>
<rscale>  0 0.90636524E+02</rscale>
<asrwt>0</asrwt>
<pdfrwt beam="2">  1        3 0.78961351E-02 0.90636524E+02</pdfrwt>
<pdfrwt beam="1">  1       -3 0.61560935E-02 0.90636524E+02</pdfrwt>
<totfact> 0.35902502E+04</totfact>
</mgrwt>
</event>
<event>
 7    1  0.1312339E-009  0.1115828E+03  0.7818608E-02  0.1257666E+00
          3   -1    0    0  501    0  0.00000000000E+00  0.00000000000E+00  0.15704791997E+03  0.15704795245E+03  0.10100000000E+00 0. -1.
         -3   -1    0    0    0  501 -0.00000000000E+00 -0.00000000000E+00 -0.19819792577E+02  0.19820049919E+02  0.10100000000E+00 0.  1.
         23    2    1    2    0    0  0.00000000000E+00  0.71054273576E-14  0.13722812740E+03  0.17686800237E+03  0.11158284507E+03 0.  0.
    9000005    2    3    3    0    0 -0.35263647510E+02  0.38249172794E+02  0.99011708112E+02  0.11231555270E+03  0.10244070512E+02 0.  0.
         22    1    3    3    0    0  0.35263647510E+02 -0.38249172794E+02  0.38216419285E+02  0.64552449668E+02  0.00000000000E+00 0. -1.
         22    1    4    4    0    0 -0.20107896630E+00  0.34248000655E+01  0.89784599528E+01  0.96115779851E+01  0.00000000000E+00 0. -1.
         22    1    4    4    0    0 -0.35062568543E+02  0.34824372729E+02  0.90033248159E+02  0.10270397472E+03  0.00000000000E+00 0. -1.
<mgrwt>
<rscale>  0 0.11158285E+03</rscale>
<asrwt>0</asrwt>
<pdfrwt beam="1">  1        3 0.24161240E-01 0.11158285E+03</pdfrwt>
<pdfrwt beam="2">  1       -3 0.30492212E-02 0.11158285E+03</pdfrwt>
<totfact> 0.17111772E+04</totfact>
</mgrwt>
</event>
<event>
 7    1  0.1312339E-009  0.9326250E+02  0.7818608E-02  0.1295138E+00
          3   -1    0    0  501    0  0.00000000000E+00  0.00000000000E+00  0.92165519799E+02  0.92165575140E+02  0.10100000000E+00 0. -1.
         -3   -1    0    0    0  501 -0.00000000000E+00 -0.00000000000E+00 -0.23592961316E+02  0.23593177503E+02  0.10100000000E+00 0.  1.
         23    2    1    2    0    0  0.00000000000E+00  0.00000000000E+00  0.68572558483E+02  0.11575875264E+03  0.93262495337E+02 0.  0.
    9000005    2    3    3    0    0 -0.32516849726E+02 -0.27178016312E+02  0.10708843039E+02  0.44035676497E+02  0.53358596847E+01 0.  0.
         22    1    3    3    0    0  0.32516849726E+02  0.27178016312E+02  0.57863715444E+02  0.71723076145E+02  0.00000000000E+00 0. -1.
         22    1    4    4    0    0 -0.89504054010E+01 -0.93445320592E+01  0.53419345341E+01  0.13998796406E+02  0.00000000000E+00 0.  1.
         22    1    4    4    0    0 -0.23566444325E+02 -0.17833484253E+02  0.53669085047E+01  0.30036880091E+02  0.00000000000E+00 0.  1.
<mgrwt>
<rscale>  0 0.93262495E+02</rscale>
<asrwt>0</asrwt>
<pdfrwt beam="1">  1        3 0.14179331E-01 0.93262495E+02</pdfrwt>
<pdfrwt beam="2">  1       -3 0.36297073E-02 0.93262495E+02</pdfrwt>
<totfact> 0.31534488E+04</totfact>
</mgrwt>
</event>
<event>
 7    1  0.1312339E-009  0.9172581E+02  0.7818608E-02  0.1298725E+00
          3   -1    0    0  501    0  0.00000000000E+00  0.00000000000E+00  0.36252802923E+02  0.36252943615E+02  0.10100000000E+00 0. -1.
         -3   -1    0    0    0  501 -0.00000000000E+00 -0.00000000000E+00 -0.58020209861E+02  0.58020297770E+02  0.10100000000E+00 0.  1.
         23    2    1    2    0    0  0.00000000000E+00  0.35527136788E-14 -0.21767406938E+02  0.94273241385E+02  0.91725808999E+02 0.  0.
    9000005    2    3    3    0    0  0.83649177766E+01  0.30625049256E+02  0.21751933846E+02  0.40404897122E+02  0.12310304386E+02 0.  0.
         22    1    3    3    0    0 -0.83649177766E+01 -0.30625049256E+02 -0.43519340785E+02  0.53868344263E+02  0.00000000000E+00 0.  1.
         22    1    4    4    0    0  0.53461646751E+01  0.30540913127E+02  0.19368519425E+02  0.36557740577E+02  0.00000000000E+00 0. -1.
         22    1    4    4    0    0  0.30187531015E+01  0.84136128127E-01  0.23834144217E+01  0.38471565450E+01  0.00000000000E+00 0. -1.
<mgrwt>
<rscale>  0 0.91725809E+02</rscale>
<asrwt>0</asrwt>
<pdfrwt beam="1">  1        3 0.55773719E-02 0.91725809E+02</pdfrwt>
<pdfrwt beam="2">  1       -3 0.89262038E-02 0.91725809E+02</pdfrwt>
<totfact> 0.34532487E+04</totfact>
</mgrwt>
</event>
<event>
 7    1  0.1312339E-009  0.8903603E+02  0.7818608E-02  0.1305203E+00
         -3   -1    0    0    0  501 -0.00000000000E+00  0.00000000000E+00  0.50678380987E+02  0.50678481631E+02  0.10100000000E+00 0.  1.
          3   -1    0    0  501    0  0.00000000000E+00 -0.00000000000E+00 -0.39106283133E+02  0.39106413560E+02  0.10100000000E+00 0. -1.
         23    2    1    2    0    0  0.00000000000E+00 -0.44408920985E-15  0.11572097854E+02  0.89784895191E+02  0.89036026168E+02 0.  0.
    9000005    2    3    3    0    0 -0.44247174356E+02 -0.26792337307E+01  0.59582780793E+01  0.45102620133E+02  0.58098651749E+01 0.  0.
         22    1    3    3    0    0  0.44247174356E+02  0.26792337307E+01  0.56138197744E+01  0.44682275058E+02  0.00000000000E+00 0. -1.
         22    1    4    4    0    0 -0.36187940225E+02 -0.19564158120E+01  0.71034929394E+01  0.36930396592E+02  0.00000000000E+00 0. -1.
         22    1    4    4    0    0 -0.80592341314E+01 -0.72281791874E+00 -0.11452148601E+01  0.81722235411E+01  0.00000000000E+00 0. -1.
<mgrwt>
<rscale>  0 0.89036026E+02</rscale>
<asrwt>0</asrwt>
<pdfrwt beam="2">  1        3 0.60163690E-02 0.89036026E+02</pdfrwt>
<pdfrwt beam="1">  1       -3 0.77966918E-02 0.89036026E+02</pdfrwt>
<totfact> 0.37810719E+04</totfact>
</mgrwt>
</event>
<event>
 7    1  0.1312339E-009  0.9029653E+02  0.7818608E-02  0.1302135E+00
         -3   -1    0    0    0  501 -0.00000000000E+00  0.00000000000E+00  0.18688729164E+02  0.18689002080E+02  0.10100000000E+00 0.  1.
          3   -1    0    0  501    0  0.00000000000E+00 -0.00000000000E+00 -0.10906816046E+03  0.10906820723E+03  0.10100000000E+00 0. -1.
         23    2    1    2    0    0  0.00000000000E+00  0.00000000000E+00 -0.90379431301E+02  0.12775720931E+03  0.90296527774E+02 0.  0.
    9000005    2    3    3    0    0 -0.10587566232E+02  0.19444049101E+02  0.72747024295E+01  0.27624809763E+02  0.14833786262E+02 0.  0.
         22    1    3    3    0    0  0.10587566232E+02 -0.19444049101E+02 -0.97654133731E+02  0.10013239955E+03  0.00000000000E+00 0. -1.
         22    1    4    4    0    0 -0.68988401905E+01  0.19536380735E+02  0.15013267074E+01  0.20773014949E+02  0.00000000000E+00 0. -1.
         22    1    4    4    0    0 -0.36887260416E+01 -0.92331634767E-01  0.57733757221E+01  0.68517948137E+01  0.00000000000E+00 0. -1.
<mgrwt>
<rscale>  0 0.90296528E+02</rscale>
<asrwt>0</asrwt>
<pdfrwt beam="2">  1        3 0.16779741E-01 0.90296528E+02</pdfrwt>
<pdfrwt beam="1">  1       -3 0.28752138E-02 0.90296528E+02</pdfrwt>
<totfact> 0.33595395E+04</totfact>
</mgrwt>
</event>
<event>
 7    1  0.1312339E-009  0.9909604E+02  0.7818608E-02  0.1282208E+00
          3   -1    0    0  501    0  0.00000000000E+00  0.00000000000E+00  0.27571439237E+03  0.27571441087E+03  0.10100000000E+00 0. -1.
         -3   -1    0    0    0  501 -0.00000000000E+00 -0.00000000000E+00 -0.89038600260E+01  0.89044328490E+01  0.10100000000E+00 0.  1.
         23    2    1    2    0    0  0.71054273576E-14  0.35527136788E-14  0.26681053235E+03  0.28461884372E+03  0.99096044471E+02 0.  0.
    9000005    2    3    3    0    0  0.40372132154E+02  0.26763587552E+02  0.15062958847E+03  0.15874505617E+03  0.12826584159E+02 0.  0.
         22    1    3    3    0    0 -0.40372132154E+02 -0.26763587552E+02  0.11618094387E+03  0.12587378755E+03  0.00000000000E+00 0. -1.
         22    1    4    4    0    0  0.25542245923E+02  0.20754354709E+02  0.11634426385E+03  0.12090962450E+03  0.00000000000E+00 0. -1.
         22    1    4    4    0    0  0.14829886231E+02  0.60092328433E+01  0.34285324623E+02  0.37835431668E+02  0.00000000000E+00 0. -1.
<mgrwt>
<rscale>  0 0.99096044E+02</rscale>
<asrwt>0</asrwt>
<pdfrwt beam="1">  1        3 0.42417651E-01 0.99096044E+02</pdfrwt>
<pdfrwt beam="2">  1       -3 0.13698699E-02 0.99096044E+02</pdfrwt>
<totfact> 0.19674734E+04</totfact>
</mgrwt>
</event>
<event>
 7    1  0.1312339E-009  0.9642158E+02  0.7818608E-02  0.1288006E+00
          3   -1    0    0  501    0  0.00000000000E+00  0.00000000000E+00  0.25965018862E+02  0.25965215298E+02  0.10100000000E+00 0. -1.
         -3   -1    0    0    0  501 -0.00000000000E+00 -0.00000000000E+00 -0.89515265689E+02  0.89515322668E+02  0.10100000000E+00 0.  1.
         23    2    1    2    0    0  0.00000000000E+00  0.00000000000E+00 -0.63550246827E+02  0.11548053797E+03  0.96421578379E+02 0.  0.
    9000005    2    3    3    0    0 -0.18718500682E+02 -0.40535282952E+02 -0.52807667004E+02  0.69557837120E+02  0.74934356995E+01 0.  0.
         22    1    3    3    0    0  0.18718500682E+02  0.40535282952E+02 -0.10742579824E+02  0.45922700847E+02  0.00000000000E+00 0. -1.
         22    1    4    4    0    0 -0.27478828599E+01 -0.17935359240E+01 -0.27965618990E+01  0.43114254924E+01  0.00000000000E+00 0. -1.
         22    1    4    4    0    0 -0.15970617822E+02 -0.38741747028E+02 -0.50011105105E+02  0.65246411627E+02  0.00000000000E+00 0. -1.
<mgrwt>
<rscale>  0 0.96421578E+02</rscale>
<asrwt>0</asrwt>
<pdfrwt beam="1">  1        3 0.39946378E-02 0.96421578E+02</pdfrwt>
<pdfrwt beam="2">  1       -3 0.13771599E-01 0.96421578E+02</pdfrwt>
<totfact> 0.28808473E+04</totfact>
</mgrwt>
</event>
<event>
 7    1  0.1312339E-009  0.8976108E+02  0.7818608E-02  0.1303431E+00
          3   -1    0    0  501    0  0.00000000000E+00  0.00000000000E+00  0.10321041076E+02  0.10321535249E+02  0.10100000000E+00 0. -1.
         -3   -1    0    0    0  501 -0.00000000000E+00 -0.00000000000E+00 -0.19515562806E+03  0.19515565420E+03  0.10100000000E+00 0.  1.
         23    2    1    2    0    0  0.35527136788E-14  0.00000000000E+00 -0.18483458699E+03  0.20547718945E+03  0.89761076399E+02 0.  0.
    9000005    2    3    3    0    0 -0.24226501577E+02  0.35296594042E+02 -0.66412523328E+02  0.79554363514E+02  0.92466518145E+01 0.  0.
         22    1    3    3    0    0  0.24226501577E+02 -0.35296594042E+02 -0.11842206366E+03  0.12592282593E+03  0.00000000000E+00 0.  1.
         22    1    4    4    0    0 -0.89842455899E+01  0.66093338563E+01 -0.14130287896E+02  0.18001805434E+02  0.00000000000E+00 0.  1.
         22    1    4    4    0    0 -0.15242255987E+02  0.28687260186E+02 -0.52282235432E+02  0.61552558081E+02  0.00000000000E+00 0.  1.
<mgrwt>
<rscale>  0 0.89761076E+02</rscale>
<asrwt>0</asrwt>
<pdfrwt beam="1">  1        3 0.15878926E-02 0.89761076E+02</pdfrwt>
<pdfrwt beam="2">  1       -3 0.30023980E-01 0.89761076E+02</pdfrwt>
<totfact> 0.29429990E+04</totfact>
</mgrwt>
</event>
<event>
 7    1  0.1312339E-009  0.9386149E+02  0.7818608E-02  0.1293761E+00
         -3   -1    0    0    0  501 -0.00000000000E+00  0.00000000000E+00  0.64301303030E+02  0.64301382352E+02  0.10100000000E+00 0.  1.
          3   -1    0    0  501    0  0.00000000000E+00 -0.00000000000E+00 -0.34252549458E+02  0.34252698366E+02  0.10100000000E+00 0. -1.
         23    2    1    2    0    0 -0.17763568394E-14  0.00000000000E+00  0.30048753573E+02  0.98554080718E+02  0.93861489627E+02 0.  0.
    9000005    2    3    3    0    0 -0.12599355889E+02  0.42300318404E+02  0.29921656896E+02  0.54417057037E+02  0.10855866584E+02 0.  0.
         22    1    3    3    0    0  0.12599355889E+02 -0.42300318404E+02  0.12709667677E+00  0.44137023681E+02  0.00000000000E+00 0. -1.
         22    1    4    4    0    0 -0.57892103748E+01  0.14757564608E+02  0.16989156054E+02  0.23236438913E+02  0.00000000000E+00 0. -1.
         22    1    4    4    0    0 -0.68101455146E+01  0.27542753795E+02  0.12932500842E+02  0.31180618124E+02  0.00000000000E+00 0. -1.
<mgrwt>
<rscale>  0 0.93861490E+02</rscale>
<asrwt>0</asrwt>
<pdfrwt beam="2">  1        3 0.52696406E-02 0.93861490E+02</pdfrwt>
<pdfrwt beam="1">  1       -3 0.98925257E-02 0.93861490E+02</pdfrwt>
<totfact> 0.32129693E+04</totfact>
</mgrwt>
</event>
<event>
 7    1  0.1424024E-009  0.9141152E+02  0.7818608E-02  0.1299469E+00
          3   -1    0    0  501    0  0.00000000000E+00  0.00000000000E+00  0.43599541514E+01  0.43611238462E+01  0.10100000000E+00 0. -1.
         -3   -1    0    0    0  501 -0.00000000000E+00 -0.00000000000E+00 -0.47907181040E+03  0.47907182105E+03  0.10100000000E+00 0.  1.
         23    2    1    2    0    0  0.00000000000E+00  0.00000000000E+00 -0.47471185625E+03  0.48343294490E+03  0.91411518666E+02 0.  0.
    9000005    2    3    3    0    0  0.40181752385E+02  0.19429172745E+02 -0.24116256010E+03  0.24565712672E+03  0.13999197621E+02 0.  0.
         22    1    3    3    0    0 -0.40181752385E+02 -0.19429172745E+02 -0.23354929615E+03  0.23777581818E+03  0.00000000000E+00 0. -1.
         22    1    4    4    0    0  0.34328541448E+02  0.12779874223E+02 -0.16716860963E+03  0.17113479479E+03  0.00000000000E+00 0.  1.
         22    1    4    4    0    0  0.58532109368E+01  0.66492985212E+01 -0.73993950473E+02  0.74522331926E+02  0.00000000000E+00 0.  1.
<mgrwt>
<rscale>  0 0.91411519E+02</rscale>
<asrwt>0</asrwt>
<pdfrwt beam="1">  1        3 0.67085335E-03 0.91411519E+02</pdfrwt>
<pdfrwt beam="2">  1       -3 0.73703405E-01 0.91411519E+02</pdfrwt>
<totfact> 0.18174810E+04</totfact>
</mgrwt>
</event>
<event>
 7    1  0.1312339E-009  0.9502899E+02  0.7818608E-02  0.1291111E+00
          3   -1    0    0  501    0  0.00000000000E+00  0.00000000000E+00  0.26902481636E+02  0.26902671227E+02  0.10100000000E+00 0. -1.
         -3   -1    0    0    0  501 -0.00000000000E+00 -0.00000000000E+00 -0.83918397576E+02  0.83918458355E+02  0.10100000000E+00 0.  1.
         23    2    1    2    0    0  0.00000000000E+00  0.00000000000E+00 -0.57015915940E+02  0.11082112958E+03  0.95028985533E+02 0.  0.
    9000005    2    3    3    0    0 -0.36847776668E+02 -0.26917899742E+02 -0.14792750777E+02  0.48650978801E+02  0.81092719071E+01 0.  0.
         22    1    3    3    0    0  0.36847776668E+02  0.26917899742E+02 -0.42223165163E+02  0.62170150781E+02  0.00000000000E+00 0.  1.
         22    1    4    4    0    0 -0.20440409579E+02 -0.11975148859E+02 -0.11070167424E+02  0.26148864999E+02  0.00000000000E+00 0. -1.
         22    1    4    4    0    0 -0.16407367089E+02 -0.14942750882E+02 -0.37225833536E+01  0.22502113802E+02  0.00000000000E+00 0. -1.
<mgrwt>
<rscale>  0 0.95028986E+02</rscale>
<asrwt>0</asrwt>
<pdfrwt beam="1">  1        3 0.41388626E-02 0.95028986E+02</pdfrwt>
<pdfrwt beam="2">  1       -3 0.12910542E-01 0.95028986E+02</pdfrwt>
<totfact> 0.30269615E+04</totfact>
</mgrwt>
</event>
<event>
 7    1  0.1312339E-009  0.9283993E+02  0.7818608E-02  0.1296117E+00
         -3   -1    0    0    0  501 -0.00000000000E+00  0.00000000000E+00  0.56157713743E+02  0.56157804568E+02  0.10100000000E+00 0.  1.
          3   -1    0    0  501    0  0.00000000000E+00 -0.00000000000E+00 -0.38370553328E+02  0.38370686256E+02  0.10100000000E+00 0. -1.
         23    2    1    2    0    0  0.00000000000E+00  0.88817841970E-15  0.17787160415E+02  0.94528490823E+02  0.92839929458E+02 0.  0.
    9000005    2    3    3    0    0  0.11539206952E+02  0.68644861364E+01  0.53931372959E+02  0.55971019856E+02  0.66247722569E+01 0.  0.
         22    1    3    3    0    0 -0.11539206952E+02 -0.68644861364E+01 -0.36144212544E+02  0.38557470968E+02  0.00000000000E+00 0. -1.
         22    1    4    4    0    0  0.95990368197E+01  0.78177225955E+01  0.49710186453E+02  0.51228516782E+02  0.00000000000E+00 0. -1.
         22    1    4    4    0    0  0.19401701328E+01 -0.95323645914E+00  0.42211865056E+01  0.47425030739E+01  0.00000000000E+00 0. -1.
<mgrwt>
<rscale>  0 0.92839929E+02</rscale>
<asrwt>0</asrwt>
<pdfrwt beam="2">  1        3 0.59031793E-02 0.92839929E+02</pdfrwt>
<pdfrwt beam="1">  1       -3 0.86396654E-02 0.92839929E+02</pdfrwt>
<totfact> 0.33393732E+04</totfact>
</mgrwt>
</event>
<event>
 6    1  0.1312339E-009  0.1979793E+03  0.7818608E-02  0.1151455E+00
          3   -1    0    0  501    0  0.00000000000E+00  0.00000000000E+00  0.11123578338E+03  0.11123582923E+03  0.10100000000E+00 0. -1.
         -3   -1    0    0    0  501 -0.00000000000E+00 -0.00000000000E+00 -0.88091624735E+02  0.88091682635E+02  0.10100000000E+00 0.  1.
    9000005    2    1    2    0    0  0.14367745235E+02  0.88824728787E+02 -0.29108554332E+02  0.95276512062E+02  0.11577619279E+02 0.  0.
         22    1    1    2    0    0 -0.14367745235E+02 -0.88824728787E+02  0.52252712976E+02  0.10405099981E+03  0.00000000000E+00 0.  1.
         22    1    3    3    0    0  0.22545226975E+01  0.20910940392E+01 -0.32456538390E+00  0.30920688159E+01  0.00000000000E+00 0.  1.
         22    1    3    3    0    0  0.12113222538E+02  0.86733634748E+02 -0.28783988948E+02  0.92184443246E+02  0.00000000000E+00 0.  1.
<mgrwt>
<rscale>  0 0.19797930E+03</rscale>
<asrwt>0</asrwt>
<pdfrwt beam="1">  1        3 0.17113206E-01 0.19797930E+03</pdfrwt>
<pdfrwt beam="2">  1       -3 0.13552566E-01 0.19797930E+03</pdfrwt>
<totfact> 0.31796927E+03</totfact>
</mgrwt>
</event>
<event>
 7    1  0.1312339E-009  0.9787367E+02  0.7818608E-02  0.1284832E+00
          3   -1    0    0  501    0  0.00000000000E+00  0.00000000000E+00  0.24692011345E+02  0.24692217909E+02  0.10100000000E+00 0. -1.
         -3   -1    0    0    0  501 -0.00000000000E+00 -0.00000000000E+00 -0.96986764468E+02  0.96986817058E+02  0.10100000000E+00 0.  1.
         23    2    1    2    0    0  0.35527136788E-14  0.00000000000E+00 -0.72294753123E+02  0.12167903497E+03  0.97873674812E+02 0.  0.
    9000005    2    3    3    0    0 -0.27953258469E+02 -0.40060012067E+02 -0.35753011958E+02  0.60675034498E+02  0.41222228732E+01 0.  0.
         22    1    3    3    0    0  0.27953258469E+02  0.40060012067E+02 -0.36541741165E+02  0.61004000469E+02  0.00000000000E+00 0. -1.
         22    1    4    4    0    0 -0.25254569002E+02 -0.33703457126E+02 -0.30577922665E+02  0.52045418936E+02  0.00000000000E+00 0.  1.
         22    1    4    4    0    0 -0.26986894675E+01 -0.63565549411E+01 -0.51750892933E+01  0.86296155624E+01  0.00000000000E+00 0.  1.
<mgrwt>
<rscale>  0 0.97873675E+02</rscale>
<asrwt>0</asrwt>
<pdfrwt beam="1">  1        3 0.37987910E-02 0.97873675E+02</pdfrwt>
<pdfrwt beam="2">  1       -3 0.14921060E-01 0.97873675E+02</pdfrwt>
<totfact> 0.27303972E+04</totfact>
</mgrwt>
</event>
<event>
 7    1  0.1312339E-009  0.9074021E+02  0.7818608E-02  0.1301069E+00
          3   -1    0    0  501    0  0.00000000000E+00  0.00000000000E+00  0.83324550193E+03  0.83324550805E+03  0.10100000000E+00 0. -1.
         -3   -1    0    0    0  501 -0.00000000000E+00 -0.00000000000E+00 -0.24693573897E+01  0.24714220437E+01  0.10100000000E+00 0.  1.
         23    2    1    2    0    0  0.00000000000E+00  0.00000000000E+00  0.83077614454E+03  0.83571693009E+03  0.90740205587E+02 0.  0.
    9000005    2    3    3    0    0  0.14598182828E+02  0.28122586029E+02  0.70909621345E+03  0.70997913778E+03  0.15778129247E+02 0.  0.
         22    1    3    3    0    0 -0.14598182828E+02 -0.28122586029E+02  0.12167993109E+03  0.12573779232E+03  0.00000000000E+00 0.  1.
         22    1    4    4    0    0  0.93889190556E+01  0.27083563253E+02  0.65388149107E+03  0.65450949234E+03  0.00000000000E+00 0.  1.
         22    1    4    4    0    0  0.52092637723E+01  0.10390227755E+01  0.55214722386E+02  0.55469645443E+02  0.00000000000E+00 0.  1.
<mgrwt>
<rscale>  0 0.90740206E+02</rscale>
<asrwt>0</asrwt>
<pdfrwt beam="1">  1        3 0.12819185E+00 0.90740206E+02</pdfrwt>
<pdfrwt beam="2">  1       -3 0.38006021E-03 0.90740206E+02</pdfrwt>
<totfact> 0.12080496E+04</totfact>
</mgrwt>
</event>
<event>
 7    1  0.1312339E-009  0.9146713E+02  0.7818608E-02  0.1299337E+00
         -3   -1    0    0    0  501 -0.00000000000E+00  0.00000000000E+00  0.85115263638E+01  0.85121255889E+01  0.10100000000E+00 0.  1.
          3   -1    0    0  501    0  0.00000000000E+00 -0.00000000000E+00 -0.24572326937E+03  0.24572329013E+03  0.10100000000E+00 0. -1.
         23    2    1    2    0    0  0.00000000000E+00  0.00000000000E+00 -0.23721174301E+03  0.25423541572E+03  0.91467128436E+02 0.  0.
    9000005    2    3    3    0    0 -0.34089593618E+02 -0.23031493899E+02 -0.68209185034E+02  0.80297453484E+02  0.10131041844E+02 0.  0.
         22    1    3    3    0    0  0.34089593618E+02  0.23031493899E+02 -0.16900255798E+03  0.17393796224E+03  0.00000000000E+00 0. -1.
         22    1    4    4    0    0 -0.98480868086E+01 -0.11301024656E+02 -0.19000826598E+02  0.24201846695E+02  0.00000000000E+00 0. -1.
         22    1    4    4    0    0 -0.24241506809E+02 -0.11730469243E+02 -0.49208358436E+02  0.56095606789E+02  0.00000000000E+00 0. -1.
<mgrwt>
<rscale>  0 0.91467128E+02</rscale>
<asrwt>0</asrwt>
<pdfrwt beam="2">  1        3 0.37803622E-01 0.91467128E+02</pdfrwt>
<pdfrwt beam="1">  1       -3 0.13095135E-02 0.91467128E+02</pdfrwt>
<totfact> 0.25695875E+04</totfact>
</mgrwt>
</event>
<event>
 7    1  0.1312339E-009  0.9074911E+02  0.7818608E-02  0.1301048E+00
         -3   -1    0    0    0  501 -0.00000000000E+00  0.00000000000E+00  0.69674779429E+01  0.69682099484E+01  0.10100000000E+00 0.  1.
          3   -1    0    0  501    0  0.00000000000E+00 -0.00000000000E+00 -0.29547808132E+03  0.29547809858E+03  0.10100000000E+00 0. -1.
         23    2    1    2    0    0  0.00000000000E+00  0.00000000000E+00 -0.28851060338E+03  0.30244630853E+03  0.90749111746E+02 0.  0.
    9000005    2    3    3    0    0 -0.16580986469E+02 -0.33793404215E+02 -0.62984232877E+02  0.73800147243E+02  0.79072663528E+01 0.  0.
         22    1    3    3    0    0  0.16580986469E+02  0.33793404215E+02 -0.22552637050E+03  0.22864616129E+03  0.00000000000E+00 0. -1.
         22    1    4    4    0    0 -0.99482367815E+01 -0.26962051643E+02 -0.50424288641E+02  0.58039025912E+02  0.00000000000E+00 0.  1.
         22    1    4    4    0    0 -0.66327496878E+01 -0.68313525716E+01 -0.12559944237E+02  0.15761121331E+02  0.00000000000E+00 0.  1.
<mgrwt>
<rscale>  0 0.90749112E+02</rscale>
<asrwt>0</asrwt>
<pdfrwt beam="2">  1        3 0.45458214E-01 0.90749112E+02</pdfrwt>
<pdfrwt beam="1">  1       -3 0.10719776E-02 0.90749112E+02</pdfrwt>
<totfact> 0.24240640E+04</totfact>
</mgrwt>
</event>
<event>
 7    1  0.1312339E-009  0.9204835E+02  0.7818608E-02  0.1297966E+00
         -3   -1    0    0    0  501 -0.00000000000E+00  0.00000000000E+00  0.43246659570E+02  0.43246777509E+02  0.10100000000E+00 0.  1.
          3   -1    0    0  501    0  0.00000000000E+00 -0.00000000000E+00 -0.48979842145E+02  0.48979946280E+02  0.10100000000E+00 0. -1.
         23    2    1    2    0    0  0.00000000000E+00  0.00000000000E+00 -0.57331825753E+01  0.92226723789E+02  0.92048352503E+02 0.  0.
    9000005    2    3    3    0    0  0.29359571545E+02 -0.24868326482E+02 -0.25934335680E+02  0.48769794652E+02  0.15016157961E+02 0.  0.
         22    1    3    3    0    0 -0.29359571545E+02  0.24868326482E+02  0.20201153104E+02  0.43456929137E+02  0.00000000000E+00 0.  1.
         22    1    4    4    0    0  0.17539555112E+02 -0.58814634115E+01 -0.15291460735E+02  0.24001174488E+02  0.00000000000E+00 0.  1.
         22    1    4    4    0    0  0.11820016433E+02 -0.18986863071E+02 -0.10642874945E+02  0.24768620164E+02  0.00000000000E+00 0.  1.
<mgrwt>
<rscale>  0 0.92048353E+02</rscale>
<asrwt>0</asrwt>
<pdfrwt beam="2">  1        3 0.75353774E-02 0.92048353E+02</pdfrwt>
<pdfrwt beam="1">  1       -3 0.66533493E-02 0.92048353E+02</pdfrwt>
<totfact> 0.34353889E+04</totfact>
</mgrwt>
</event>
<event>
 7    1  0.1312339E-009  0.9221594E+02  0.7818608E-02  0.1297572E+00
         -3   -1    0    0    0  501 -0.00000000000E+00  0.00000000000E+00  0.26415364708E+03  0.26415366639E+03  0.10100000000E+00 0.  1.
          3   -1    0    0  501    0  0.00000000000E+00 -0.00000000000E+00 -0.80478019335E+01  0.80484356841E+01  0.10100000000E+00 0. -1.
         23    2    1    2    0    0  0.00000000000E+00  0.00000000000E+00  0.25610584514E+03  0.27220210207E+03  0.92215944688E+02 0.  0.
    9000005    2    3    3    0    0  0.10084731184E+02 -0.70124930850E+01  0.25918298514E+03  0.25953933567E+03  0.58283885075E+01 0.  0.
         22    1    3    3    0    0 -0.10084731184E+02  0.70124930850E+01 -0.30771399954E+01  0.12662766399E+02  0.00000000000E+00 0. -1.
         22    1    4    4    0    0  0.54181895010E+01 -0.26660994861E+01  0.17951086181E+03  0.17961240039E+03  0.00000000000E+00 0. -1.
         22    1    4    4    0    0  0.46665416834E+01 -0.43463935988E+01  0.79672123325E+02  0.79926935283E+02  0.00000000000E+00 0. -1.
<mgrwt>
<rscale>  0 0.92215945E+02</rscale>
<asrwt>0</asrwt>
<pdfrwt beam="2">  1        3 0.12381735E-02 0.92215945E+02</pdfrwt>
<pdfrwt beam="1">  1       -3 0.40639075E-01 0.92215945E+02</pdfrwt>
<totfact> 0.24386727E+04</totfact>
</mgrwt>
</event>
<event>
 7    1  0.1312339E-009  0.8996721E+02  0.7818608E-02  0.1302931E+00
          3   -1    0    0  501    0  0.00000000000E+00  0.00000000000E+00  0.75917551240E+02  0.75917618424E+02  0.10100000000E+00 0. -1.
         -3   -1    0    0    0  501 -0.00000000000E+00 -0.00000000000E+00 -0.26654065134E+02  0.26654256492E+02  0.10100000000E+00 0.  1.
         23    2    1    2    0    0  0.00000000000E+00  0.00000000000E+00  0.49263486106E+02  0.10257187492E+03  0.89967207696E+02 0.  0.
    9000005    2    3    3    0    0  0.15179327481E+02 -0.38671621259E+02  0.42828513834E+02  0.60532427469E+02  0.10197396945E+02 0.  0.
         22    1    3    3    0    0 -0.15179327481E+02  0.38671621259E+02  0.64349722718E+01  0.42039447448E+02  0.00000000000E+00 0.  1.
         22    1    4    4    0    0 -0.49977299940E+00 -0.10502089629E+02  0.11422102541E+02  0.15524435129E+02  0.00000000000E+00 0.  1.
         22    1    4    4    0    0  0.15679100480E+02 -0.28169531630E+02  0.31406411293E+02  0.45007992340E+02  0.00000000000E+00 0.  1.
<mgrwt>
<rscale>  0 0.89967208E+02</rscale>
<asrwt>0</asrwt>
<pdfrwt beam="1">  1        3 0.11679643E-01 0.89967208E+02</pdfrwt>
<pdfrwt beam="2">  1       -3 0.41006454E-02 0.89967208E+02</pdfrwt>
<totfact> 0.35754770E+04</totfact>
</mgrwt>
</event>
<event>
 7    1  0.1312339E-009  0.9157387E+02  0.7818608E-02  0.1299084E+00
          3   -1    0    0  501    0  0.00000000000E+00  0.00000000000E+00  0.55550868268E+02  0.55550960084E+02  0.10100000000E+00 0. -1.
         -3   -1    0    0    0  501 -0.00000000000E+00 -0.00000000000E+00 -0.37738973148E+02  0.37739108300E+02  0.10100000000E+00 0.  1.
         23    2    1    2    0    0  0.00000000000E+00  0.00000000000E+00  0.17811895119E+02  0.93290068385E+02  0.91573867732E+02 0.  0.
    9000005    2    3    3    0    0  0.19530304922E+02  0.25171028904E+01  0.50956251467E+02  0.54737286708E+02  0.34441799030E+01 0.  0.
         22    1    3    3    0    0 -0.19530304922E+02 -0.25171028904E+01 -0.33144356348E+02  0.38552781677E+02  0.00000000000E+00 0.  1.
         22    1    4    4    0    0  0.52281853440E+01  0.11573102198E+01  0.10150075741E+02  0.11475945560E+02  0.00000000000E+00 0. -1.
         22    1    4    4    0    0  0.14302119578E+02  0.13597926705E+01  0.40806175726E+02  0.43261341148E+02  0.00000000000E+00 0. -1.
<mgrwt>
<rscale>  0 0.91573868E+02</rscale>
<asrwt>0</asrwt>
<pdfrwt beam="1">  1        3 0.85463049E-02 0.91573868E+02</pdfrwt>
<pdfrwt beam="2">  1       -3 0.58060133E-02 0.91573868E+02</pdfrwt>
<totfact> 0.34762257E+04</totfact>
</mgrwt>
</event>
<event>
 7    1  0.1312339E-009  0.9178400E+02  0.7818608E-02  0.1298588E+00
         -3   -1    0    0    0  501 -0.00000000000E+00  0.00000000000E+00  0.30718928972E+03  0.30718930632E+03  0.10100000000E+00 0.  1.
          3   -1    0    0  501    0  0.00000000000E+00 -0.00000000000E+00 -0.68555648974E+01  0.68563088512E+01  0.10100000000E+00 0. -1.
         23    2    1    2    0    0 -0.35527136788E-14  0.00000000000E+00  0.30033372482E+03  0.31404561517E+03  0.91783997215E+02 0.  0.
    9000005    2    3    3    0    0  0.25322045448E+02 -0.35515833268E+02  0.18796651389E+03  0.19350943599E+03  0.14557165830E+02 0.  0.
         22    1    3    3    0    0 -0.25322045448E+02  0.35515833268E+02  0.11236721093E+03  0.12053617918E+03  0.00000000000E+00 0. -1.
         22    1    4    4    0    0  0.19477818818E+02 -0.33965149761E+02  0.17283823139E+03  0.17721758111E+03  0.00000000000E+00 0. -1.
         22    1    4    4    0    0  0.58442266294E+01 -0.15506835064E+01  0.15128282500E+02  0.16291854886E+02  0.00000000000E+00 0. -1.
<mgrwt>
<rscale>  0 0.91783997E+02</rscale>
<asrwt>0</asrwt>
<pdfrwt beam="2">  1        3 0.10547610E-02 0.91783997E+02</pdfrwt>
<pdfrwt beam="1">  1       -3 0.47259940E-01 0.91783997E+02</pdfrwt>
<totfact> 0.23073904E+04</totfact>
</mgrwt>
</event>
<event>
 7    1  0.1312339E-009  0.9150043E+02  0.7818608E-02  0.1299258E+00
         -3   -1    0    0    0  501 -0.00000000000E+00  0.00000000000E+00  0.12194680277E+02  0.12195098526E+02  0.10100000000E+00 0.  1.
          3   -1    0    0  501    0  0.00000000000E+00 -0.00000000000E+00 -0.17163558774E+03  0.17163561746E+03  0.10100000000E+00 0. -1.
         23    2    1    2    0    0  0.00000000000E+00  0.00000000000E+00 -0.15944090746E+03  0.18383071598E+03  0.91500432603E+02 0.  0.
    9000005    2    3    3    0    0 -0.15180918226E+02  0.35110151526E+02 -0.12977829196E+03  0.13542561525E+03  0.58744517720E+01 0.  0.
         22    1    3    3    0    0  0.15180918226E+02 -0.35110151526E+02 -0.29662615499E+02  0.48405100729E+02  0.00000000000E+00 0. -1.
         22    1    4    4    0    0 -0.71016208222E+01  0.17914627652E+02 -0.75407669708E+02  0.77831122008E+02  0.00000000000E+00 0.  1.
         22    1    4    4    0    0 -0.80792974037E+01  0.17195523874E+02 -0.54370622255E+02  0.57594493245E+02  0.00000000000E+00 0.  1.
<mgrwt>
<rscale>  0 0.91500433E+02</rscale>
<asrwt>0</asrwt>
<pdfrwt beam="2">  1        3 0.26405508E-01 0.91500433E+02</pdfrwt>
<pdfrwt beam="1">  1       -3 0.18761392E-02 0.91500433E+02</pdfrwt>
<totfact> 0.29076322E+04</totfact>
</mgrwt>
</event>
<event>
 7    1  0.1312339E-009  0.8573008E+02  0.7818608E-02  0.1313534E+00
          3   -1    0    0  501    0  0.00000000000E+00  0.00000000000E+00  0.10159187519E+02  0.10159689564E+02  0.10100000000E+00 0. -1.
         -3   -1    0    0    0  501 -0.00000000000E+00 -0.00000000000E+00 -0.18085706324E+03  0.18085709144E+03  0.10100000000E+00 0.  1.
         23    2    1    2    0    0  0.00000000000E+00  0.00000000000E+00 -0.17069787572E+03  0.19101678101E+03  0.85730075529E+02 0.  0.
    9000005    2    3    3    0    0  0.15241087274E+02  0.36688555191E+02 -0.11864092080E+03  0.12553191726E+03  0.10210452555E+02 0.  0.
         22    1    3    3    0    0 -0.15241087274E+02 -0.36688555191E+02 -0.52056954928E+02  0.65484863745E+02  0.00000000000E+00 0. -1.
         22    1    4    4    0    0  0.16740169291E+02  0.32289815046E+02 -0.10491215727E+03  0.11103794922E+03  0.00000000000E+00 0.  1.
         22    1    4    4    0    0 -0.14990820167E+01  0.43987401444E+01 -0.13728763526E+02  0.14493968045E+02  0.00000000000E+00 0.  1.
<mgrwt>
<rscale>  0 0.85730076E+02</rscale>
<asrwt>0</asrwt>
<pdfrwt beam="1">  1        3 0.15629928E-02 0.85730076E+02</pdfrwt>
<pdfrwt beam="2">  1       -3 0.27824202E-01 0.85730076E+02</pdfrwt>
<totfact> 0.34181850E+04</totfact>
</mgrwt>
</event>
<event>
 7    1  0.1312339E-009  0.9656239E+02  0.7818608E-02  0.1287695E+00
          3   -1    0    0  501    0  0.00000000000E+00  0.00000000000E+00  0.18219831891E+03  0.18219834691E+03  0.10100000000E+00 0. -1.
         -3   -1    0    0    0  501 -0.00000000000E+00 -0.00000000000E+00 -0.12793928873E+02  0.12794327532E+02  0.10100000000E+00 0.  1.
         23    2    1    2    0    0 -0.35527136788E-14  0.00000000000E+00  0.16940439004E+03  0.19499267444E+03  0.96562392888E+02 0.  0.
    9000005    2    3    3    0    0  0.24930280174E+02 -0.40342275155E+02  0.67539407505E+02  0.82629456699E+02  0.41276523637E+01 0.  0.
         22    1    3    3    0    0 -0.24930280174E+02  0.40342275155E+02  0.10186498254E+03  0.11236321774E+03  0.00000000000E+00 0. -1.
         22    1    4    4    0    0  0.15075099984E+02 -0.23015649593E+02  0.35824009809E+02  0.45170105650E+02  0.00000000000E+00 0. -1.
         22    1    4    4    0    0  0.98551801899E+01 -0.17326625562E+02  0.31715397696E+02  0.37459351048E+02  0.00000000000E+00 0. -1.
<mgrwt>
<rscale>  0 0.96562393E+02</rscale>
<asrwt>0</asrwt>
<pdfrwt beam="1">  1        3 0.28030543E-01 0.96562393E+02</pdfrwt>
<pdfrwt beam="2">  1       -3 0.19683296E-02 0.96562393E+02</pdfrwt>
<totfact> 0.24615649E+04</totfact>
</mgrwt>
</event>
<event>
 7    1  0.1312339E-009  0.8979482E+02  0.7818608E-02  0.1303349E+00
          3   -1    0    0  501    0  0.00000000000E+00  0.00000000000E+00  0.11049634398E+02  0.11050095987E+02  0.10100000000E+00 0. -1.
         -3   -1    0    0    0  501 -0.00000000000E+00 -0.00000000000E+00 -0.18242504175E+03  0.18242506971E+03  0.10100000000E+00 0.  1.
         23    2    1    2    0    0  0.00000000000E+00  0.00000000000E+00 -0.17137540736E+03  0.19347516570E+03  0.89794818874E+02 0.  0.
    9000005    2    3    3    0    0 -0.34212084093E+02 -0.23151650005E+02 -0.54449070016E+02  0.69466158126E+02  0.12424987053E+02 0.  0.
         22    1    3    3    0    0  0.34212084093E+02  0.23151650005E+02 -0.11692633734E+03  0.12400900758E+03  0.00000000000E+00 0.  1.
         22    1    4    4    0    0 -0.14393719860E+02 -0.15542560805E+02 -0.20855795416E+02  0.29727337085E+02  0.00000000000E+00 0.  1.
         22    1    4    4    0    0 -0.19818364233E+02 -0.76090892004E+01 -0.33593274600E+02  0.39738821041E+02  0.00000000000E+00 0.  1.
<mgrwt>
<rscale>  0 0.89794819E+02</rscale>
<asrwt>0</asrwt>
<pdfrwt beam="1">  1        3 0.16999815E-02 0.89794819E+02</pdfrwt>
<pdfrwt beam="2">  1       -3 0.28065426E-01 0.89794819E+02</pdfrwt>
<totfact> 0.30049563E+04</totfact>
</mgrwt>
</event>
<event>
 7    1  0.1312339E-009  0.8954155E+02  0.7818608E-02  0.1303966E+00
          3   -1    0    0  501    0  0.00000000000E+00  0.00000000000E+00  0.10020588678E+03  0.10020593768E+03  0.10100000000E+00 0. -1.
         -3   -1    0    0    0  501 -0.00000000000E+00 -0.00000000000E+00 -0.20002854057E+02  0.20003109044E+02  0.10100000000E+00 0.  1.
         23    2    1    2    0    0  0.00000000000E+00  0.35527136788E-14  0.80203032721E+02  0.12020904672E+03  0.89541545977E+02 0.  0.
    9000005    2    3    3    0    0 -0.29660320965E+02 -0.28988991853E+02  0.59887772363E+02  0.74026733096E+02  0.13164940023E+02 0.  0.
         22    1    3    3    0    0  0.29660320965E+02  0.28988991853E+02  0.20315260358E+02  0.46182313626E+02  0.00000000000E+00 0. -1.
         22    1    4    4    0    0 -0.13832532883E+02 -0.18382864380E+02  0.23121928700E+02  0.32617361260E+02  0.00000000000E+00 0.  1.
         22    1    4    4    0    0 -0.15827788082E+02 -0.10606127473E+02  0.36765843664E+02  0.41409371836E+02  0.00000000000E+00 0.  1.
<mgrwt>
<rscale>  0 0.89541546E+02</rscale>
<asrwt>0</asrwt>
<pdfrwt beam="1">  1        3 0.15416313E-01 0.89541546E+02</pdfrwt>
<pdfrwt beam="2">  1       -3 0.30773858E-02 0.89541546E+02</pdfrwt>
<totfact> 0.34901930E+04</totfact>
</mgrwt>
</event>
<event>
 7    1  0.1312339E-009  0.9064019E+02  0.7818608E-02  0.1301309E+00
          3   -1    0    0  501    0  0.00000000000E+00  0.00000000000E+00  0.16707867419E+02  0.16708172692E+02  0.10100000000E+00 0. -1.
         -3   -1    0    0    0  501 -0.00000000000E+00 -0.00000000000E+00 -0.12292932743E+03  0.12292936892E+03  0.10100000000E+00 0.  1.
         23    2    1    2    0    0  0.00000000000E+00  0.00000000000E+00 -0.10622146001E+03  0.13963754161E+03  0.90640192305E+02 0.  0.
    9000005    2    3    3    0    0 -0.26762560816E+02  0.15379332006E+02 -0.10376045789E+03  0.10867280286E+03  0.95282184390E+01 0.  0.
         22    1    3    3    0    0  0.26762560816E+02 -0.15379332006E+02 -0.24610021221E+01  0.30964738750E+02  0.00000000000E+00 0. -1.
         22    1    4    4    0    0 -0.11719983585E+02  0.11661806214E+02 -0.46457923349E+02  0.49312213308E+02  0.00000000000E+00 0. -1.
         22    1    4    4    0    0 -0.15042577231E+02  0.37175257918E+01 -0.57302534539E+02  0.59360589555E+02  0.00000000000E+00 0. -1.
<mgrwt>
<rscale>  0 0.90640192E+02</rscale>
<asrwt>0</asrwt>
<pdfrwt beam="1">  1        3 0.25704679E-02 0.90640192E+02</pdfrwt>
<pdfrwt beam="2">  1       -3 0.18912230E-01 0.90640192E+02</pdfrwt>
<totfact> 0.32469410E+04</totfact>
</mgrwt>
</event>
<event>
 7    1  0.1312339E-009  0.9365057E+02  0.7818608E-02  0.1294245E+00
          3   -1    0    0  501    0  0.00000000000E+00  0.00000000000E+00  0.92220582504E+02  0.92220637811E+02  0.10100000000E+00 0. -1.
         -3   -1    0    0    0  501 -0.00000000000E+00 -0.00000000000E+00 -0.23775513353E+02  0.23775727880E+02  0.10100000000E+00 0.  1.
         23    2    1    2    0    0  0.44408920985E-15  0.71054273576E-14  0.68445069150E+02  0.11599636569E+03  0.93650570540E+02 0.  0.
    9000005    2    3    3    0    0  0.33876694831E+01  0.42641386717E+02  0.56496372904E+02  0.71583129965E+02  0.10126212446E+02 0.  0.
         22    1    3    3    0    0 -0.33876694831E+01 -0.42641386717E+02  0.11948696246E+02  0.44413235726E+02  0.00000000000E+00 0.  1.
         22    1    4    4    0    0 -0.89192660088E+00  0.11390902008E+01  0.12629447275E+00  0.14522430378E+01  0.00000000000E+00 0. -1.
         22    1    4    4    0    0  0.42795960840E+01  0.41502296516E+02  0.56370078432E+02  0.70130886927E+02  0.00000000000E+00 0. -1.
<mgrwt>
<rscale>  0 0.93650571E+02</rscale>
<asrwt>0</asrwt>
<pdfrwt beam="1">  1        3 0.14187803E-01 0.93650571E+02</pdfrwt>
<pdfrwt beam="2">  1       -3 0.36577920E-02 0.93650571E+02</pdfrwt>
<totfact> 0.31163895E+04</totfact>
</mgrwt>
</event>
<event>
 7    1  0.1312339E-009  0.9132024E+02  0.7818608E-02  0.1299686E+00
          3   -1    0    0  501    0  0.00000000000E+00  0.00000000000E+00  0.38660747670E+02  0.38660879599E+02  0.10100000000E+00 0. -1.
         -3   -1    0    0    0  501 -0.00000000000E+00 -0.00000000000E+00 -0.53926431532E+02  0.53926526115E+02  0.10100000000E+00 0.  1.
         23    2    1    2    0    0  0.35527136788E-14  0.00000000000E+00 -0.15265683863E+02  0.92587405714E+02  0.91320241967E+02 0.  0.
    9000005    2    3    3    0    0  0.30950305206E+02 -0.75409342826E+01 -0.40348311758E+02  0.52042056975E+02  0.80995277819E+01 0.  0.
         22    1    3    3    0    0 -0.30950305206E+02  0.75409342826E+01  0.25082627896E+02  0.40545348738E+02  0.00000000000E+00 0. -1.
         22    1    4    4    0    0  0.19101881991E+02 -0.54568772693E+00 -0.23566479619E+02  0.30340709160E+02  0.00000000000E+00 0.  1.
         22    1    4    4    0    0  0.11848423214E+02 -0.69952465557E+01 -0.16781832139E+02  0.21701347815E+02  0.00000000000E+00 0.  1.
<mgrwt>
<rscale>  0 0.91320242E+02</rscale>
<asrwt>0</asrwt>
<pdfrwt beam="1">  1        3 0.59478248E-02 0.91320242E+02</pdfrwt>
<pdfrwt beam="2">  1       -3 0.82963915E-02 0.91320242E+02</pdfrwt>
<totfact> 0.35080436E+04</totfact>
</mgrwt>
</event>
<event>
 7    1  0.1312339E-009  0.9151127E+02  0.7818608E-02  0.1299233E+00
         -3   -1    0    0    0  501 -0.00000000000E+00  0.00000000000E+00  0.12971327448E+03  0.12971331380E+03  0.10100000000E+00 0.  1.
          3   -1    0    0  501    0  0.00000000000E+00 -0.00000000000E+00 -0.16139843835E+02  0.16140159851E+02  0.10100000000E+00 0. -1.
         23    2    1    2    0    0 -0.35527136788E-14  0.00000000000E+00  0.11357343064E+03  0.14585347365E+03  0.91511265033E+02 0.  0.
    9000005    2    3    3    0    0 -0.26615280006E+02 -0.12129198114E+02  0.11210091517E+03  0.11656766005E+03  0.12880745701E+02 0.  0.
         22    1    3    3    0    0  0.26615280006E+02  0.12129198114E+02  0.14725154717E+01  0.29285813605E+02  0.00000000000E+00 0. -1.
         22    1    4    4    0    0 -0.20473392859E+02 -0.14137399324E+02  0.97045310961E+02  0.10018392213E+03  0.00000000000E+00 0.  1.
         22    1    4    4    0    0 -0.61418871468E+01  0.20082012098E+01  0.15055604209E+02  0.16383737911E+02  0.00000000000E+00 0.  1.
<mgrwt>
<rscale>  0 0.91511265E+02</rscale>
<asrwt>0</asrwt>
<pdfrwt beam="2">  1        3 0.24830803E-02 0.91511265E+02</pdfrwt>
<pdfrwt beam="1">  1       -3 0.19955916E-01 0.91511265E+02</pdfrwt>
<totfact> 0.31251765E+04</totfact>
</mgrwt>
</event>
<event>
 7    1  0.1312339E-009  0.9130425E+02  0.7818608E-02  0.1299724E+00
          3   -1    0    0  501    0  0.00000000000E+00  0.00000000000E+00  0.21515155383E+03  0.21515157753E+03  0.10100000000E+00 0. -1.
         -3   -1    0    0    0  501 -0.00000000000E+00 -0.00000000000E+00 -0.96864484943E+01  0.96869750404E+01  0.10100000000E+00 0.  1.
         23    2    1    2    0    0 -0.35527136788E-14 -0.35527136788E-14  0.20546510533E+03  0.22483855257E+03  0.91304245324E+02 0.  0.
    9000005    2    3    3    0    0  0.25743791645E+02  0.19325435973E+02  0.30672185651E+02  0.47106225591E+02  0.15556292393E+02 0.  0.
         22    1    3    3    0    0 -0.25743791645E+02 -0.19325435973E+02  0.17479291968E+03  0.17773232698E+03  0.00000000000E+00 0. -1.
         22    1    4    4    0    0  0.16237959465E+02  0.20512180051E+02  0.21928031033E+02  0.34135896106E+02  0.00000000000E+00 0. -1.
         22    1    4    4    0    0  0.95058321806E+01 -0.11867440782E+01  0.87441546183E+01  0.12970329485E+02  0.00000000000E+00 0. -1.
<mgrwt>
<rscale>  0 0.91304245E+02</rscale>
<asrwt>0</asrwt>
<pdfrwt beam="1">  1        3 0.33100282E-01 0.91304245E+02</pdfrwt>
<pdfrwt beam="2">  1       -3 0.14902652E-02 0.91304245E+02</pdfrwt>
<totfact> 0.27160907E+04</totfact>
</mgrwt>
</event>
<event>
 7    1  0.1312339E-009  0.8706129E+02  0.7818608E-02  0.1310128E+00
         -3   -1    0    0    0  501 -0.00000000000E+00  0.00000000000E+00  0.13300654223E+03  0.13300658058E+03  0.10100000000E+00 0.  1.
          3   -1    0    0  501    0  0.00000000000E+00 -0.00000000000E+00 -0.14246575528E+02  0.14246933539E+02  0.10100000000E+00 0. -1.
         23    2    1    2    0    0  0.00000000000E+00  0.00000000000E+00  0.11875996670E+03  0.14725351411E+03  0.87061287198E+02 0.  0.
    9000005    2    3    3    0    0  0.41171978709E+01  0.12778704236E+02  0.12901947309E+03  0.13035664838E+03  0.12906771148E+02 0.  0.
         22    1    3    3    0    0 -0.41171978709E+01 -0.12778704236E+02 -0.10259506388E+02  0.16896865732E+02  0.00000000000E+00 0. -1.
         22    1    4    4    0    0 -0.13569793487E+01  0.11958984714E+02  0.65512211842E+02  0.66608622631E+02  0.00000000000E+00 0. -1.
         22    1    4    4    0    0  0.54741772196E+01  0.81971952216E+00  0.63507261245E+02  0.63748025751E+02  0.00000000000E+00 0. -1.
<mgrwt>
<rscale>  0 0.87061287E+02</rscale>
<asrwt>0</asrwt>
<pdfrwt beam="2">  1        3 0.21918114E-02 0.87061287E+02</pdfrwt>
<pdfrwt beam="1">  1       -3 0.20462574E-01 0.87061287E+02</pdfrwt>
<totfact> 0.35653815E+04</totfact>
</mgrwt>
</event>
<event>
 7    1  0.1312339E-009  0.9564873E+02  0.7818608E-02  0.1289722E+00
          3   -1    0    0  501    0  0.00000000000E+00  0.00000000000E+00  0.85166368900E+02  0.85166428788E+02  0.10100000000E+00 0. -1.
         -3   -1    0    0    0  501 -0.00000000000E+00 -0.00000000000E+00 -0.26855155855E+02  0.26855345780E+02  0.10100000000E+00 0.  1.
         23    2    1    2    0    0  0.00000000000E+00  0.22204460493E-15  0.58311213045E+02  0.11202177457E+03  0.95648734496E+02 0.  0.
    9000005    2    3    3    0    0 -0.45805569748E+02  0.13340826766E+00  0.43457415284E+02  0.63867820155E+02  0.96116330830E+01 0.  0.
         22    1    3    3    0    0  0.45805569748E+02 -0.13340826766E+00  0.14853797761E+02  0.48153954413E+02  0.00000000000E+00 0.  1.
         22    1    4    4    0    0 -0.21541633188E+02 -0.36078102740E+01  0.24697718501E+02  0.32970222239E+02  0.00000000000E+00 0. -1.
         22    1    4    4    0    0 -0.24263936561E+02  0.37412185417E+01  0.18759696783E+02  0.30897597916E+02  0.00000000000E+00 0. -1.
<mgrwt>
<rscale>  0 0.95648734E+02</rscale>
<asrwt>0</asrwt>
<pdfrwt beam="1">  1        3 0.13102538E-01 0.95648734E+02</pdfrwt>
<pdfrwt beam="2">  1       -3 0.41315816E-02 0.95648734E+02</pdfrwt>
<totfact> 0.29660550E+04</totfact>
</mgrwt>
</event>
<event>
 7    1  0.1312339E-009  0.9002946E+02  0.7818608E-02  0.1302780E+00
          3   -1    0    0  501    0  0.00000000000E+00  0.00000000000E+00  0.11414429769E+03  0.11414434237E+03  0.10100000000E+00 0. -1.
         -3   -1    0    0    0  501 -0.00000000000E+00 -0.00000000000E+00 -0.17752125452E+02  0.17752412768E+02  0.10100000000E+00 0.  1.
         23    2    1    2    0    0  0.00000000000E+00 -0.71054273576E-14  0.96392172234E+02  0.13189675514E+03  0.90029457113E+02 0.  0.
    9000005    2    3    3    0    0 -0.14583418571E+02  0.40435379091E+02  0.39079971412E+02  0.60256093901E+02  0.15995521475E+02 0.  0.
         22    1    3    3    0    0  0.14583418571E+02 -0.40435379091E+02  0.57312200823E+02  0.71640661238E+02  0.00000000000E+00 0. -1.
         22    1    4    4    0    0 -0.10161862214E+02  0.39067992005E+02  0.30821293226E+02  0.50789010220E+02  0.00000000000E+00 0. -1.
         22    1    4    4    0    0 -0.44215563571E+01  0.13673870859E+01  0.82586781852E+01  0.94670836813E+01  0.00000000000E+00 0. -1.
<mgrwt>
<rscale>  0 0.90029457E+02</rscale>
<asrwt>0</asrwt>
<pdfrwt beam="1">  1        3 0.17560686E-01 0.90029457E+02</pdfrwt>
<pdfrwt beam="2">  1       -3 0.27311218E-02 0.90029457E+02</pdfrwt>
<totfact> 0.33583146E+04</totfact>
</mgrwt>
</event>
<event>
 7    1  0.1312339E-009  0.9201110E+02  0.7818608E-02  0.1298053E+00
         -3   -1    0    0    0  501 -0.00000000000E+00  0.00000000000E+00  0.63561748899E+02  0.63561829144E+02  0.10100000000E+00 0.  1.
          3   -1    0    0  501    0  0.00000000000E+00 -0.00000000000E+00 -0.33298321113E+02  0.33298474289E+02  0.10100000000E+00 0. -1.
         23    2    1    2    0    0  0.00000000000E+00  0.00000000000E+00  0.30263427786E+02  0.96860303433E+02  0.92011104328E+02 0.  0.
    9000005    2    3    3    0    0 -0.24416001556E+02  0.32926996755E+02 -0.58802448411E+01  0.42209655511E+02  0.81700362102E+01 0.  0.
         22    1    3    3    0    0  0.24416001556E+02 -0.32926996755E+02  0.36143672627E+02  0.54650647922E+02  0.00000000000E+00 0.  1.
         22    1    4    4    0    0 -0.14330017941E+02  0.15006453490E+02  0.25152147505E+00  0.20751055963E+02  0.00000000000E+00 0.  1.
         22    1    4    4    0    0 -0.10085983615E+02  0.17920543265E+02 -0.61317663161E+01  0.21458599548E+02  0.00000000000E+00 0.  1.
<mgrwt>
<rscale>  0 0.92011104E+02</rscale>
<asrwt>0</asrwt>
<pdfrwt beam="2">  1        3 0.51228366E-02 0.92011104E+02</pdfrwt>
<pdfrwt beam="1">  1       -3 0.97787485E-02 0.92011104E+02</pdfrwt>
<totfact> 0.34049791E+04</totfact>
</mgrwt>
</event>
<event>
 7    1  0.1312339E-009  0.9148090E+02  0.7818608E-02  0.1299305E+00
          3   -1    0    0  501    0  0.00000000000E+00  0.00000000000E+00  0.61277899315E+02  0.61277982550E+02  0.10100000000E+00 0. -1.
         -3   -1    0    0    0  501 -0.00000000000E+00 -0.00000000000E+00 -0.34142452240E+02  0.34142601629E+02  0.10100000000E+00 0.  1.
         23    2    1    2    0    0  0.00000000000E+00  0.00000000000E+00  0.27135447075E+02  0.95420584179E+02  0.91480901816E+02 0.  0.
    9000005    2    3    3    0    0  0.10740820945E+02 -0.27667599379E+02  0.49733434603E+02  0.58117362733E+02  0.48323952255E+01 0.  0.
         22    1    3    3    0    0 -0.10740820945E+02  0.27667599379E+02 -0.22597987528E+02  0.37303221447E+02  0.00000000000E+00 0.  1.
         22    1    4    4    0    0  0.65787335042E+01 -0.12523742228E+02  0.27076819449E+02  0.30549599104E+02  0.00000000000E+00 0. -1.
         22    1    4    4    0    0  0.41620874412E+01 -0.15143857151E+02  0.22656615154E+02  0.27567763629E+02  0.00000000000E+00 0. -1.
<mgrwt>
<rscale>  0 0.91480902E+02</rscale>
<asrwt>0</asrwt>
<pdfrwt beam="1">  1        3 0.94273871E-02 0.91480902E+02</pdfrwt>
<pdfrwt beam="2">  1       -3 0.52527028E-02 0.91480902E+02</pdfrwt>
<totfact> 0.34697857E+04</totfact>
</mgrwt>
</event>
<event>
 7    1  0.1312339E-009  0.9200883E+02  0.7818608E-02  0.1298059E+00
         -3   -1    0    0    0  501 -0.00000000000E+00  0.00000000000E+00  0.10049099926E+03  0.10049105002E+03  0.10100000000E+00 0.  1.
          3   -1    0    0  501    0  0.00000000000E+00 -0.00000000000E+00 -0.21060475708E+02  0.21060717890E+02  0.10100000000E+00 0. -1.
         23    2    1    2    0    0  0.00000000000E+00  0.00000000000E+00  0.79430523553E+02  0.12155176791E+03  0.92008826800E+02 0.  0.
    9000005    2    3    3    0    0  0.13084400443E+02 -0.24635421160E+02  0.87378301953E+02  0.92547066698E+02  0.12324219710E+02 0.  0.
         22    1    3    3    0    0 -0.13084400443E+02  0.24635421160E+02 -0.79477784004E+01  0.29004701208E+02  0.00000000000E+00 0. -1.
         22    1    4    4    0    0  0.98310906037E+01 -0.16838439854E+02  0.40934733387E+02  0.45341325484E+02  0.00000000000E+00 0. -1.
         22    1    4    4    0    0  0.32533098392E+01 -0.77969813062E+01  0.46443568566E+02  0.47205741214E+02  0.00000000000E+00 0. -1.
<mgrwt>
<rscale>  0 0.92008827E+02</rscale>
<asrwt>0</asrwt>
<pdfrwt beam="2">  1        3 0.32400957E-02 0.92008827E+02</pdfrwt>
<pdfrwt beam="1">  1       -3 0.15460177E-01 0.92008827E+02</pdfrwt>
<totfact> 0.32332957E+04</totfact>
</mgrwt>
</event>
<event>
 7    1  0.1312339E-009  0.9446472E+02  0.7818608E-02  0.1292386E+00
         -3   -1    0    0    0  501 -0.00000000000E+00  0.00000000000E+00  0.13334828330E+03  0.13334832155E+03  0.10100000000E+00 0.  1.
          3   -1    0    0  501    0  0.00000000000E+00 -0.00000000000E+00 -0.16729651332E+02  0.16729956208E+02  0.10100000000E+00 0. -1.
         23    2    1    2    0    0  0.00000000000E+00  0.00000000000E+00  0.11661863197E+03  0.15007827776E+03  0.94464724277E+02 0.  0.
    9000005    2    3    3    0    0 -0.12520814724E+02 -0.15850280745E+02  0.12595447761E+03  0.12782608203E+03  0.81838019800E+01 0.  0.
         22    1    3    3    0    0  0.12520814724E+02  0.15850280745E+02 -0.93358456425E+01  0.22252195732E+02  0.00000000000E+00 0. -1.
         22    1    4    4    0    0 -0.93001832536E+01 -0.60942058064E+01  0.77569398508E+02  0.78362263481E+02  0.00000000000E+00 0. -1.
         22    1    4    4    0    0 -0.32206314703E+01 -0.97560749382E+01  0.48385079106E+02  0.49463818548E+02  0.00000000000E+00 0. -1.
<mgrwt>
<rscale>  0 0.94464724E+02</rscale>
<asrwt>0</asrwt>
<pdfrwt beam="2">  1        3 0.25738189E-02 0.94464724E+02</pdfrwt>
<pdfrwt beam="1">  1       -3 0.20515147E-01 0.94464724E+02</pdfrwt>
<totfact> 0.28430189E+04</totfact>
</mgrwt>
</event>
<event>
 7    1  0.1312339E-009  0.8928227E+02  0.7818608E-02  0.1304599E+00
         -3   -1    0    0    0  501 -0.00000000000E+00  0.00000000000E+00  0.28312063826E+02  0.28312243978E+02  0.10100000000E+00 0.  1.
          3   -1    0    0  501    0  0.00000000000E+00 -0.00000000000E+00 -0.70387613752E+02  0.70387686215E+02  0.10100000000E+00 0. -1.
         23    2    1    2    0    0  0.00000000000E+00  0.00000000000E+00 -0.42075549926E+02  0.98699930193E+02  0.89282273260E+02 0.  0.
    9000005    2    3    3    0    0 -0.41271067313E+02 -0.11061436878E+02 -0.32510263168E+02  0.54914646207E+02  0.11534503623E+02 0.  0.
         22    1    3    3    0    0  0.41271067313E+02  0.11061436878E+02 -0.95652867580E+01  0.43785283986E+02  0.00000000000E+00 0.  1.
         22    1    4    4    0    0 -0.28018280143E+02 -0.45819367741E+01 -0.15312352631E+02  0.32256570027E+02  0.00000000000E+00 0. -1.
         22    1    4    4    0    0 -0.13252787170E+02 -0.64795001043E+01 -0.17197910537E+02  0.22658076180E+02  0.00000000000E+00 0. -1.
<mgrwt>
<rscale>  0 0.89282273E+02</rscale>
<asrwt>0</asrwt>
<pdfrwt beam="2">  1        3 0.10828883E-01 0.89282273E+02</pdfrwt>
<pdfrwt beam="1">  1       -3 0.43557216E-02 0.89282273E+02</pdfrwt>
<totfact> 0.36807324E+04</totfact>
</mgrwt>
</event>
<event>
 7    1  0.1312339E-009  0.9087123E+02  0.7818608E-02  0.1300756E+00
          3   -1    0    0  501    0  0.00000000000E+00  0.00000000000E+00  0.14386570054E+03  0.14386573599E+03  0.10100000000E+00 0. -1.
         -3   -1    0    0    0  501 -0.00000000000E+00 -0.00000000000E+00 -0.14349243578E+02  0.14349599028E+02  0.10100000000E+00 0.  1.
         23    2    1    2    0    0  0.00000000000E+00  0.00000000000E+00  0.12951645696E+03  0.15821533502E+03  0.90871225433E+02 0.  0.
    9000005    2    3    3    0    0  0.36636303265E+02 -0.11524268423E+02  0.25719251256E+02  0.47540643280E+02  0.11117796482E+02 0.  0.
         22    1    3    3    0    0 -0.36636303265E+02  0.11524268423E+02  0.10379720571E+03  0.11067469174E+03  0.00000000000E+00 0. -1.
         22    1    4    4    0    0  0.26830501259E+01 -0.46050388798E+01  0.32617821158E+01  0.62485489223E+01  0.00000000000E+00 0. -1.
         22    1    4    4    0    0  0.33953253139E+02 -0.69192295437E+01  0.22457469141E+02  0.41292094357E+02  0.00000000000E+00 0. -1.
<mgrwt>
<rscale>  0 0.90871225E+02</rscale>
<asrwt>0</asrwt>
<pdfrwt beam="1">  1        3 0.22133215E-01 0.90871225E+02</pdfrwt>
<pdfrwt beam="2">  1       -3 0.22076060E-02 0.90871225E+02</pdfrwt>
<totfact> 0.31093046E+04</totfact>
</mgrwt>
</event>
<event>
 7    1  0.1312339E-009  0.9107581E+02  0.7818608E-02  0.1300267E+00
         -3   -1    0    0    0  501 -0.00000000000E+00  0.00000000000E+00  0.22420564887E+02  0.22420792378E+02  0.10100000000E+00 0.  1.
          3   -1    0    0  501    0  0.00000000000E+00 -0.00000000000E+00 -0.92490280741E+02  0.92490335888E+02  0.10100000000E+00 0. -1.
         23    2    1    2    0    0  0.00000000000E+00 -0.88817841970E-15 -0.70069715855E+02  0.11491112827E+03  0.91075805345E+02 0.  0.
    9000005    2    3    3    0    0 -0.30993041318E+02  0.72810081985E+01  0.33799434689E+01  0.34858432213E+02  0.13787842035E+02 0.  0.
         22    1    3    3    0    0  0.30993041318E+02 -0.72810081985E+01 -0.73449659323E+02  0.80052696052E+02  0.00000000000E+00 0. -1.
         22    1    4    4    0    0 -0.13679667295E+02  0.10275595960E+02  0.21737913677E+01  0.17246638471E+02  0.00000000000E+00 0. -1.
         22    1    4    4    0    0 -0.17313374022E+02 -0.29945877618E+01  0.12061521011E+01  0.17611793742E+02  0.00000000000E+00 0. -1.
<mgrwt>
<rscale>  0 0.91075805E+02</rscale>
<asrwt>0</asrwt>
<pdfrwt beam="2">  1        3 0.14229295E-01 0.91075805E+02</pdfrwt>
<pdfrwt beam="1">  1       -3 0.34493395E-02 0.91075805E+02</pdfrwt>
<totfact> 0.33699544E+04</totfact>
</mgrwt>
</event>
<event>
 6    1  0.1312339E-009  0.2384037E+03  0.7818608E-02  0.1120861E+00
          3   -1    0    0  501    0  0.00000000000E+00  0.00000000000E+00  0.97001857947E+02  0.97001910528E+02  0.10100000000E+00 0. -1.
         -3   -1    0    0    0  501 -0.00000000000E+00 -0.00000000000E+00 -0.14648239871E+03  0.14648243353E+03  0.10100000000E+00 0.  1.
    9000005    2    1    2    0    0 -0.77429347524E+02  0.38575177379E+02  0.58699078417E+02  0.10497016365E+03  0.94765649170E+01 0.  0.
         22    1    1    2    0    0  0.77429347524E+02 -0.38575177379E+02 -0.10817961918E+03  0.13851418041E+03  0.00000000000E+00 0.  1.
         22    1    3    3    0    0 -0.62509184411E+02  0.27303453570E+02  0.43831656686E+02  0.81080767389E+02  0.00000000000E+00 0. -1.
         22    1    3    3    0    0 -0.14920163112E+02  0.11271723809E+02  0.14867421731E+02  0.23889396264E+02  0.00000000000E+00 0. -1.
<mgrwt>
<rscale>  0 0.23840365E+03</rscale>
<asrwt>0</asrwt>
<pdfrwt beam="1">  1        3 0.14923369E-01 0.23840365E+03</pdfrwt>
<pdfrwt beam="2">  1       -3 0.22535760E-01 0.23840365E+03</pdfrwt>
<totfact> 0.16991959E+03</totfact>
</mgrwt>
</event>
<event>
 7    1  0.1312339E-009  0.9040491E+02  0.7818608E-02  0.1301874E+00
          3   -1    0    0  501    0  0.00000000000E+00  0.00000000000E+00  0.11548850543E+03  0.11548854959E+03  0.10100000000E+00 0.  1.
         -3   -1    0    0    0  501 -0.00000000000E+00 -0.00000000000E+00 -0.17692148038E+02  0.17692436327E+02  0.10100000000E+00 0. -1.
         23    2    1    2    0    0  0.00000000000E+00  0.35527136788E-14  0.97796357391E+02  0.13318098592E+03  0.90404908561E+02 0.  0.
    9000005    2    3    3    0    0  0.19568843136E+01  0.22596422661E+02  0.10615032966E+03  0.10901041361E+03  0.10047391456E+02 0.  0.
         22    1    3    3    0    0 -0.19568843136E+01 -0.22596422661E+02 -0.83539722676E+01  0.24170572313E+02  0.00000000000E+00 0. -1.
         22    1    4    4    0    0  0.24544746698E+01  0.65314826673E+01  0.53736834753E+02  0.54187933352E+02  0.00000000000E+00 0.  1.
         22    1    4    4    0    0 -0.49759035616E+00  0.16064939993E+02  0.52413494906E+02  0.54822480256E+02  0.00000000000E+00 0.  1.
<mgrwt>
<rscale>  0 0.90404909E+02</rscale>
<asrwt>0</asrwt>
<pdfrwt beam="1">  1        3 0.17767488E-01 0.90404909E+02</pdfrwt>
<pdfrwt beam="2">  1       -3 0.27218945E-02 0.90404909E+02</pdfrwt>
<totfact> 0.33121600E+04</totfact>
</mgrwt>
</event>
<event>
 7    1  0.1312339E-009  0.9484708E+02  0.7818608E-02  0.1291521E+00
          3   -1    0    0  501    0  0.00000000000E+00  0.00000000000E+00  0.10496173794E+03  0.10496178654E+03  0.10100000000E+00 0. -1.
         -3   -1    0    0    0  501 -0.00000000000E+00 -0.00000000000E+00 -0.21426609080E+02  0.21426847123E+02  0.10100000000E+00 0.  1.
         23    2    1    2    0    0  0.44408920985E-15 -0.35527136788E-14  0.83535128862E+02  0.12638863366E+03  0.94847082001E+02 0.  0.
    9000005    2    3    3    0    0  0.22436489792E+01 -0.21336955497E+02 -0.12001545343E+02  0.28472568844E+02  0.14364903596E+02 0.  0.
         22    1    3    3    0    0 -0.22436489792E+01  0.21336955497E+02  0.95536674205E+02  0.97916064815E+02  0.00000000000E+00 0. -1.
         22    1    4    4    0    0  0.92757913208E+00 -0.14182113093E+02 -0.14945792131E+02  0.20624486351E+02  0.00000000000E+00 0. -1.
         22    1    4    4    0    0  0.13160698472E+01 -0.71548424038E+01  0.29442467876E+01  0.78480824927E+01  0.00000000000E+00 0. -1.
<mgrwt>
<rscale>  0 0.94847082E+02</rscale>
<asrwt>0</asrwt>
<pdfrwt beam="1">  1        3 0.16147982E-01 0.94847082E+02</pdfrwt>
<pdfrwt beam="2">  1       -3 0.32964234E-02 0.94847082E+02</pdfrwt>
<totfact> 0.29469675E+04</totfact>
</mgrwt>
</event>
<event>
 7    1  0.1312339E-009  0.9279003E+02  0.7818608E-02  0.1296233E+00
         -3   -1    0    0    0  501 -0.00000000000E+00  0.00000000000E+00  0.26031146576E+02  0.26031342513E+02  0.10100000000E+00 0.  1.
          3   -1    0    0  501    0  0.00000000000E+00 -0.00000000000E+00 -0.82688767166E+02  0.82688828849E+02  0.10100000000E+00 0. -1.
         23    2    1    2    0    0 -0.88817841970E-15  0.00000000000E+00 -0.56657620590E+02  0.10872017136E+03  0.92790030122E+02 0.  0.
    9000005    2    3    3    0    0 -0.40466972540E+01 -0.40781815117E+02 -0.67570042626E+01  0.44147702672E+02  0.14960960587E+02 0.  0.
         22    1    3    3    0    0  0.40466972540E+01  0.40781815117E+02 -0.49900616327E+02  0.64572468690E+02  0.00000000000E+00 0. -1.
         22    1    4    4    0    0 -0.73059227763E+01 -0.38461669483E+02 -0.79998315064E+01  0.39958401259E+02  0.00000000000E+00 0.  1.
         22    1    4    4    0    0  0.32592255223E+01 -0.23201456338E+01  0.12428272438E+01  0.41893014126E+01  0.00000000000E+00 0.  1.
<mgrwt>
<rscale>  0 0.92790030E+02</rscale>
<asrwt>0</asrwt>
<pdfrwt beam="2">  1        3 0.12721369E-01 0.92790030E+02</pdfrwt>
<pdfrwt beam="1">  1       -3 0.40048116E-02 0.92790030E+02</pdfrwt>
<totfact> 0.32447315E+04</totfact>
</mgrwt>
</event>
<event>
 7    1  0.1312339E-009  0.9023697E+02  0.7818608E-02  0.1302279E+00
          3   -1    0    0  501    0  0.00000000000E+00  0.00000000000E+00  0.39408260532E+02  0.39408389959E+02  0.10100000000E+00 0. -1.
         -3   -1    0    0    0  501 -0.00000000000E+00 -0.00000000000E+00 -0.51655848424E+02  0.51655947164E+02  0.10100000000E+00 0.  1.
         23    2    1    2    0    0 -0.17763568394E-14  0.35527136788E-14 -0.12247587892E+02  0.91064337122E+02  0.90236966296E+02 0.  0.
    9000005    2    3    3    0    0  0.98722301569E+01 -0.20484649131E+02 -0.45072915146E+02  0.51132095918E+02  0.81142944782E+01 0.  0.
         22    1    3    3    0    0 -0.98722301569E+01  0.20484649131E+02  0.32825327254E+02  0.39932241205E+02  0.00000000000E+00 0. -1.
         22    1    4    4    0    0  0.86931498996E-01 -0.79513704356E+01 -0.18944062026E+02  0.20545299582E+02  0.00000000000E+00 0. -1.
         22    1    4    4    0    0  0.97852986579E+01 -0.12533278696E+02 -0.26128853120E+02  0.30586796336E+02  0.00000000000E+00 0. -1.
<mgrwt>
<rscale>  0 0.90236966E+02</rscale>
<asrwt>0</asrwt>
<pdfrwt beam="1">  1        3 0.60628269E-02 0.90236966E+02</pdfrwt>
<pdfrwt beam="2">  1       -3 0.79470712E-02 0.90236966E+02</pdfrwt>
<totfact> 0.36358327E+04</totfact>
</mgrwt>
</event>
<event>
 7    1  0.1312339E-009  0.9292305E+02  0.7818608E-02  0.1295924E+00
          3   -1    0    0  501    0  0.00000000000E+00  0.00000000000E+00  0.67251478519E+01  0.67259062312E+01  0.10100000000E+00 0. -1.
         -3   -1    0    0    0  501 -0.00000000000E+00 -0.00000000000E+00 -0.32096637933E+03  0.32096639522E+03  0.10100000000E+00 0.  1.
         23    2    1    2    0    0  0.00000000000E+00  0.00000000000E+00 -0.31424123148E+03  0.32769230145E+03  0.92923048111E+02 0.  0.
    9000005    2    3    3    0    0  0.24563627302E+02  0.50152503494E+01 -0.29434980940E+03  0.29568928293E+03  0.12720739911E+02 0.  0.
         22    1    3    3    0    0 -0.24563627302E+02 -0.50152503494E+01 -0.19891422081E+02  0.32003018525E+02  0.00000000000E+00 0. -1.
         22    1    4    4    0    0 -0.13926154854E+01  0.11110317231E+01 -0.13867454200E+02  0.13981418217E+02  0.00000000000E+00 0. -1.
         22    1    4    4    0    0  0.25956242787E+02  0.39042186262E+01 -0.28048235520E+03  0.28170786471E+03  0.00000000000E+00 0. -1.
<mgrwt>
<rscale>  0 0.92923048E+02</rscale>
<asrwt>0</asrwt>
<pdfrwt beam="1">  1        3 0.10346979E-02 0.92923048E+02</pdfrwt>
<pdfrwt beam="2">  1       -3 0.49379491E-01 0.92923048E+02</pdfrwt>
<totfact> 0.21845641E+04</totfact>
</mgrwt>
</event>
<event>
 7    1  0.1312339E-009  0.9155095E+02  0.7818608E-02  0.1299139E+00
         -3   -1    0    0    0  501 -0.00000000000E+00  0.00000000000E+00  0.33347903665E+02  0.33348056613E+02  0.10100000000E+00 0.  1.
          3   -1    0    0  501    0  0.00000000000E+00 -0.00000000000E+00 -0.62834023172E+02  0.62834104347E+02  0.10100000000E+00 0. -1.
         23    2    1    2    0    0  0.17763568394E-14  0.00000000000E+00 -0.29486119507E+02  0.96182160960E+02  0.91550952170E+02 0.  0.
    9000005    2    3    3    0    0 -0.12750679118E+02 -0.33959657803E+02  0.12419902851E+02  0.40756960140E+02  0.13821636551E+02 0.  0.
         22    1    3    3    0    0  0.12750679118E+02  0.33959657803E+02 -0.41906022358E+02  0.55425200820E+02  0.00000000000E+00 0. -1.
         22    1    4    4    0    0 -0.63767411558E+01 -0.97041146789E+01 -0.20671978251E+01  0.11794319663E+02  0.00000000000E+00 0. -1.
         22    1    4    4    0    0 -0.63739379627E+01 -0.24255543124E+02  0.14487100676E+02  0.28962640476E+02  0.00000000000E+00 0. -1.
<mgrwt>
<rscale>  0 0.91550952E+02</rscale>
<asrwt>0</asrwt>
<pdfrwt beam="2">  1        3 0.96667907E-02 0.91550952E+02</pdfrwt>
<pdfrwt beam="1">  1       -3 0.51304648E-02 0.91550952E+02</pdfrwt>
<totfact> 0.34568418E+04</totfact>
</mgrwt>
</event>
<event>
 7    1  0.1312339E-009  0.9137980E+02  0.7818608E-02  0.1299544E+00
          3   -1    0    0  501    0  0.00000000000E+00  0.00000000000E+00  0.66705761494E+02  0.66705837956E+02  0.10100000000E+00 0. -1.
         -3   -1    0    0    0  501 -0.00000000000E+00 -0.00000000000E+00 -0.31294973214E+02  0.31295136195E+02  0.10100000000E+00 0.  1.
         23    2    1    2    0    0 -0.88817841970E-15 -0.35527136788E-14  0.35410788279E+02  0.98000974152E+02  0.91379795404E+02 0.  0.
    9000005    2    3    3    0    0  0.72776483953E+01  0.31768124488E+02  0.50606160145E+02  0.62041591151E+02  0.15033219490E+02 0.  0.
         22    1    3    3    0    0 -0.72776483953E+01 -0.31768124488E+02 -0.15195371866E+02  0.35959383001E+02  0.00000000000E+00 0.  1.
         22    1    4    4    0    0  0.89829904741E+01  0.32249702974E+02  0.44518678613E+02  0.55701438089E+02  0.00000000000E+00 0.  1.
         22    1    4    4    0    0 -0.17053420787E+01 -0.48157848555E+00  0.60874815317E+01  0.63401530614E+01  0.00000000000E+00 0.  1.
<mgrwt>
<rscale>  0 0.91379795E+02</rscale>
<asrwt>0</asrwt>
<pdfrwt beam="1">  1        3 0.10262443E-01 0.91379795E+02</pdfrwt>
<pdfrwt beam="2">  1       -3 0.48146297E-02 0.91379795E+02</pdfrwt>
<totfact> 0.34609377E+04</totfact>
</mgrwt>
</event>
<event>
 7    1  0.1312339E-009  0.9226021E+02  0.7818608E-02  0.1297469E+00
          3   -1    0    0  501    0  0.00000000000E+00  0.00000000000E+00  0.36008151702E+02  0.36008293351E+02  0.10100000000E+00 0. -1.
         -3   -1    0    0    0  501 -0.00000000000E+00 -0.00000000000E+00 -0.59097057784E+02  0.59097144091E+02  0.10100000000E+00 0.  1.
         23    2    1    2    0    0  0.00000000000E+00  0.00000000000E+00 -0.23088906081E+02  0.95105437441E+02  0.92260211613E+02 0.  0.
    9000005    2    3    3    0    0 -0.40383937614E+02 -0.14147889962E+02 -0.28575615959E+02  0.51964630856E+02  0.72616681906E+01 0.  0.
         22    1    3    3    0    0  0.40383937614E+02  0.14147889962E+02  0.54867098783E+01  0.43140806586E+02  0.00000000000E+00 0. -1.
         22    1    4    4    0    0 -0.27139857567E+02 -0.12382259334E+02 -0.17321730940E+02  0.34495428360E+02  0.00000000000E+00 0.  1.
         22    1    4    4    0    0 -0.13244080047E+02 -0.17656306277E+01 -0.11253885019E+02  0.17469202496E+02  0.00000000000E+00 0.  1.
<mgrwt>
<rscale>  0 0.92260212E+02</rscale>
<asrwt>0</asrwt>
<pdfrwt beam="1">  1        3 0.55397332E-02 0.92260212E+02</pdfrwt>
<pdfrwt beam="2">  1       -3 0.90918726E-02 0.92260212E+02</pdfrwt>
<totfact> 0.33927813E+04</totfact>
</mgrwt>
</event>
<event>
 7    1  0.1312339E-009  0.9130520E+02  0.7818608E-02  0.1299721E+00
          3   -1    0    0  501    0  0.00000000000E+00  0.00000000000E+00  0.13265360325E+03  0.13265364170E+03  0.10100000000E+00 0. -1.
         -3   -1    0    0    0  501 -0.00000000000E+00 -0.00000000000E+00 -0.15711092371E+02  0.15711417011E+02  0.10100000000E+00 0.  1.
         23    2    1    2    0    0  0.00000000000E+00  0.00000000000E+00  0.11694251088E+03  0.14836505872E+03  0.91305201363E+02 0.  0.
    9000005    2    3    3    0    0 -0.12681597089E+02  0.28406289400E+02  0.11192377279E+03  0.11685430001E+03  0.12659238996E+02 0.  0.
         22    1    3    3    0    0  0.12681597089E+02 -0.28406289400E+02  0.50187380886E+01  0.31510758706E+02  0.00000000000E+00 0.  1.
         22    1    4    4    0    0 -0.95310036618E+01  0.15297576647E+02  0.43005313664E+02  0.46629528042E+02  0.00000000000E+00 0.  1.
         22    1    4    4    0    0 -0.31505934268E+01  0.13108712754E+02  0.68918459130E+02  0.70224771967E+02  0.00000000000E+00 0.  1.
<mgrwt>
<rscale>  0 0.91305201E+02</rscale>
<asrwt>0</asrwt>
<pdfrwt beam="1">  1        3 0.20408274E-01 0.91305201E+02</pdfrwt>
<pdfrwt beam="2">  1       -3 0.24171191E-02 0.91305201E+02</pdfrwt>
<totfact> 0.31287668E+04</totfact>
</mgrwt>
</event>
<event>
 7    1  0.1312339E-009  0.9137441E+02  0.7818608E-02  0.1299557E+00
          3   -1    0    0  501    0  0.00000000000E+00  0.00000000000E+00  0.30406960772E+02  0.30407128512E+02  0.10100000000E+00 0. -1.
         -3   -1    0    0    0  501 -0.00000000000E+00 -0.00000000000E+00 -0.68645758299E+02  0.68645832601E+02  0.10100000000E+00 0.  1.
         23    2    1    2    0    0 -0.22204460493E-15 -0.35527136788E-14 -0.38238797527E+02  0.99052961113E+02  0.91374413645E+02 0.  0.
    9000005    2    3    3    0    0  0.14737520975E+01  0.31118596985E+02 -0.55072068934E+02  0.63642538215E+02  0.68484210108E+01 0.  0.
         22    1    3    3    0    0 -0.14737520975E+01 -0.31118596985E+02  0.16833271406E+02  0.35410422897E+02  0.00000000000E+00 0. -1.
         22    1    4    4    0    0  0.16749003392E+01  0.78982588375E+01 -0.92906057300E+01  0.12308661123E+02  0.00000000000E+00 0.  1.
         22    1    4    4    0    0 -0.20114824166E+00  0.23220338147E+02 -0.45781463203E+02  0.51333877092E+02  0.00000000000E+00 0.  1.
<mgrwt>
<rscale>  0 0.91374414E+02</rscale>
<asrwt>0</asrwt>
<pdfrwt beam="1">  1        3 0.46780126E-02 0.91374414E+02</pdfrwt>
<pdfrwt beam="2">  1       -3 0.10560904E-01 0.91374414E+02</pdfrwt>
<totfact> 0.34538141E+04</totfact>
</mgrwt>
</event>
<event>
 7    1  0.1312339E-009  0.9361129E+02  0.7818608E-02  0.1294335E+00
          3   -1    0    0  501    0  0.00000000000E+00  0.00000000000E+00  0.53386123720E+01  0.53395676846E+01  0.10100000000E+00 0. -1.
         -3   -1    0    0    0  501 -0.00000000000E+00 -0.00000000000E+00 -0.41032521932E+03  0.41032523175E+03  0.10100000000E+00 0.  1.
         23    2    1    2    0    0  0.00000000000E+00  0.00000000000E+00 -0.40498660695E+03  0.41566479943E+03  0.93611290355E+02 0.  0.
    9000005    2    3    3    0    0  0.33723949936E+02  0.25586396513E+02 -0.28509459903E+03  0.28851896958E+03  0.13126192441E+02 0.  0.
         22    1    3    3    0    0 -0.33723949936E+02 -0.25586396513E+02 -0.11989200792E+03  0.12714582985E+03  0.00000000000E+00 0. -1.
         22    1    4    4    0    0  0.73863118845E+01  0.12444771136E+02 -0.76353324060E+02  0.77712676102E+02  0.00000000000E+00 0. -1.
         22    1    4    4    0    0  0.26337638052E+02  0.13141625377E+02 -0.20874127497E+03  0.21080629348E+03  0.00000000000E+00 0. -1.
<mgrwt>
<rscale>  0 0.93611290E+02</rscale>
<asrwt>0</asrwt>
<pdfrwt beam="1">  1        3 0.82139974E-03 0.93611290E+02</pdfrwt>
<pdfrwt beam="2">  1       -3 0.63127006E-01 0.93611290E+02</pdfrwt>
<totfact> 0.18761638E+04</totfact>
</mgrwt>
</event>
<event>
 7    1  0.1312339E-009  0.9070442E+02  0.7818608E-02  0.1301155E+00
         -3   -1    0    0    0  501 -0.00000000000E+00  0.00000000000E+00  0.37465880555E+03  0.37465881916E+03  0.10100000000E+00 0.  1.
          3   -1    0    0  501    0  0.00000000000E+00 -0.00000000000E+00 -0.54893783201E+01  0.54903073995E+01  0.10100000000E+00 0. -1.
         23    2    1    2    0    0 -0.35527136788E-14  0.00000000000E+00  0.36916942723E+03  0.38014912656E+03  0.90704423406E+02 0.  0.
    9000005    2    3    3    0    0 -0.30208653765E+02 -0.13558822179E+01  0.32598526708E+03  0.32743031714E+03  0.54604992551E+01 0.  0.
         22    1    3    3    0    0  0.30208653765E+02  0.13558822179E+01  0.43184160149E+02  0.52718809420E+02  0.00000000000E+00 0. -1.
         22    1    4    4    0    0 -0.84044224846E+01  0.20519941696E+01  0.95177298428E+02  0.95569676851E+02  0.00000000000E+00 0. -1.
         22    1    4    4    0    0 -0.21804231280E+02 -0.34078763874E+01  0.23080796865E+03  0.23186064029E+03  0.00000000000E+00 0. -1.
<mgrwt>
<rscale>  0 0.90704423E+02</rscale>
<asrwt>0</asrwt>
<pdfrwt beam="2">  1        3 0.84459215E-03 0.90704423E+02</pdfrwt>
<pdfrwt beam="1">  1       -3 0.57639896E-01 0.90704423E+02</pdfrwt>
<totfact> 0.21511644E+04</totfact>
</mgrwt>
</event>
<event>
 7    1  0.1312339E-009  0.9142466E+02  0.7818608E-02  0.1299438E+00
          3   -1    0    0  501    0  0.00000000000E+00  0.00000000000E+00  0.18192291709E+02  0.18192572072E+02  0.10100000000E+00 0. -1.
         -3   -1    0    0    0  501 -0.00000000000E+00 -0.00000000000E+00 -0.11486157603E+03  0.11486162044E+03  0.10100000000E+00 0.  1.
         23    2    1    2    0    0 -0.35527136788E-14  0.00000000000E+00 -0.96669284325E+02  0.13305419251E+03  0.91424655389E+02 0.  0.
    9000005    2    3    3    0    0  0.27853608300E+02  0.33639203651E+02 -0.33974397584E+02  0.56646939315E+02  0.12132457496E+02 0.  0.
         22    1    3    3    0    0 -0.27853608300E+02 -0.33639203651E+02 -0.62694886741E+02  0.76407253197E+02  0.00000000000E+00 0. -1.
         22    1    4    4    0    0  0.10862494501E+02  0.73256988927E+01 -0.51426793488E+01  0.14075041809E+02  0.00000000000E+00 0. -1.
         22    1    4    4    0    0  0.16991113799E+02  0.26313504759E+02 -0.28831718235E+02  0.42571897505E+02  0.00000000000E+00 0. -1.
<mgrwt>
<rscale>  0 0.91424655E+02</rscale>
<asrwt>0</asrwt>
<pdfrwt beam="1">  1        3 0.27988392E-02 0.91424655E+02</pdfrwt>
<pdfrwt beam="2">  1       -3 0.17671036E-01 0.91424655E+02</pdfrwt>
<totfact> 0.32139738E+04</totfact>
</mgrwt>
</event>
<event>
 7    1  0.1312339E-009  0.9139285E+02  0.7818608E-02  0.1299513E+00
          3   -1    0    0  501    0  0.00000000000E+00  0.00000000000E+00  0.61529408726E+02  0.61529491621E+02  0.10100000000E+00 0. -1.
         -3   -1    0    0    0  501 -0.00000000000E+00 -0.00000000000E+00 -0.33937464068E+02  0.33937614359E+02  0.10100000000E+00 0.  1.
         23    2    1    2    0    0  0.00000000000E+00  0.00000000000E+00  0.27591944658E+02  0.95467105980E+02  0.91392849360E+02 0.  0.
    9000005    2    3    3    0    0  0.32474212122E+02 -0.21746832025E+02 -0.90873732155E+01  0.41867931399E+02  0.11951743454E+02 0.  0.
         22    1    3    3    0    0 -0.32474212122E+02  0.21746832025E+02  0.36679317873E+02  0.53599174581E+02  0.00000000000E+00 0. -1.
         22    1    4    4    0    0  0.29510416110E+02 -0.18332034540E+02 -0.38574177240E+01  0.34954367694E+02  0.00000000000E+00 0.  1.
         22    1    4    4    0    0  0.29637960120E+01 -0.34147974854E+01 -0.52299554915E+01  0.69135637055E+01  0.00000000000E+00 0.  1.
<mgrwt>
<rscale>  0 0.91392849E+02</rscale>
<asrwt>0</asrwt>
<pdfrwt beam="1">  1        3 0.94660807E-02 0.91392849E+02</pdfrwt>
<pdfrwt beam="2">  1       -3 0.52211663E-02 0.91392849E+02</pdfrwt>
<totfact> 0.34785618E+04</totfact>
</mgrwt>
</event>
<event>
 7    1  0.1312339E-009  0.9147237E+02  0.7818608E-02  0.1299325E+00
          3   -1    0    0  501    0  0.00000000000E+00  0.00000000000E+00  0.75092248589E+01  0.75099040595E+01  0.10100000000E+00 0. -1.
         -3   -1    0    0    0  501 -0.00000000000E+00 -0.00000000000E+00 -0.27855055217E+03  0.27855057048E+03  0.10100000000E+00 0.  1.
         23    2    1    2    0    0  0.17763568394E-14  0.00000000000E+00 -0.27104132731E+03  0.28606047454E+03  0.91472367323E+02 0.  0.
    9000005    2    3    3    0    0 -0.10684904050E+02  0.28848340151E+02 -0.24032382330E+03  0.24258681635E+03  0.12100806387E+02 0.  0.
         22    1    3    3    0    0  0.10684904050E+02 -0.28848340151E+02 -0.30717504007E+02  0.43473658190E+02  0.00000000000E+00 0. -1.
         22    1    4    4    0    0 -0.75173279267E+01  0.58398931086E+01 -0.85971938542E+02  0.86497333990E+02  0.00000000000E+00 0.  1.
         22    1    4    4    0    0 -0.31675761236E+01  0.23008447043E+02 -0.15435188476E+03  0.15608948236E+03  0.00000000000E+00 0.  1.
<mgrwt>
<rscale>  0 0.91472367E+02</rscale>
<asrwt>0</asrwt>
<pdfrwt beam="1">  1        3 0.11553192E-02 0.91472367E+02</pdfrwt>
<pdfrwt beam="2">  1       -3 0.42853977E-01 0.91472367E+02</pdfrwt>
<totfact> 0.24360997E+04</totfact>
</mgrwt>
</event>
<event>
 7    1  0.1312339E-009  0.9037981E+02  0.7818608E-02  0.1301935E+00
          3   -1    0    0  501    0  0.00000000000E+00  0.00000000000E+00  0.55112367117E+02  0.55112459665E+02  0.10100000000E+00 0. -1.
         -3   -1    0    0    0  501 -0.00000000000E+00 -0.00000000000E+00 -0.37053695515E+02  0.37053833166E+02  0.10100000000E+00 0.  1.
         23    2    1    2    0    0  0.00000000000E+00  0.00000000000E+00  0.18058671603E+02  0.92166292831E+02  0.90379809217E+02 0.  0.
    9000005    2    3    3    0    0  0.32957612595E+02  0.81688774265E+01 -0.19602935920E+02  0.41457995013E+02  0.13474252016E+02 0.  0.
         22    1    3    3    0    0 -0.32957612595E+02 -0.81688774265E+01  0.37661607523E+02  0.50708297818E+02  0.00000000000E+00 0. -1.
         22    1    4    4    0    0  0.15100200294E+02 -0.14221472897E+01 -0.34885596163E+01  0.15563052401E+02  0.00000000000E+00 0.  1.
         22    1    4    4    0    0  0.17857412301E+02  0.95910247163E+01 -0.16114376304E+02  0.25894942612E+02  0.00000000000E+00 0.  1.
<mgrwt>
<rscale>  0 0.90379809E+02</rscale>
<asrwt>0</asrwt>
<pdfrwt beam="1">  1        3 0.84788434E-02 0.90379809E+02</pdfrwt>
<pdfrwt beam="2">  1       -3 0.57005863E-02 0.90379809E+02</pdfrwt>
<totfact> 0.36114925E+04</totfact>
</mgrwt>
</event>
<event>
 7    1  0.1312339E-009  0.9454238E+02  0.7818608E-02  0.1292210E+00
         -3   -1    0    0    0  501 -0.00000000000E+00  0.00000000000E+00  0.11057573260E+03  0.11057577872E+03  0.10100000000E+00 0. -1.
          3   -1    0    0  501    0  0.00000000000E+00 -0.00000000000E+00 -0.20208284364E+02  0.20208536759E+02  0.10100000000E+00 0.  1.
         23    2    1    2    0    0  0.00000000000E+00  0.00000000000E+00  0.90367448234E+02  0.13078431548E+03  0.94542379260E+02 0.  0.
    9000005    2    3    3    0    0  0.38864698128E+02 -0.16258093367E+02  0.19174988091E+02  0.48060940663E+02  0.12937677094E+02 0.  0.
         22    1    3    3    0    0 -0.38864698128E+02  0.16258093367E+02  0.71192460144E+02  0.82723374821E+02  0.00000000000E+00 0. -1.
         22    1    4    4    0    0  0.19098063039E+01  0.10256334796E+01  0.39687788526E+01  0.45222217696E+01  0.00000000000E+00 0. -1.
         22    1    4    4    0    0  0.36954891824E+02 -0.17283726847E+02  0.15206209238E+02  0.43538718893E+02  0.00000000000E+00 0. -1.
<mgrwt>
<rscale>  0 0.94542379E+02</rscale>
<asrwt>0</asrwt>
<pdfrwt beam="2">  1        3 0.31089897E-02 0.94542379E+02</pdfrwt>
<pdfrwt beam="1">  1       -3 0.17011674E-01 0.94542379E+02</pdfrwt>
<totfact> 0.29469058E+04</totfact>
</mgrwt>
</event>
<event>
 7    1  0.1312339E-009  0.9131653E+02  0.7818608E-02  0.1299694E+00
         -3   -1    0    0    0  501 -0.00000000000E+00  0.00000000000E+00  0.28927460303E+03  0.28927462066E+03  0.10100000000E+00 0.  1.
          3   -1    0    0  501    0  0.00000000000E+00 -0.00000000000E+00 -0.72061966396E+01  0.72069043984E+01  0.10100000000E+00 0. -1.
         23    2    1    2    0    0 -0.35527136788E-14  0.00000000000E+00  0.28206840639E+03  0.29648152506E+03  0.91316530915E+02 0.  0.
    9000005    2    3    3    0    0  0.26737200333E+02  0.17770172247E+02  0.24627761202E+03  0.24840202980E+03  0.44999243727E+01 0.  0.
         22    1    3    3    0    0 -0.26737200333E+02 -0.17770172247E+02  0.35790794362E+02  0.48079495260E+02  0.00000000000E+00 0. -1.
         22    1    4    4    0    0  0.42083883590E+01  0.47822702987E+01  0.53740249988E+02  0.54116495735E+02  0.00000000000E+00 0. -1.
         22    1    4    4    0    0  0.22528811974E+02  0.12987901948E+02  0.19253736204E+03  0.19428553406E+03  0.00000000000E+00 0. -1.
<mgrwt>
<rscale>  0 0.91316531E+02</rscale>
<asrwt>0</asrwt>
<pdfrwt beam="2">  1        3 0.11087013E-02 0.91316531E+02</pdfrwt>
<pdfrwt beam="1">  1       -3 0.44503848E-01 0.91316531E+02</pdfrwt>
<totfact> 0.24061271E+04</totfact>
</mgrwt>
</event>
<event>
 7    1  0.1312339E-009  0.9047618E+02  0.7818608E-02  0.1301703E+00
         -3   -1    0    0    0  501 -0.00000000000E+00  0.00000000000E+00  0.50231923871E+01  0.50242076746E+01  0.10100000000E+00 0.  1.
          3   -1    0    0  501    0  0.00000000000E+00 -0.00000000000E+00 -0.40736497623E+03  0.40736498875E+03  0.10100000000E+00 0. -1.
         23    2    1    2    0    0  0.00000000000E+00  0.17763568394E-14 -0.40234178384E+03  0.41238919643E+03  0.90476175330E+02 0.  0.
    9000005    2    3    3    0    0  0.81189727192E+01 -0.13983164002E+02 -0.39357990891E+03  0.39399851819E+03  0.82608139463E+01 0.  0.
         22    1    3    3    0    0 -0.81189727192E+01  0.13983164002E+02 -0.87618749338E+01  0.18390678233E+02  0.00000000000E+00 0.  1.
         22    1    4    4    0    0  0.16910106336E+01 -0.15494748252E+01 -0.16468818352E+02  0.16627758932E+02  0.00000000000E+00 0. -1.
         22    1    4    4    0    0  0.64279620856E+01 -0.12433689177E+02 -0.37711109056E+03  0.37737075926E+03  0.00000000000E+00 0. -1.
<mgrwt>
<rscale>  0 0.90476175E+02</rscale>
<asrwt>0</asrwt>
<pdfrwt beam="2">  1        3 0.62671588E-01 0.90476175E+02</pdfrwt>
<pdfrwt beam="1">  1       -3 0.77287821E-03 0.90476175E+02</pdfrwt>
<totfact> 0.20667526E+04</totfact>
</mgrwt>
</event>
<event>
 7    1  0.1312339E-009  0.9016259E+02  0.7818608E-02  0.1302458E+00
          3   -1    0    0  501    0  0.00000000000E+00  0.00000000000E+00  0.74454402424E+03  0.74454403109E+03  0.10100000000E+00 0. -1.
         -3   -1    0    0    0  501 -0.00000000000E+00 -0.00000000000E+00 -0.27286802082E+01  0.27305487871E+01  0.10100000000E+00 0.  1.
         23    2    1    2    0    0  0.35527136788E-14  0.71054273576E-14  0.74181534403E+03  0.74727457987E+03  0.90162592522E+02 0.  0.
    9000005    2    3    3    0    0 -0.29117436662E+02 -0.29521969706E+02  0.49618901285E+03  0.49817286093E+03  0.15915121125E+02 0.  0.
         22    1    3    3    0    0  0.29117436662E+02  0.29521969706E+02  0.24562633117E+03  0.24910171894E+03  0.00000000000E+00 0. -1.
         22    1    4    4    0    0 -0.23307724035E+02 -0.26511342754E+02  0.33577803531E+03  0.33762847968E+03  0.00000000000E+00 0. -1.
         22    1    4    4    0    0 -0.58097126270E+01 -0.30106269522E+01  0.16041097754E+03  0.16054438125E+03  0.00000000000E+00 0. -1.
<mgrwt>
<rscale>  0 0.90162593E+02</rscale>
<asrwt>0</asrwt>
<pdfrwt beam="1">  1        3 0.11454553E+00 0.90162593E+02</pdfrwt>
<pdfrwt beam="2">  1       -3 0.41994068E-03 0.90162593E+02</pdfrwt>
<totfact> 0.13571318E+04</totfact>
</mgrwt>
</event>
<event>
 7    1  0.1312339E-009  0.1016381E+03  0.7818608E-02  0.1276889E+00
          3   -1    0    0  501    0  0.00000000000E+00  0.00000000000E+00  0.18066070945E+03  0.18066073768E+03  0.10100000000E+00 0. -1.
         -3   -1    0    0    0  501 -0.00000000000E+00 -0.00000000000E+00 -0.14294956620E+02  0.14295313420E+02  0.10100000000E+00 0.  1.
         23    2    1    2    0    0 -0.71054273576E-14  0.00000000000E+00  0.16636575283E+03  0.19495605110E+03  0.10163807430E+03 0.  0.
    9000005    2    3    3    0    0  0.33612036234E+02 -0.24262408591E+02  0.13742709482E+03  0.14440034541E+03  0.15710503274E+02 0.  0.
         22    1    3    3    0    0 -0.33612036234E+02  0.24262408591E+02  0.28938658003E+02  0.50555705686E+02  0.00000000000E+00 0.  1.
         22    1    4    4    0    0  0.17154375949E+02 -0.31227459802E+01  0.59084795343E+02  0.61603873233E+02  0.00000000000E+00 0.  1.
         22    1    4    4    0    0  0.16457660286E+02 -0.21139662611E+02  0.78342299481E+02  0.82796472179E+02  0.00000000000E+00 0.  1.
<mgrwt>
<rscale>  0 0.10163807E+03</rscale>
<asrwt>0</asrwt>
<pdfrwt beam="1">  1        3 0.27793985E-01 0.10163807E+03</pdfrwt>
<pdfrwt beam="2">  1       -3 0.21992537E-02 0.10163807E+03</pdfrwt>
<totfact> 0.21407429E+04</totfact>
</mgrwt>
</event>
<event>
 7    1  0.1312339E-009  0.9299826E+02  0.7818608E-02  0.1295749E+00
         -3   -1    0    0    0  501 -0.00000000000E+00  0.00000000000E+00  0.40968505083E+01  0.40980952999E+01  0.10100000000E+00 0. -1.
          3   -1    0    0  501    0  0.00000000000E+00 -0.00000000000E+00 -0.52768231179E+03  0.52768232146E+03  0.10100000000E+00 0.  1.
         23    2    1    2    0    0  0.00000000000E+00  0.00000000000E+00 -0.52358546129E+03  0.53178041676E+03  0.92998260088E+02 0.  0.
    9000005    2    3    3    0    0 -0.12407037619E+02 -0.24030041521E+02 -0.47781864709E+03  0.47862048110E+03  0.59605319379E+01 0.  0.
         22    1    3    3    0    0  0.12407037619E+02  0.24030041521E+02 -0.45766814192E+02  0.53159935659E+02  0.00000000000E+00 0. -1.
         22    1    4    4    0    0 -0.72081154617E+01 -0.80038936831E+01 -0.16962121050E+03  0.16996286151E+03  0.00000000000E+00 0.  1.
         22    1    4    4    0    0 -0.51989221571E+01 -0.16026147838E+02 -0.30819743660E+03  0.30865761959E+03  0.00000000000E+00 0.  1.
<mgrwt>
<rscale>  0 0.92998260E+02</rscale>
<asrwt>0</asrwt>
<pdfrwt beam="2">  1        3 0.81181937E-01 0.92998260E+02</pdfrwt>
<pdfrwt beam="1">  1       -3 0.63038161E-03 0.92998260E+02</pdfrwt>
<totfact> 0.16284465E+04</totfact>
</mgrwt>
</event>
<event>
 7    1  0.1312339E-009  0.9066128E+02  0.7818608E-02  0.1301258E+00
         -3   -1    0    0    0  501 -0.00000000000E+00  0.00000000000E+00  0.11651125061E+03  0.11651129439E+03  0.10100000000E+00 0.  1.
          3   -1    0    0  501    0  0.00000000000E+00 -0.00000000000E+00 -0.17636447906E+02  0.17636737105E+02  0.10100000000E+00 0. -1.
         23    2    1    2    0    0  0.00000000000E+00  0.00000000000E+00  0.98874802707E+02  0.13414803149E+03  0.90661280288E+02 0.  0.
    9000005    2    3    3    0    0 -0.41114044552E+02 -0.11021784820E+02  0.31777232656E+02  0.54687800519E+02  0.13004561132E+02 0.  0.
         22    1    3    3    0    0  0.41114044552E+02  0.11021784820E+02  0.67097570051E+02  0.79460230976E+02  0.00000000000E+00 0.  1.
         22    1    4    4    0    0 -0.12550079673E+02 -0.62224743365E+00  0.16285764812E+02  0.20569828078E+02  0.00000000000E+00 0.  1.
         22    1    4    4    0    0 -0.28563964879E+02 -0.10399537387E+02  0.15491467844E+02  0.34117972440E+02  0.00000000000E+00 0.  1.
<mgrwt>
<rscale>  0 0.90661280E+02</rscale>
<asrwt>0</asrwt>
<pdfrwt beam="2">  1        3 0.27133253E-02 0.90661280E+02</pdfrwt>
<pdfrwt beam="1">  1       -3 0.17924834E-01 0.90661280E+02</pdfrwt>
<totfact> 0.32806701E+04</totfact>
</mgrwt>
</event>
<event>
 6    1  0.1312339E-009  0.1887003E+03  0.7818608E-02  0.1159639E+00
         -3   -1    0    0    0  501 -0.00000000000E+00  0.00000000000E+00  0.23464918403E+03  0.23464920577E+03  0.10100000000E+00 0.  1.
          3   -1    0    0  501    0  0.00000000000E+00 -0.00000000000E+00 -0.37937197008E+02  0.37937331454E+02  0.10100000000E+00 0. -1.
    9000005    2    1    2    0    0 -0.67242779463E+02  0.64463972904E+02  0.81364990135E+02  0.12432283673E+03  0.12598052241E+02 0.  0.
         22    1    1    2    0    0  0.67242779463E+02 -0.64463972904E+02  0.11534699689E+03  0.14826370049E+03  0.00000000000E+00 0. -1.
         22    1    3    3    0    0 -0.49384950008E+02  0.54507832651E+02  0.63402016702E+02  0.97107120385E+02  0.00000000000E+00 0. -1.
         22    1    3    3    0    0 -0.17857829454E+02  0.99561402531E+01  0.17962973433E+02  0.27215716344E+02  0.00000000000E+00 0. -1.
<mgrwt>
<rscale>  0 0.18870033E+03</rscale>
<asrwt>0</asrwt>
<pdfrwt beam="2">  1        3 0.58365040E-02 0.18870033E+03</pdfrwt>
<pdfrwt beam="1">  1       -3 0.36099886E-01 0.18870033E+03</pdfrwt>
<totfact> 0.32589278E+03</totfact>
</mgrwt>
</event>
<event>
 7    1  0.1312339E-009  0.1000578E+03  0.7818608E-02  0.1280174E+00
          3   -1    0    0  501    0  0.00000000000E+00  0.00000000000E+00  0.13018932860E+03  0.13018936778E+03  0.10100000000E+00 0. -1.
         -3   -1    0    0    0  501 -0.00000000000E+00 -0.00000000000E+00 -0.19224851346E+02  0.19225116652E+02  0.10100000000E+00 0.  1.
         23    2    1    2    0    0  0.35527136788E-14  0.00000000000E+00  0.11096447726E+03  0.14941448443E+03  0.10005784799E+03 0.  0.
    9000005    2    3    3    0    0  0.18281495863E+02 -0.31559908475E+02  0.10650673327E+03  0.11267060882E+03  0.45542226610E+01 0.  0.
         22    1    3    3    0    0 -0.18281495863E+02  0.31559908475E+02  0.44577439818E+01  0.36743875617E+02  0.00000000000E+00 0.  1.
         22    1    4    4    0    0  0.13191555791E+02 -0.18355923477E+02  0.65287519445E+02  0.69089921596E+02  0.00000000000E+00 0. -1.
         22    1    4    4    0    0  0.50899400717E+01 -0.13203984998E+02  0.41219213829E+02  0.43580687219E+02  0.00000000000E+00 0. -1.
<mgrwt>
<rscale>  0 0.10005785E+03</rscale>
<asrwt>0</asrwt>
<pdfrwt beam="1">  1        3 0.20029150E-01 0.10005785E+03</pdfrwt>
<pdfrwt beam="2">  1       -3 0.29576929E-02 0.10005785E+03</pdfrwt>
<totfact> 0.24327632E+04</totfact>
</mgrwt>
</event>
<event>
 7    1  0.1312339E-009  0.1010654E+03  0.7818608E-02  0.1278071E+00
          3   -1    0    0  501    0  0.00000000000E+00  0.00000000000E+00  0.58665578403E+02  0.58665665345E+02  0.10100000000E+00 0. -1.
         -3   -1    0    0    0  501 -0.00000000000E+00 -0.00000000000E+00 -0.43527101652E+02  0.43527218831E+02  0.10100000000E+00 0.  1.
         23    2    1    2    0    0  0.00000000000E+00  0.00000000000E+00  0.15138476751E+02  0.10219288418E+03  0.10106538526E+03 0.  0.
    9000005    2    3    3    0    0  0.85247018153E+01  0.25284911116E+02  0.50689483366E+02  0.57742109801E+02  0.72615596947E+01 0.  0.
         22    1    3    3    0    0 -0.85247018153E+01 -0.25284911116E+02 -0.35551006615E+02  0.44450774375E+02  0.00000000000E+00 0.  1.
         22    1    4    4    0    0  0.84814359597E+00  0.16586301793E+01  0.91776632595E+01  0.93648227178E+01  0.00000000000E+00 0.  1.
         22    1    4    4    0    0  0.76765582193E+01  0.23626280937E+02  0.41511820107E+02  0.48377287084E+02  0.00000000000E+00 0.  1.
<mgrwt>
<rscale>  0 0.10106539E+03</rscale>
<asrwt>0</asrwt>
<pdfrwt beam="1">  1        3 0.90254893E-02 0.10106539E+03</pdfrwt>
<pdfrwt beam="2">  1       -3 0.66964929E-02 0.10106539E+03</pdfrwt>
<totfact> 0.26024656E+04</totfact>
</mgrwt>
</event>
<event>
 7    1  0.1312339E-009  0.9352125E+02  0.7818608E-02  0.1294542E+00
         -3   -1    0    0    0  501 -0.00000000000E+00  0.00000000000E+00  0.79942283828E+01  0.79948663801E+01  0.10100000000E+00 0.  1.
          3   -1    0    0  501    0  0.00000000000E+00 -0.00000000000E+00 -0.27350526020E+03  0.27350527884E+03  0.10100000000E+00 0. -1.
         23    2    1    2    0    0  0.00000000000E+00  0.17763568394E-14 -0.26551103181E+03  0.28150014522E+03  0.93521247570E+02 0.  0.
    9000005    2    3    3    0    0  0.34458487551E+02 -0.86916389974E+01 -0.50988737729E+02  0.64054182715E+02  0.15496935028E+02 0.  0.
         22    1    3    3    0    0 -0.34458487551E+02  0.86916389974E+01 -0.21452229408E+03  0.21744596251E+03  0.00000000000E+00 0. -1.
         22    1    4    4    0    0  0.26222703295E+01 -0.62796782408E+01 -0.79243806287E+01  0.10445404197E+02  0.00000000000E+00 0. -1.
         22    1    4    4    0    0  0.31836217222E+02 -0.24119607565E+01 -0.43064357100E+02  0.53608778518E+02  0.00000000000E+00 0. -1.
<mgrwt>
<rscale>  0 0.93521248E+02</rscale>
<asrwt>0</asrwt>
<pdfrwt beam="2">  1        3 0.42077776E-01 0.93521248E+02</pdfrwt>
<pdfrwt beam="1">  1       -3 0.12299320E-02 0.93521248E+02</pdfrwt>
<totfact> 0.23128205E+04</totfact>
</mgrwt>
</event>
<event>
 7    1  0.1312339E-009  0.9120992E+02  0.7818608E-02  0.1299948E+00
         -3   -1    0    0    0  501 -0.00000000000E+00  0.00000000000E+00  0.13577256714E+02  0.13577632374E+02  0.10100000000E+00 0.  1.
          3   -1    0    0  501    0  0.00000000000E+00 -0.00000000000E+00 -0.15318102482E+03  0.15318105812E+03  0.10100000000E+00 0. -1.
         23    2    1    2    0    0  0.00000000000E+00  0.00000000000E+00 -0.13960376811E+03  0.16675869049E+03  0.91209916044E+02 0.  0.
    9000005    2    3    3    0    0 -0.32681103423E+02  0.22450982634E+02 -0.11079118874E+03  0.11774577513E+03  0.41567916834E+01 0.  0.
         22    1    3    3    0    0  0.32681103423E+02 -0.22450982634E+02 -0.28812579366E+02  0.49012915358E+02  0.00000000000E+00 0.  1.
         22    1    4    4    0    0 -0.34126729367E+01  0.15788533611E+01 -0.77538005066E+01  0.86174553556E+01  0.00000000000E+00 0. -1.
         22    1    4    4    0    0 -0.29268430486E+02  0.20872129272E+02 -0.10303738823E+03  0.10912831978E+03  0.00000000000E+00 0. -1.
<mgrwt>
<rscale>  0 0.91209916E+02</rscale>
<asrwt>0</asrwt>
<pdfrwt beam="2">  1        3 0.23566342E-01 0.91209916E+02</pdfrwt>
<pdfrwt beam="1">  1       -3 0.20888403E-02 0.91209916E+02</pdfrwt>
<totfact> 0.30282453E+04</totfact>
</mgrwt>
</event>
<event>
 6    1  0.1625802E-009  0.2530981E+03  0.7818608E-02  0.1111362E+00
         -3   -1    0    0    0  501 -0.00000000000E+00  0.00000000000E+00  0.42678778959E+03  0.42678780154E+03  0.10100000000E+00 0.  1.
          3   -1    0    0  501    0  0.00000000000E+00 -0.00000000000E+00 -0.37523618185E+02  0.37523754112E+02  0.10100000000E+00 0. -1.
    9000005    2    1    2    0    0 -0.12333333212E+03  0.10333535076E+02  0.24001745832E+03  0.27042376820E+03  0.14238727031E+02 0.  0.
         22    1    1    2    0    0  0.12333333212E+03 -0.10333535076E+02  0.14924671308E+03  0.19388778746E+03  0.00000000000E+00 0. -1.
         22    1    3    3    0    0 -0.12140925820E+03  0.81825142428E+01  0.23498143841E+03  0.26461942089E+03  0.00000000000E+00 0. -1.
         22    1    3    3    0    0 -0.19240739151E+01  0.21510208334E+01  0.50360199167E+01  0.58043473068E+01  0.00000000000E+00 0. -1.
<mgrwt>
<rscale>  0 0.25309806E+03</rscale>
<asrwt>0</asrwt>
<pdfrwt beam="2">  1        3 0.57728757E-02 0.25309806E+03</pdfrwt>
<pdfrwt beam="1">  1       -3 0.65659671E-01 0.25309806E+03</pdfrwt>
<totfact> 0.10401097E+03</totfact>
</mgrwt>
</event>
<event>
 7    1  0.1312339E-009  0.9044392E+02  0.7818608E-02  0.1301780E+00
          3   -1    0    0  501    0  0.00000000000E+00  0.00000000000E+00  0.50687019112E+01  0.50697080848E+01  0.10100000000E+00 0. -1.
         -3   -1    0    0    0  501 -0.00000000000E+00 -0.00000000000E+00 -0.40342039422E+03  0.40342040687E+03  0.10100000000E+00 0.  1.
         23    2    1    2    0    0  0.17763568394E-14 -0.35527136788E-14 -0.39835169231E+03  0.40849011495E+03  0.90443923206E+02 0.  0.
    9000005    2    3    3    0    0 -0.14107287891E+02  0.22507254957E+02 -0.36320233259E+03  0.36443254368E+03  0.13767802956E+02 0.  0.
         22    1    3    3    0    0  0.14107287891E+02 -0.22507254957E+02 -0.35149359724E+02  0.44057571272E+02  0.00000000000E+00 0. -1.
         22    1    4    4    0    0 -0.88869217634E+01  0.13325152671E+02 -0.29327101072E+03  0.29370805709E+03  0.00000000000E+00 0.  1.
         22    1    4    4    0    0 -0.52203661278E+01  0.91821022850E+01 -0.69931321874E+02  0.70724486593E+02  0.00000000000E+00 0.  1.
<mgrwt>
<rscale>  0 0.90443923E+02</rscale>
<asrwt>0</asrwt>
<pdfrwt beam="1">  1        3 0.77987898E-03 0.90443923E+02</pdfrwt>
<pdfrwt beam="2">  1       -3 0.62064729E-01 0.90443923E+02</pdfrwt>
<totfact> 0.20789130E+04</totfact>
</mgrwt>
</event>
<event>
 7    1  0.1312339E-009  0.9148749E+02  0.7818608E-02  0.1299289E+00
          3   -1    0    0  501    0  0.00000000000E+00  0.00000000000E+00  0.46061505479E+02  0.46061616211E+02  0.10100000000E+00 0. -1.
         -3   -1    0    0    0  501 -0.00000000000E+00 -0.00000000000E+00 -0.45427952186E+02  0.45428064463E+02  0.10100000000E+00 0.  1.
         23    2    1    2    0    0  0.17763568394E-14  0.00000000000E+00  0.63355329226E+00  0.91489680674E+02  0.91487487014E+02 0.  0.
    9000005    2    3    3    0    0  0.13319321498E+02  0.14673073964E+02  0.40736993338E+02  0.46757261466E+02  0.11577367961E+02 0.  0.
         22    1    3    3    0    0 -0.13319321498E+02 -0.14673073964E+02 -0.40103440045E+02  0.44732419208E+02  0.00000000000E+00 0.  1.
         22    1    4    4    0    0  0.12994138747E+02  0.15970964176E+02  0.32933285546E+02  0.38839678620E+02  0.00000000000E+00 0.  1.
         22    1    4    4    0    0  0.32518275066E+00 -0.12978902116E+01  0.78037077920E+01  0.79175828461E+01  0.00000000000E+00 0.  1.
<mgrwt>
<rscale>  0 0.91487487E+02</rscale>
<asrwt>0</asrwt>
<pdfrwt beam="1">  1        3 0.70864026E-02 0.91487487E+02</pdfrwt>
<pdfrwt beam="2">  1       -3 0.69889329E-02 0.91487487E+02</pdfrwt>
<totfact> 0.34988084E+04</totfact>
</mgrwt>
</event>
<event>
 7    1  0.1312339E-009  0.8995660E+02  0.7818608E-02  0.1302957E+00
          3   -1    0    0  501    0  0.00000000000E+00  0.00000000000E+00  0.34404704485E+02  0.34404852735E+02  0.10100000000E+00 0. -1.
         -3   -1    0    0    0  501 -0.00000000000E+00 -0.00000000000E+00 -0.58801154358E+02  0.58801241100E+02  0.10100000000E+00 0.  1.
         23    2    1    2    0    0  0.00000000000E+00 -0.44408920985E-15 -0.24396449873E+02  0.93206093835E+02  0.89956595987E+02 0.  0.
    9000005    2    3    3    0    0  0.30421491751E+02  0.29896461190E+01 -0.45010779505E+02  0.56336652146E+02  0.14609687168E+02 0.  0.
         22    1    3    3    0    0 -0.30421491751E+02 -0.29896461190E+01  0.20614329632E+02  0.36869441689E+02  0.00000000000E+00 0. -1.
         22    1    4    4    0    0  0.90048399278E+01 -0.30868704899E+01 -0.55218607699E+01  0.11004856106E+02  0.00000000000E+00 0.  1.
         22    1    4    4    0    0  0.21416651823E+02  0.60765166089E+01 -0.39488918735E+02  0.45331796041E+02  0.00000000000E+00 0.  1.
<mgrwt>
<rscale>  0 0.89956596E+02</rscale>
<asrwt>0</asrwt>
<pdfrwt beam="1">  1        3 0.52930495E-02 0.89956596E+02</pdfrwt>
<pdfrwt beam="2">  1       -3 0.90463495E-02 0.89956596E+02</pdfrwt>
<totfact> 0.36496362E+04</totfact>
</mgrwt>
</event>
<event>
 7    1  0.1312339E-009  0.9126813E+02  0.7818608E-02  0.1299809E+00
         -3   -1    0    0    0  501 -0.00000000000E+00  0.00000000000E+00  0.52834720414E+02  0.52834816950E+02  0.10100000000E+00 0.  1.
          3   -1    0    0  501    0  0.00000000000E+00 -0.00000000000E+00 -0.39414560198E+02  0.39414689604E+02  0.10100000000E+00 0. -1.
         23    2    1    2    0    0  0.00000000000E+00  0.00000000000E+00  0.13420160216E+02  0.92249506554E+02  0.91268125648E+02 0.  0.
    9000005    2    3    3    0    0 -0.20572473723E+02 -0.22421974680E+02 -0.27105595879E+02  0.41571024625E+02  0.82137163815E+01 0.  0.
         22    1    3    3    0    0  0.20572473723E+02  0.22421974680E+02  0.40525756094E+02  0.50678481929E+02  0.00000000000E+00 0.  1.
         22    1    4    4    0    0 -0.14657999673E+02 -0.10469258267E+02 -0.17685060390E+02  0.25243289882E+02  0.00000000000E+00 0. -1.
         22    1    4    4    0    0 -0.59144740500E+01 -0.11952716413E+02 -0.94205354882E+01  0.16327734742E+02  0.00000000000E+00 0. -1.
<mgrwt>
<rscale>  0 0.91268126E+02</rscale>
<asrwt>0</asrwt>
<pdfrwt beam="2">  1        3 0.60637959E-02 0.91268126E+02</pdfrwt>
<pdfrwt beam="1">  1       -3 0.81284359E-02 0.91268126E+02</pdfrwt>
<totfact> 0.35160938E+04</totfact>
</mgrwt>
</event>
<event>
 7    1  0.1312339E-009  0.9167018E+02  0.7818608E-02  0.1298857E+00
         -3   -1    0    0    0  501 -0.00000000000E+00  0.00000000000E+00  0.25185007537E+03  0.25185009562E+03  0.10100000000E+00 0.  1.
          3   -1    0    0  501    0  0.00000000000E+00 -0.00000000000E+00 -0.83413650492E+01  0.83419764975E+01  0.10100000000E+00 0. -1.
         23    2    1    2    0    0  0.00000000000E+00  0.00000000000E+00  0.24350871032E+03  0.26019207212E+03  0.91670182675E+02 0.  0.
    9000005    2    3    3    0    0  0.21083075398E+02  0.13364461842E+02  0.23013113014E+03  0.23187132778E+03  0.13448816878E+02 0.  0.
         22    1    3    3    0    0 -0.21083075398E+02 -0.13364461842E+02  0.13377580173E+02  0.28320744338E+02  0.00000000000E+00 0. -1.
         22    1    4    4    0    0  0.72734017361E+01 -0.21493220624E+01  0.62060984730E+02  0.62522698149E+02  0.00000000000E+00 0.  1.
         22    1    4    4    0    0  0.13809673662E+02  0.15513783905E+02  0.16807014541E+03  0.16934862963E+03  0.00000000000E+00 0.  1.
<mgrwt>
<rscale>  0 0.91670183E+02</rscale>
<asrwt>0</asrwt>
<pdfrwt beam="2">  1        3 0.12833354E-02 0.91670183E+02</pdfrwt>
<pdfrwt beam="1">  1       -3 0.38746219E-01 0.91670183E+02</pdfrwt>
<totfact> 0.25282585E+04</totfact>
</mgrwt>
</event>
<event>
 7    1  0.1312339E-009  0.9076635E+02  0.7818608E-02  0.1301006E+00
          3   -1    0    0  501    0  0.00000000000E+00  0.00000000000E+00  0.19668245488E+03  0.19668248081E+03  0.10100000000E+00 0. -1.
         -3   -1    0    0    0  501 -0.00000000000E+00 -0.00000000000E+00 -0.10471596574E+02  0.10472083642E+02  0.10100000000E+00 0.  1.
         23    2    1    2    0    0  0.00000000000E+00  0.00000000000E+00  0.18621085831E+03  0.20715456446E+03  0.90766347417E+02 0.  0.
    9000005    2    3    3    0    0 -0.27192129798E+02 -0.33948440553E+02  0.11711387412E+03  0.12550714097E+03  0.12019749701E+02 0.  0.
         22    1    3    3    0    0  0.27192129798E+02  0.33948440553E+02  0.69096984182E+02  0.81647423486E+02  0.00000000000E+00 0. -1.
         22    1    4    4    0    0 -0.16500621337E+02 -0.28941434976E+02  0.87334243028E+02  0.93472708147E+02  0.00000000000E+00 0. -1.
         22    1    4    4    0    0 -0.10691508461E+02 -0.50070055764E+01  0.29779631096E+02  0.32034432822E+02  0.00000000000E+00 0. -1.
<mgrwt>
<rscale>  0 0.90766347E+02</rscale>
<asrwt>0</asrwt>
<pdfrwt beam="1">  1        3 0.30258875E-01 0.90766347E+02</pdfrwt>
<pdfrwt beam="2">  1       -3 0.16110545E-02 0.90766347E+02</pdfrwt>
<totfact> 0.28477004E+04</totfact>
</mgrwt>
</event>
<event>
 7    1  0.1312339E-009  0.9255645E+02  0.7818608E-02  0.1296776E+00
         -3   -1    0    0    0  501 -0.00000000000E+00  0.00000000000E+00  0.23534641238E+02  0.23534857960E+02  0.10100000000E+00 0.  1.
          3   -1    0    0  501    0  0.00000000000E+00 -0.00000000000E+00 -0.91000258454E+02  0.91000314503E+02  0.10100000000E+00 0. -1.
         23    2    1    2    0    0 -0.17763568394E-14  0.00000000000E+00 -0.67465617216E+02  0.11453517246E+03  0.92556448855E+02 0.  0.
    9000005    2    3    3    0    0  0.12937996161E+02  0.19014955885E+02 -0.83001656667E+02  0.86780374431E+02  0.10611224480E+02 0.  0.
         22    1    3    3    0    0 -0.12937996161E+02 -0.19014955885E+02  0.15536039451E+02  0.27754798032E+02  0.00000000000E+00 0.  1.
         22    1    4    4    0    0  0.92539618501E+01  0.14470649706E+02 -0.42204808143E+02  0.45566230294E+02  0.00000000000E+00 0. -1.
         22    1    4    4    0    0  0.36840343109E+01  0.45443061794E+01 -0.40796848524E+02  0.41214144137E+02  0.00000000000E+00 0. -1.
<mgrwt>
<rscale>  0 0.92556449E+02</rscale>
<asrwt>0</asrwt>
<pdfrwt beam="2">  1        3 0.14000061E-01 0.92556449E+02</pdfrwt>
<pdfrwt beam="1">  1       -3 0.36207351E-02 0.92556449E+02</pdfrwt>
<totfact> 0.32276595E+04</totfact>
</mgrwt>
</event>
<event>
 7    1  0.1312339E-009  0.1139059E+03  0.7818608E-02  0.1253503E+00
          3   -1    0    0  501    0  0.00000000000E+00  0.00000000000E+00  0.74987800291E+03  0.74987800971E+03  0.10100000000E+00 0.  1.
         -3   -1    0    0    0  501 -0.00000000000E+00 -0.00000000000E+00 -0.43249609646E+01  0.43261401208E+01  0.10100000000E+00 0. -1.
         23    2    1    2    0    0  0.88817841970E-15  0.71054273576E-14  0.74555304195E+03  0.75420414984E+03  0.11390593167E+03 0.  0.
    9000005    2    3    3    0    0  0.40373610285E+01  0.50172337784E+02  0.54164364698E+03  0.54417413979E+03  0.14631826315E+02 0.  0.
         22    1    3    3    0    0 -0.40373610285E+01 -0.50172337784E+02  0.20390939497E+03  0.21003001005E+03  0.00000000000E+00 0. -1.
         22    1    4    4    0    0 -0.95034059043E+00  0.34871148252E+02  0.42437247482E+03  0.42580382515E+03  0.00000000000E+00 0.  1.
         22    1    4    4    0    0  0.49877016189E+01  0.15301189532E+02  0.11727117216E+03  0.11837031464E+03  0.00000000000E+00 0.  1.
<mgrwt>
<rscale>  0 0.11390593E+03</rscale>
<asrwt>0</asrwt>
<pdfrwt beam="1">  1        3 0.11536583E+00 0.11390593E+03</pdfrwt>
<pdfrwt beam="2">  1       -3 0.66547047E-03 0.11390593E+03</pdfrwt>
<totfact> 0.71780872E+03</totfact>
</mgrwt>
</event>
<event>
 7    1  0.1312339E-009  0.9158876E+02  0.7818608E-02  0.1299049E+00
          3   -1    0    0  501    0  0.00000000000E+00  0.00000000000E+00  0.23798663670E+02  0.23798877988E+02  0.10100000000E+00 0. -1.
         -3   -1    0    0    0  501 -0.00000000000E+00 -0.00000000000E+00 -0.88118809555E+02  0.88118867437E+02  0.10100000000E+00 0.  1.
         23    2    1    2    0    0  0.00000000000E+00  0.00000000000E+00 -0.64320145885E+02  0.11191774542E+03  0.91588757904E+02 0.  0.
    9000005    2    3    3    0    0 -0.22773719180E+02  0.36129768712E+02 -0.51338668628E+02  0.67280079444E+02  0.81821587097E+01 0.  0.
         22    1    3    3    0    0  0.22773719180E+02 -0.36129768712E+02 -0.12981477258E+02  0.44637665981E+02  0.00000000000E+00 0.  1.
         22    1    4    4    0    0 -0.17562375602E+02  0.22884633704E+02 -0.38527874921E+02  0.48130454418E+02  0.00000000000E+00 0. -1.
         22    1    4    4    0    0 -0.52113435772E+01  0.13245135007E+02 -0.12810793706E+02  0.19149625026E+02  0.00000000000E+00 0. -1.
<mgrwt>
<rscale>  0 0.91588758E+02</rscale>
<asrwt>0</asrwt>
<pdfrwt beam="1">  1        3 0.36613539E-02 0.91588758E+02</pdfrwt>
<pdfrwt beam="2">  1       -3 0.13556761E-01 0.91588758E+02</pdfrwt>
<totfact> 0.33397696E+04</totfact>
</mgrwt>
</event>
<event>
 7    1  0.1312339E-009  0.9458101E+02  0.7818608E-02  0.1292123E+00
         -3   -1    0    0    0  501 -0.00000000000E+00  0.00000000000E+00  0.70480724261E+03  0.70480724984E+03  0.10100000000E+00 0.  1.
          3   -1    0    0  501    0  0.00000000000E+00 -0.00000000000E+00 -0.31722434684E+01  0.31738509138E+01  0.10100000000E+00 0. -1.
         23    2    1    2    0    0  0.00000000000E+00  0.00000000000E+00  0.70163499914E+03  0.70798110076E+03  0.94581007679E+02 0.  0.
    9000005    2    3    3    0    0  0.19948304687E+02 -0.25886205592E+02  0.60660594944E+03  0.60748955491E+03  0.21796630870E+01 0.  0.
         22    1    3    3    0    0 -0.19948304687E+02  0.25886205592E+02  0.95029049700E+02  0.10049154585E+03  0.00000000000E+00 0. -1.
         22    1    4    4    0    0  0.14645194039E+01 -0.29126182704E+01  0.56719334672E+02  0.56812948242E+02  0.00000000000E+00 0. -1.
         22    1    4    4    0    0  0.18483785283E+02 -0.22973587322E+02  0.54988661477E+03  0.55067660667E+03  0.00000000000E+00 0. -1.
<mgrwt>
<rscale>  0 0.94581008E+02</rscale>
<asrwt>0</asrwt>
<pdfrwt beam="2">  1        3 0.48816024E-03 0.94581008E+02</pdfrwt>
<pdfrwt beam="1">  1       -3 0.10843232E+00 0.94581008E+02</pdfrwt>
<totfact> 0.12475404E+04</totfact>
</mgrwt>
</event>
<event>
 7    1  0.1312339E-009  0.9159569E+02  0.7818608E-02  0.1299033E+00
          3   -1    0    0  501    0  0.00000000000E+00  0.00000000000E+00  0.10445064979E+03  0.10445069862E+03  0.10100000000E+00 0. -1.
         -3   -1    0    0    0  501 -0.00000000000E+00 -0.00000000000E+00 -0.20080522197E+02  0.20080776197E+02  0.10100000000E+00 0.  1.
         23    2    1    2    0    0  0.00000000000E+00 -0.88817841970E-15  0.84370127591E+02  0.12453147482E+03  0.91595686527E+02 0.  0.
    9000005    2    3    3    0    0  0.32974517963E+02  0.78451181052E+01  0.31048748338E+01  0.36480886978E+02  0.13128219757E+02 0.  0.
         22    1    3    3    0    0 -0.32974517963E+02 -0.78451181052E+01  0.81265252758E+02  0.88050587839E+02  0.00000000000E+00 0. -1.
         22    1    4    4    0    0  0.30123288489E+02  0.55240609877E+01 -0.14104759040E+01  0.30658069109E+02  0.00000000000E+00 0. -1.
         22    1    4    4    0    0  0.28512294741E+01  0.23210571175E+01  0.45153507377E+01  0.58228178695E+01  0.00000000000E+00 0. -1.
<mgrwt>
<rscale>  0 0.91595687E+02</rscale>
<asrwt>0</asrwt>
<pdfrwt beam="1">  1        3 0.16069354E-01 0.91595687E+02</pdfrwt>
<pdfrwt beam="2">  1       -3 0.30893344E-02 0.91595687E+02</pdfrwt>
<totfact> 0.32531128E+04</totfact>
</mgrwt>
</event>
<event>
 7    1  0.1312339E-009  0.9068106E+02  0.7818608E-02  0.1301211E+00
         -3   -1    0    0    0  501 -0.00000000000E+00  0.00000000000E+00  0.53942904849E+03  0.53942905795E+03  0.10100000000E+00 0.  1.
          3   -1    0    0  501    0  0.00000000000E+00 -0.00000000000E+00 -0.38103207994E+01  0.38116591656E+01  0.10100000000E+00 0. -1.
         23    2    1    2    0    0  0.00000000000E+00  0.00000000000E+00  0.53561872769E+03  0.54324071711E+03  0.90681063483E+02 0.  0.
    9000005    2    3    3    0    0  0.36560718240E+02  0.69999042270E+01  0.41834152473E+03  0.42019752505E+03  0.13063076604E+02 0.  0.
         22    1    3    3    0    0 -0.36560718240E+02 -0.69999042270E+01  0.11727720296E+03  0.12304319206E+03  0.00000000000E+00 0. -1.
         22    1    4    4    0    0  0.18319787956E+02 -0.31294727314E+01  0.19810668720E+03  0.19897655074E+03  0.00000000000E+00 0.  1.
         22    1    4    4    0    0  0.18240930285E+02  0.10129376958E+02  0.22023483753E+03  0.22122097431E+03  0.00000000000E+00 0.  1.
<mgrwt>
<rscale>  0 0.90681063E+02</rscale>
<asrwt>0</asrwt>
<pdfrwt beam="2">  1        3 0.58630692E-03 0.90681063E+02</pdfrwt>
<pdfrwt beam="1">  1       -3 0.82989182E-01 0.90681063E+02</pdfrwt>
<totfact> 0.17135447E+04</totfact>
</mgrwt>
</event>
<event>
 7    1  0.1312339E-009  0.9260725E+02  0.7818608E-02  0.1296658E+00
         -3   -1    0    0    0  501 -0.00000000000E+00  0.00000000000E+00  0.10001963420E+03  0.10001968520E+03  0.10100000000E+00 0.  1.
          3   -1    0    0  501    0  0.00000000000E+00 -0.00000000000E+00 -0.21435870571E+02  0.21436108512E+02  0.10100000000E+00 0. -1.
         23    2    1    2    0    0  0.00000000000E+00  0.00000000000E+00  0.78583763630E+02  0.12145579371E+03  0.92607245500E+02 0.  0.
    9000005    2    3    3    0    0  0.43523130125E+02  0.38972316802E+01  0.23133932108E+02  0.50857386598E+02  0.11909814697E+02 0.  0.
         22    1    3    3    0    0 -0.43523130125E+02 -0.38972316802E+01  0.55449831522E+02  0.70598407110E+02  0.00000000000E+00 0.  1.
         22    1    4    4    0    0  0.21015296639E+02  0.67375398566E+01  0.15311219809E+02  0.26860204545E+02  0.00000000000E+00 0. -1.
         22    1    4    4    0    0  0.22507833486E+02 -0.28403081763E+01  0.78227122986E+01  0.23997182053E+02  0.00000000000E+00 0. -1.
<mgrwt>
<rscale>  0 0.92607246E+02</rscale>
<asrwt>0</asrwt>
<pdfrwt beam="2">  1        3 0.32978485E-02 0.92607246E+02</pdfrwt>
<pdfrwt beam="1">  1       -3 0.15387658E-01 0.92607246E+02</pdfrwt>
<totfact> 0.31773297E+04</totfact>
</mgrwt>
</event>
<event>
 7    1  0.1312339E-009  0.8817272E+02  0.7818608E-02  0.1307338E+00
          3   -1    0    0  501    0  0.00000000000E+00  0.00000000000E+00  0.51749106214E+02  0.51749204776E+02  0.10100000000E+00 0. -1.
         -3   -1    0    0    0  501 -0.00000000000E+00 -0.00000000000E+00 -0.37558068424E+02  0.37558204227E+02  0.10100000000E+00 0.  1.
         23    2    1    2    0    0 -0.17763568394E-14  0.88817841970E-15  0.14191037790E+02  0.89307409003E+02  0.88172715447E+02 0.  0.
    9000005    2    3    3    0    0 -0.11833552282E+02 -0.70977583672E+01  0.49338821776E+02  0.51547935324E+02  0.56972948395E+01 0.  0.
         22    1    3    3    0    0  0.11833552282E+02  0.70977583672E+01 -0.35147783985E+02  0.37759473679E+02  0.00000000000E+00 0.  1.
         22    1    4    4    0    0 -0.85567279885E+01 -0.76280861402E+01  0.34979573565E+02  0.36809996724E+02  0.00000000000E+00 0.  1.
         22    1    4    4    0    0 -0.32768242938E+01  0.53032777295E+00  0.14359248210E+02  0.14737938600E+02  0.00000000000E+00 0.  1.
<mgrwt>
<rscale>  0 0.88172715E+02</rscale>
<asrwt>0</asrwt>
<pdfrwt beam="1">  1        3 0.79614190E-02 0.88172715E+02</pdfrwt>
<pdfrwt beam="2">  1       -3 0.57781824E-02 0.88172715E+02</pdfrwt>
<totfact> 0.38863009E+04</totfact>
</mgrwt>
</event>
<event>
 7    1  0.1312339E-009  0.9063660E+02  0.7818608E-02  0.1301317E+00
         -3   -1    0    0    0  501 -0.00000000000E+00  0.00000000000E+00  0.40034740152E+03  0.40034741426E+03  0.10100000000E+00 0.  1.
          3   -1    0    0  501    0  0.00000000000E+00 -0.00000000000E+00 -0.51294059286E+01  0.51304001969E+01  0.10100000000E+00 0. -1.
         23    2    1    2    0    0  0.35527136788E-14  0.00000000000E+00  0.39521799559E+03  0.40547781446E+03  0.90636603962E+02 0.  0.
    9000005    2    3    3    0    0 -0.20598901621E+02  0.35824303186E+02  0.27689275598E+03  0.28014402901E+03  0.10167754231E+02 0.  0.
         22    1    3    3    0    0  0.20598901621E+02 -0.35824303186E+02  0.11832523961E+03  0.12533378545E+03  0.00000000000E+00 0. -1.
         22    1    4    4    0    0 -0.18277605632E+02  0.28061084997E+02  0.24296655695E+03  0.24526361971E+03  0.00000000000E+00 0. -1.
         22    1    4    4    0    0 -0.23212959892E+01  0.77632181880E+01  0.33926199037E+02  0.34880409298E+02  0.00000000000E+00 0. -1.
<mgrwt>
<rscale>  0 0.90636604E+02</rscale>
<asrwt>0</asrwt>
<pdfrwt beam="2">  1        3 0.78921686E-03 0.90636604E+02</pdfrwt>
<pdfrwt beam="1">  1       -3 0.61591984E-01 0.90636604E+02</pdfrwt>
<totfact> 0.20762537E+04</totfact>
</mgrwt>
</event>
<event>
 7    1  0.1312339E-009  0.9094723E+02  0.7818608E-02  0.1300574E+00
          3   -1    0    0  501    0  0.00000000000E+00  0.00000000000E+00  0.25818062393E+02  0.25818259947E+02  0.10100000000E+00 0. -1.
         -3   -1    0    0    0  501 -0.00000000000E+00 -0.00000000000E+00 -0.80092607262E+02  0.80092670944E+02  0.10100000000E+00 0.  1.
         23    2    1    2    0    0  0.00000000000E+00  0.00000000000E+00 -0.54274544869E+02  0.10591093089E+03  0.90947232292E+02 0.  0.
    9000005    2    3    3    0    0 -0.40298098919E+01 -0.43739828910E+02 -0.14831991762E+02  0.46875966705E+02  0.69250468630E+01 0.  0.
         22    1    3    3    0    0  0.40298098919E+01  0.43739828910E+02 -0.39442553107E+02  0.59034964186E+02  0.00000000000E+00 0. -1.
         22    1    4    4    0    0 -0.26934124523E+01 -0.19457604512E+02 -0.10149524746E+02  0.22110307473E+02  0.00000000000E+00 0.  1.
         22    1    4    4    0    0 -0.13363974395E+01 -0.24282224398E+02 -0.46824670161E+01  0.24765659232E+02  0.00000000000E+00 0.  1.
<mgrwt>
<rscale>  0 0.90947232E+02</rscale>
<asrwt>0</asrwt>
<pdfrwt beam="1">  1        3 0.39720297E-02 0.90947232E+02</pdfrwt>
<pdfrwt beam="2">  1       -3 0.12321960E-01 0.90947232E+02</pdfrwt>
<totfact> 0.34475550E+04</totfact>
</mgrwt>
</event>
<event>
 7    1  0.2522054E-009  0.9194964E+02  0.7818608E-02  0.1298198E+00
          3   -1    0    0  501    0  0.00000000000E+00  0.00000000000E+00  0.99817519907E+01  0.99822629601E+01  0.10100000000E+00 0. -1.
         -3   -1    0    0    0  501 -0.00000000000E+00 -0.00000000000E+00 -0.21174886467E+03  0.21174888876E+03  0.10100000000E+00 0.  1.
         23    2    1    2    0    0  0.00000000000E+00  0.17763568394E-14 -0.20176711268E+03  0.22173115172E+03  0.91949637754E+02 0.  0.
    9000005    2    3    3    0    0 -0.35621941688E+02 -0.13910506382E+02 -0.15941788532E+03  0.16467081544E+03  0.15491622995E+02 0.  0.
         22    1    3    3    0    0  0.35621941688E+02  0.13910506382E+02 -0.42349227365E+02  0.57060336275E+02  0.00000000000E+00 0. -1.
         22    1    4    4    0    0 -0.16675885917E+02 -0.68221572058E+01 -0.44901540548E+02  0.48381559955E+02  0.00000000000E+00 0. -1.
         22    1    4    4    0    0 -0.18946055771E+02 -0.70883491761E+01 -0.11451634477E+03  0.11628925549E+03  0.00000000000E+00 0. -1.
<mgrwt>
<rscale>  0 0.91949638E+02</rscale>
<asrwt>0</asrwt>
<pdfrwt beam="1">  1        3 0.15356955E-02 0.91949638E+02</pdfrwt>
<pdfrwt beam="2">  1       -3 0.32576786E-01 0.91949638E+02</pdfrwt>
<totfact> 0.26792738E+04</totfact>
</mgrwt>
</event>
<event>
 7    1  0.1312339E-009  0.7130458E+02  0.7818608E-02  0.1355712E+00
          3   -1    0    0  501    0  0.00000000000E+00  0.00000000000E+00  0.28436277673E+02  0.28436457039E+02  0.10100000000E+00 0. -1.
         -3   -1    0    0    0  501 -0.00000000000E+00 -0.00000000000E+00 -0.44699068457E+02  0.44699182565E+02  0.10100000000E+00 0.  1.
         23    2    1    2    0    0  0.00000000000E+00  0.00000000000E+00 -0.16262790784E+02  0.73135639604E+02  0.71304582014E+02 0.  0.
    9000005    2    3    3    0    0 -0.10283145038E+02  0.17575211156E+02 -0.37824053088E+02  0.43478951468E+02  0.67178203085E+01 0.  0.
         22    1    3    3    0    0  0.10283145038E+02 -0.17575211156E+02  0.21561262304E+02  0.29656688136E+02  0.00000000000E+00 0. -1.
         22    1    4    4    0    0 -0.87520263981E+01  0.17767595400E+02 -0.33892704766E+02  0.39255583663E+02  0.00000000000E+00 0. -1.
         22    1    4    4    0    0 -0.15311186400E+01 -0.19238424395E+00 -0.39313483221E+01  0.42233678050E+01  0.00000000000E+00 0. -1.
<mgrwt>
<rscale>  0 0.71304582E+02</rscale>
<asrwt>0</asrwt>
<pdfrwt beam="1">  1        3 0.43748345E-02 0.71304582E+02</pdfrwt>
<pdfrwt beam="2">  1       -3 0.68768023E-02 0.71304582E+02</pdfrwt>
<totfact> 0.71221525E+04</totfact>
</mgrwt>
</event>
<event>
 7    1  0.1312339E-009  0.8402792E+02  0.7818608E-02  0.1317994E+00
         -3   -1    0    0    0  501 -0.00000000000E+00  0.00000000000E+00  0.19364614020E+03  0.19364616654E+03  0.10100000000E+00 0.  1.
          3   -1    0    0  501    0  0.00000000000E+00 -0.00000000000E+00 -0.91151493967E+01  0.91157089424E+01  0.10100000000E+00 0. -1.
         23    2    1    2    0    0  0.71054273576E-14  0.88817841970E-15  0.18453099080E+03  0.20276187548E+03  0.84027921443E+02 0.  0.
    9000005    2    3    3    0    0  0.38552540697E+02  0.44444773655E+01  0.67309955429E+02  0.79283849471E+02  0.15787555665E+02 0.  0.
         22    1    3    3    0    0 -0.38552540697E+02 -0.44444773655E+01  0.11722103538E+03  0.12347802601E+03  0.00000000000E+00 0. -1.
         22    1    4    4    0    0  0.17653295167E+02  0.57842463421E+01  0.18719928986E+02  0.26372942142E+02  0.00000000000E+00 0.  1.
         22    1    4    4    0    0  0.20899245530E+02 -0.13397689766E+01  0.48590026443E+02  0.52910907329E+02  0.00000000000E+00 0.  1.
<mgrwt>
<rscale>  0 0.84027921E+02</rscale>
<asrwt>0</asrwt>
<pdfrwt beam="2">  1        3 0.14023756E-02 0.84027921E+02</pdfrwt>
<pdfrwt beam="1">  1       -3 0.29791762E-01 0.84027921E+02</pdfrwt>
<totfact> 0.35295208E+04</totfact>
</mgrwt>
</event>
<event>
 7    1  0.1312339E-009  0.9581872E+02  0.7818608E-02  0.1289343E+00
          3   -1    0    0  501    0  0.00000000000E+00  0.00000000000E+00  0.95044791945E+02  0.95044845609E+02  0.10100000000E+00 0. -1.
         -3   -1    0    0    0  501 -0.00000000000E+00 -0.00000000000E+00 -0.24149573284E+02  0.24149784488E+02  0.10100000000E+00 0.  1.
         23    2    1    2    0    0  0.00000000000E+00  0.35527136788E-14  0.70895218661E+02  0.11919463010E+03  0.95818723718E+02 0.  0.
    9000005    2    3    3    0    0 -0.11441692184E+02  0.25030606965E+02 -0.10454737384E+02  0.33315302237E+02  0.15593723876E+02 0.  0.
         22    1    3    3    0    0  0.11441692184E+02 -0.25030606965E+02  0.81349956045E+02  0.85879327860E+02  0.00000000000E+00 0. -1.
         22    1    4    4    0    0 -0.15274352994E+02  0.21789527484E+02 -0.89649968109E+01  0.28079539440E+02  0.00000000000E+00 0.  1.
         22    1    4    4    0    0  0.38326608105E+01  0.32410794809E+01 -0.14897405733E+01  0.52357627969E+01  0.00000000000E+00 0.  1.
<mgrwt>
<rscale>  0 0.95818724E+02</rscale>
<asrwt>0</asrwt>
<pdfrwt beam="1">  1        3 0.14622296E-01 0.95818724E+02</pdfrwt>
<pdfrwt beam="2">  1       -3 0.37153394E-02 0.95818724E+02</pdfrwt>
<totfact> 0.29082874E+04</totfact>
</mgrwt>
</event>
<event>
 7    1  0.1312339E-009  0.9352731E+02  0.7818608E-02  0.1294528E+00
         -3   -1    0    0    0  501 -0.00000000000E+00  0.00000000000E+00  0.49789789392E+02  0.49789891832E+02  0.10100000000E+00 0.  1.
          3   -1    0    0  501    0  0.00000000000E+00 -0.00000000000E+00 -0.43921235287E+02  0.43921351415E+02  0.10100000000E+00 0. -1.
         23    2    1    2    0    0  0.00000000000E+00  0.00000000000E+00  0.58685541047E+01  0.93711243248E+02  0.93527307156E+02 0.  0.
    9000005    2    3    3    0    0 -0.37453260979E+02  0.27580393890E+02  0.49979838761E+01  0.47190465335E+02  0.62076799644E+01 0.  0.
         22    1    3    3    0    0  0.37453260979E+02 -0.27580393890E+02  0.87057022860E+00  0.46520777913E+02  0.00000000000E+00 0.  1.
         22    1    4    4    0    0 -0.14463883230E+02  0.71753201059E+01  0.26517263598E+01  0.16362175570E+02  0.00000000000E+00 0. -1.
         22    1    4    4    0    0 -0.22989377750E+02  0.20405073784E+02  0.23462575163E+01  0.30828289764E+02  0.00000000000E+00 0. -1.
<mgrwt>
<rscale>  0 0.93527307E+02</rscale>
<asrwt>0</asrwt>
<pdfrwt beam="2">  1        3 0.67571299E-02 0.93527307E+02</pdfrwt>
<pdfrwt beam="1">  1       -3 0.76599845E-02 0.93527307E+02</pdfrwt>
<totfact> 0.32783629E+04</totfact>
</mgrwt>
</event>
<event>
 7    1  0.1312339E-009  0.9163480E+02  0.7818608E-02  0.1298940E+00
          3   -1    0    0  501    0  0.00000000000E+00  0.00000000000E+00  0.11662794303E+02  0.11663231626E+02  0.10100000000E+00 0. -1.
         -3   -1    0    0    0  501 -0.00000000000E+00 -0.00000000000E+00 -0.17999026283E+03  0.17999029116E+03  0.10100000000E+00 0.  1.
         23    2    1    2    0    0  0.00000000000E+00  0.00000000000E+00 -0.16832746852E+03  0.19165352279E+03  0.91634797639E+02 0.  0.
    9000005    2    3    3    0    0 -0.41024066515E+02 -0.51620748201E+01 -0.12470443022E+03  0.13154869336E+03  0.66515230578E+01 0.  0.
         22    1    3    3    0    0  0.41024066515E+02  0.51620748201E+01 -0.43623038307E+02  0.60104829432E+02  0.00000000000E+00 0. -1.
         22    1    4    4    0    0 -0.18746695981E+02 -0.57021797684E+01 -0.58024564057E+02  0.61243803755E+02  0.00000000000E+00 0.  1.
         22    1    4    4    0    0 -0.22277370534E+02  0.54010494839E+00 -0.66679866158E+02  0.70304889603E+02  0.00000000000E+00 0.  1.
<mgrwt>
<rscale>  0 0.91634798E+02</rscale>
<asrwt>0</asrwt>
<pdfrwt beam="1">  1        3 0.17943120E-02 0.91634798E+02</pdfrwt>
<pdfrwt beam="2">  1       -3 0.27690843E-01 0.91634798E+02</pdfrwt>
<totfact> 0.28545745E+04</totfact>
</mgrwt>
</event>
<event>
 7    1  0.1312339E-009  0.8947646E+02  0.7818608E-02  0.1304125E+00
         -3   -1    0    0    0  501 -0.00000000000E+00  0.00000000000E+00  0.16926280784E+02  0.16926582117E+02  0.10100000000E+00 0.  1.
          3   -1    0    0  501    0  0.00000000000E+00 -0.00000000000E+00 -0.11824722955E+03  0.11824727269E+03  0.10100000000E+00 0. -1.
         23    2    1    2    0    0 -0.44408920985E-15  0.00000000000E+00 -0.10132094877E+03  0.13517385481E+03  0.89476457034E+02 0.  0.
    9000005    2    3    3    0    0 -0.27728817948E+01 -0.18944658388E+02  0.76050536555E+01  0.24577910218E+02  0.13403278505E+02 0.  0.
         22    1    3    3    0    0  0.27728817948E+01  0.18944658388E+02 -0.10892600243E+03  0.11059594459E+03  0.00000000000E+00 0. -1.
         22    1    4    4    0    0  0.44674919975E+01 -0.99253234042E+01  0.71109729593E+01  0.13001402457E+02  0.00000000000E+00 0.  1.
         22    1    4    4    0    0 -0.72403737923E+01 -0.90193349835E+01  0.49408069618E+00  0.11576507761E+02  0.00000000000E+00 0.  1.
<mgrwt>
<rscale>  0 0.89476457E+02</rscale>
<asrwt>0</asrwt>
<pdfrwt beam="2">  1        3 0.18191907E-01 0.89476457E+02</pdfrwt>
<pdfrwt beam="1">  1       -3 0.26040698E-02 0.89476457E+02</pdfrwt>
<totfact> 0.33922802E+04</totfact>
</mgrwt>
</event>
<event>
 7    1  0.1312339E-009  0.8869181E+02  0.7818608E-02  0.1306051E+00
         -3   -1    0    0    0  501 -0.00000000000E+00  0.00000000000E+00  0.82886245620E+01  0.82892399006E+01  0.10100000000E+00 0.  1.
          3   -1    0    0  501    0  0.00000000000E+00 -0.00000000000E+00 -0.23725061543E+03  0.23725063693E+03  0.10100000000E+00 0. -1.
         23    2    1    2    0    0  0.00000000000E+00  0.00000000000E+00 -0.22896199087E+03  0.24553987683E+03  0.88691813889E+02 0.  0.
    9000005    2    3    3    0    0 -0.17842185558E+02 -0.19825307506E+02 -0.21228677625E+03  0.21408436561E+03  0.74198266308E+01 0.  0.
         22    1    3    3    0    0  0.17842185558E+02  0.19825307506E+02 -0.16675214619E+02  0.31455511214E+02  0.00000000000E+00 0.  1.
         22    1    4    4    0    0 -0.71712035595E+01 -0.38010736460E+01 -0.78705093953E+02  0.79122475539E+02  0.00000000000E+00 0. -1.
         22    1    4    4    0    0 -0.10670981998E+02 -0.16024233860E+02 -0.13358168230E+03  0.13496189008E+03  0.00000000000E+00 0. -1.
<mgrwt>
<rscale>  0 0.88691814E+02</rscale>
<asrwt>0</asrwt>
<pdfrwt beam="2">  1        3 0.36500138E-01 0.88691814E+02</pdfrwt>
<pdfrwt beam="1">  1       -3 0.12752222E-02 0.88691814E+02</pdfrwt>
<totfact> 0.28327209E+04</totfact>
</mgrwt>
</event>
<event>
 7    1  0.1312339E-009  0.8755791E+02  0.7818608E-02  0.1308876E+00
         -3   -1    0    0    0  501 -0.00000000000E+00  0.00000000000E+00  0.58257599133E+02  0.58257686684E+02  0.10100000000E+00 0.  1.
          3   -1    0    0  501    0  0.00000000000E+00 -0.00000000000E+00 -0.32898472688E+02  0.32898627725E+02  0.10100000000E+00 0. -1.
         23    2    1    2    0    0  0.00000000000E+00  0.00000000000E+00  0.25359126445E+02  0.91156314409E+02  0.87557914334E+02 0.  0.
    9000005    2    3    3    0    0 -0.20902502077E+02  0.11881322287E+02 -0.23171673241E+02  0.36996191342E+02  0.15928318200E+02 0.  0.
         22    1    3    3    0    0  0.20902502077E+02 -0.11881322287E+02  0.48530799686E+02  0.54160123066E+02  0.00000000000E+00 0.  1.
         22    1    4    4    0    0 -0.26447473151E+01  0.81008416496E+00 -0.13098108065E+02  0.13386984709E+02  0.00000000000E+00 0.  1.
         22    1    4    4    0    0 -0.18257754762E+02  0.11071238122E+02 -0.10073565176E+02  0.23609206633E+02  0.00000000000E+00 0.  1.
<mgrwt>
<rscale>  0 0.87557914E+02</rscale>
<asrwt>0</asrwt>
<pdfrwt beam="2">  1        3 0.50613222E-02 0.87557914E+02</pdfrwt>
<pdfrwt beam="1">  1       -3 0.89627261E-02 0.87557914E+02</pdfrwt>
<totfact> 0.39447365E+04</totfact>
</mgrwt>
</event>
<event>
 7    1  0.1312339E-009  0.9626937E+02  0.7818608E-02  0.1288342E+00
         -3   -1    0    0    0  501 -0.00000000000E+00  0.00000000000E+00  0.18113417187E+03  0.18113420003E+03  0.10100000000E+00 0.  1.
          3   -1    0    0  501    0  0.00000000000E+00 -0.00000000000E+00 -0.12791106280E+02  0.12791505028E+02  0.10100000000E+00 0. -1.
         23    2    1    2    0    0 -0.71054273576E-14  0.35527136788E-14  0.16834306559E+03  0.19392570505E+03  0.96269368697E+02 0.  0.
    9000005    2    3    3    0    0  0.37850873809E+02 -0.28994449041E+02  0.76748868722E+02  0.90664562204E+02  0.75038167767E+01 0.  0.
         22    1    3    3    0    0 -0.37850873809E+02  0.28994449041E+02  0.91594196864E+02  0.10326114285E+03  0.00000000000E+00 0. -1.
         22    1    4    4    0    0  0.12768443211E+02 -0.12195963165E+02  0.22725710604E+02  0.28779030248E+02  0.00000000000E+00 0. -1.
         22    1    4    4    0    0  0.25082430598E+02 -0.16798485876E+02  0.54023158118E+02  0.61885531956E+02  0.00000000000E+00 0. -1.
<mgrwt>
<rscale>  0 0.96269369E+02</rscale>
<asrwt>0</asrwt>
<pdfrwt beam="2">  1        3 0.19678955E-02 0.96269369E+02</pdfrwt>
<pdfrwt beam="1">  1       -3 0.27866827E-01 0.96269369E+02</pdfrwt>
<totfact> 0.24867240E+04</totfact>
</mgrwt>
</event>
<event>
 7    1  0.1312339E-009  0.8314770E+02  0.7818608E-02  0.1320349E+00
         -3   -1    0    0    0  501 -0.00000000000E+00  0.00000000000E+00  0.15887594751E+02  0.15887915785E+02  0.10100000000E+00 0.  1.
          3   -1    0    0  501    0  0.00000000000E+00 -0.00000000000E+00 -0.10878689602E+03  0.10878694291E+03  0.10100000000E+00 0. -1.
         23    2    1    2    0    0  0.00000000000E+00 -0.35527136788E-14 -0.92899301269E+02  0.12467485869E+03  0.83147701190E+02 0.  0.
    9000005    2    3    3    0    0 -0.28683269786E+02  0.27212565026E+02 -0.32243803550E+02  0.52270832114E+02  0.11372042985E+02 0.  0.
         22    1    3    3    0    0  0.28683269786E+02 -0.27212565026E+02 -0.60655497719E+02  0.72404026576E+02  0.00000000000E+00 0.  1.
         22    1    4    4    0    0 -0.30263128222E+01 -0.50338876631E+00 -0.43298784488E+01  0.53065824152E+01  0.00000000000E+00 0. -1.
         22    1    4    4    0    0 -0.25656956964E+02  0.27715953792E+02 -0.27913925101E+02  0.46964249699E+02  0.00000000000E+00 0. -1.
<mgrwt>
<rscale>  0 0.83147701E+02</rscale>
<asrwt>0</asrwt>
<pdfrwt beam="2">  1        3 0.16736473E-01 0.83147701E+02</pdfrwt>
<pdfrwt beam="1">  1       -3 0.24442737E-02 0.83147701E+02</pdfrwt>
<totfact> 0.42220301E+04</totfact>
</mgrwt>
</event>
<event>
 7    1  0.1312339E-009  0.1269597E+03  0.7818608E-02  0.1232038E+00
         -3   -1    0    0    0  501 -0.00000000000E+00  0.00000000000E+00  0.51274337586E+03  0.51274338581E+03  0.10100000000E+00 0.  1.
          3   -1    0    0  501    0  0.00000000000E+00 -0.00000000000E+00 -0.78587493939E+01  0.78593983890E+01  0.10100000000E+00 0. -1.
         23    2    1    2    0    0  0.00000000000E+00  0.35527136788E-14  0.50488462647E+03  0.52060278420E+03  0.12695972933E+03 0.  0.
    9000005    2    3    3    0    0 -0.58834146174E+02 -0.21688925326E+02  0.26776518255E+03  0.27533253137E+03  0.13339550499E+02 0.  0.
         22    1    3    3    0    0  0.58834146174E+02  0.21688925326E+02  0.23711944392E+03  0.24527025283E+03  0.00000000000E+00 0.  1.
         22    1    4    4    0    0 -0.53379070021E+02 -0.20876623145E+02  0.25601309667E+03  0.26235065118E+03  0.00000000000E+00 0.  1.
         22    1    4    4    0    0 -0.54550761537E+01 -0.81230218070E+00  0.11752085886E+02  0.12981880193E+02  0.00000000000E+00 0.  1.
<mgrwt>
<rscale>  0 0.12695973E+03</rscale>
<asrwt>0</asrwt>
<pdfrwt beam="2">  1        3 0.12090892E-02 0.12695973E+03</pdfrwt>
<pdfrwt beam="1">  1       -3 0.78883639E-01 0.12695973E+03</pdfrwt>
<totfact> 0.70741361E+03</totfact>
</mgrwt>
</event>
<event>
 7    1  0.1312339E-009  0.8727401E+02  0.7818608E-02  0.1309591E+00
         -3   -1    0    0    0  501 -0.00000000000E+00  0.00000000000E+00  0.59479617062E+02  0.59479702814E+02  0.10100000000E+00 0.  1.
          3   -1    0    0  501    0  0.00000000000E+00 -0.00000000000E+00 -0.32013944418E+02  0.32014103739E+02  0.10100000000E+00 0. -1.
         23    2    1    2    0    0  0.00000000000E+00 -0.11102230246E-15  0.27465672644E+02  0.91493806552E+02  0.87274013679E+02 0.  0.
    9000005    2    3    3    0    0 -0.10143254744E+02  0.79647301238E+00  0.57507599552E+02  0.59775714580E+02  0.12747237397E+02 0.  0.
         22    1    3    3    0    0  0.10143254744E+02 -0.79647301238E+00 -0.30041926908E+02  0.31718091973E+02  0.00000000000E+00 0. -1.
         22    1    4    4    0    0 -0.10623796726E+02  0.15928669586E+01  0.24460259157E+02  0.26715287011E+02  0.00000000000E+00 0. -1.
         22    1    4    4    0    0  0.48054198153E+00 -0.79639394619E+00  0.33047340394E+02  0.33060427569E+02  0.00000000000E+00 0. -1.
<mgrwt>
<rscale>  0 0.87274014E+02</rscale>
<asrwt>0</asrwt>
<pdfrwt beam="2">  1        3 0.49252411E-02 0.87274014E+02</pdfrwt>
<pdfrwt beam="1">  1       -3 0.91507291E-02 0.87274014E+02</pdfrwt>
<totfact> 0.39766158E+04</totfact>
</mgrwt>
</event>
<event>
 7    1  0.1312339E-009  0.9379053E+02  0.7818608E-02  0.1293924E+00
          3   -1    0    0  501    0  0.00000000000E+00  0.00000000000E+00  0.29840652460E+03  0.29840654169E+03  0.10100000000E+00 0. -1.
         -3   -1    0    0    0  501 -0.00000000000E+00 -0.00000000000E+00 -0.73693346781E+01  0.73700267705E+01  0.10100000000E+00 0.  1.
         23    2    1    2    0    0  0.00000000000E+00  0.00000000000E+00  0.29103718992E+03  0.30577656846E+03  0.93790532056E+02 0.  0.
    9000005    2    3    3    0    0 -0.21403603059E+02  0.83185731898E+01  0.27844947028E+03  0.27958948062E+03  0.10433469754E+02 0.  0.
         22    1    3    3    0    0  0.21403603059E+02 -0.83185731898E+01  0.12587719640E+02  0.26187087840E+02  0.00000000000E+00 0.  1.
         22    1    4    4    0    0 -0.11323714835E+02  0.50170799568E+00  0.90390976497E+02  0.91098885068E+02  0.00000000000E+00 0. -1.
         22    1    4    4    0    0 -0.10079888223E+02  0.78168651941E+01  0.18805849379E+03  0.18849059556E+03  0.00000000000E+00 0. -1.
<mgrwt>
<rscale>  0 0.93790532E+02</rscale>
<asrwt>0</asrwt>
<pdfrwt beam="1">  1        3 0.45908743E-01 0.93790532E+02</pdfrwt>
<pdfrwt beam="2">  1       -3 0.11337985E-02 0.93790532E+02</pdfrwt>
<totfact> 0.22065688E+04</totfact>
</mgrwt>
</event>
<event>
 6    1  0.1312339E-009  0.3076959E+03  0.7818608E-02  0.1081456E+00
         -3   -1    0    0    0  501 -0.00000000000E+00  0.00000000000E+00  0.80873413658E+02  0.80873476726E+02  0.10100000000E+00 0.  1.
          3   -1    0    0  501    0  0.00000000000E+00 -0.00000000000E+00 -0.29266938621E+03  0.29266940364E+03  0.10100000000E+00 0. -1.
    9000005    2    1    2    0    0  0.13340840628E+03 -0.35832730222E+02 -0.23957859938E+02  0.14037996742E+03  0.71252211805E+01 0.  0.
         22    1    1    2    0    0 -0.13340840628E+03  0.35832730222E+02 -0.18783811261E+03  0.23316291294E+03  0.00000000000E+00 0. -1.
         22    1    3    3    0    0  0.10939700718E+03 -0.30906147298E+02 -0.22019420671E+02  0.11579183913E+03  0.00000000000E+00 0. -1.
         22    1    3    3    0    0  0.24011399102E+02 -0.49265829243E+01 -0.19384392665E+01  0.24588128292E+02  0.00000000000E+00 0. -1.
<mgrwt>
<rscale>  0 0.30769587E+03</rscale>
<asrwt>0</asrwt>
<pdfrwt beam="2">  1        3 0.45026065E-01 0.30769587E+03</pdfrwt>
<pdfrwt beam="1">  1       -3 0.12442070E-01 0.30769587E+03</pdfrwt>
<totfact> 0.64636966E+02</totfact>
</mgrwt>
</event>
<event>
 7    1  0.1312339E-009  0.9096766E+02  0.7818608E-02  0.1300525E+00
          3   -1    0    0  501    0  0.00000000000E+00  0.00000000000E+00  0.11299209167E+03  0.11299213681E+03  0.10100000000E+00 0. -1.
         -3   -1    0    0    0  501 -0.00000000000E+00 -0.00000000000E+00 -0.18308870145E+02  0.18309148724E+02  0.10100000000E+00 0.  1.
         23    2    1    2    0    0  0.00000000000E+00 -0.44408920985E-15  0.94683221521E+02  0.13130128553E+03  0.90967659882E+02 0.  0.
    9000005    2    3    3    0    0  0.37324588766E+02  0.21661723959E+01  0.82612213053E+02  0.92013546032E+02  0.15617223777E+02 0.  0.
         22    1    3    3    0    0 -0.37324588766E+02 -0.21661723959E+01  0.12071008468E+02  0.39287739498E+02  0.00000000000E+00 0.  1.
         22    1    4    4    0    0  0.17299608134E+02  0.78434307962E+01  0.30921818115E+02  0.36289870264E+02  0.00000000000E+00 0. -1.
         22    1    4    4    0    0  0.20024980632E+02 -0.56772584004E+01  0.51690394938E+02  0.55723675768E+02  0.00000000000E+00 0. -1.
<mgrwt>
<rscale>  0 0.90967660E+02</rscale>
<asrwt>0</asrwt>
<pdfrwt beam="1">  1        3 0.17383424E-01 0.90967660E+02</pdfrwt>
<pdfrwt beam="2">  1       -3 0.28167741E-02 0.90967660E+02</pdfrwt>
<totfact> 0.32693579E+04</totfact>
</mgrwt>
</event>
<event>
 7    1  0.1312339E-009  0.7855761E+02  0.7818608E-02  0.1333195E+00
          3   -1    0    0  501    0  0.00000000000E+00  0.00000000000E+00  0.22510194520E+02  0.22510421105E+02  0.10100000000E+00 0. -1.
         -3   -1    0    0    0  501 -0.00000000000E+00 -0.00000000000E+00 -0.68538310201E+02  0.68538384619E+02  0.10100000000E+00 0.  1.
         23    2    1    2    0    0  0.00000000000E+00  0.00000000000E+00 -0.46028115681E+02  0.91048805724E+02  0.78557606829E+02 0.  0.
    9000005    2    3    3    0    0  0.90354154878E+01 -0.37908072588E+02 -0.26679625421E+02  0.47539901168E+02  0.54386662046E+01 0.  0.
         22    1    3    3    0    0 -0.90354154878E+01  0.37908072588E+02 -0.19348490260E+02  0.43508904556E+02  0.00000000000E+00 0. -1.
         22    1    4    4    0    0  0.73308364464E+01 -0.23776278560E+02 -0.14442967029E+02  0.28768939531E+02  0.00000000000E+00 0.  1.
         22    1    4    4    0    0  0.17045790414E+01 -0.14131794028E+02 -0.12236658392E+02  0.18770961636E+02  0.00000000000E+00 0.  1.
<mgrwt>
<rscale>  0 0.78557607E+02</rscale>
<asrwt>0</asrwt>
<pdfrwt beam="1">  1        3 0.34631300E-02 0.78557607E+02</pdfrwt>
<pdfrwt beam="2">  1       -3 0.10544378E-01 0.78557607E+02</pdfrwt>
<totfact> 0.52833961E+04</totfact>
</mgrwt>
</event>
<event>
 7    1  0.1312339E-009  0.9006796E+02  0.7818608E-02  0.1302687E+00
         -3   -1    0    0    0  501 -0.00000000000E+00  0.00000000000E+00  0.40938377291E+02  0.40938501881E+02  0.10100000000E+00 0.  1.
          3   -1    0    0  501    0  0.00000000000E+00 -0.00000000000E+00 -0.49539070371E+02  0.49539173330E+02  0.10100000000E+00 0. -1.
         23    2    1    2    0    0  0.00000000000E+00  0.17763568394E-14 -0.86006930791E+01  0.90477675210E+02  0.90067962062E+02 0.  0.
    9000005    2    3    3    0    0 -0.43128307945E+02  0.10987597720E+02 -0.34978941448E+01  0.45680166275E+02  0.96780203384E+01 0.  0.
         22    1    3    3    0    0  0.43128307945E+02 -0.10987597720E+02 -0.51027989343E+01  0.44797508935E+02  0.00000000000E+00 0. -1.
         22    1    4    4    0    0 -0.87642914644E+01  0.60685837078E+01 -0.25103812532E+01  0.10951827570E+02  0.00000000000E+00 0. -1.
         22    1    4    4    0    0 -0.34364016480E+02  0.49190140120E+01 -0.98751289167E+00  0.34728338705E+02  0.00000000000E+00 0. -1.
<mgrwt>
<rscale>  0 0.90067962E+02</rscale>
<asrwt>0</asrwt>
<pdfrwt beam="2">  1        3 0.76214129E-02 0.90067962E+02</pdfrwt>
<pdfrwt beam="1">  1       -3 0.62982294E-02 0.90067962E+02</pdfrwt>
<totfact> 0.36590217E+04</totfact>
</mgrwt>
</event>
<event>
 7    1  0.1312339E-009  0.8950853E+02  0.7818608E-02  0.1304046E+00
         -3   -1    0    0    0  501 -0.00000000000E+00  0.00000000000E+00  0.11935918335E+02  0.11936345651E+02  0.10100000000E+00 0.  1.
          3   -1    0    0  501    0  0.00000000000E+00 -0.00000000000E+00 -0.16780469385E+03  0.16780472424E+03  0.10100000000E+00 0. -1.
         23    2    1    2    0    0  0.00000000000E+00  0.35527136788E-14 -0.15586877551E+03  0.17974106990E+03  0.89508530471E+02 0.  0.
    9000005    2    3    3    0    0 -0.34321937180E+02 -0.20165299578E+02 -0.38467744700E+02  0.55774797406E+02  0.68136601438E+01 0.  0.
         22    1    3    3    0    0  0.34321937180E+02  0.20165299578E+02 -0.11740103081E+03  0.12396627249E+03  0.00000000000E+00 0.  1.
         22    1    4    4    0    0 -0.45508321134E+01 -0.26851325146E+00 -0.38055983148E+01  0.59384131571E+01  0.00000000000E+00 0. -1.
         22    1    4    4    0    0 -0.29771105066E+02 -0.19896786326E+02 -0.34662146385E+02  0.49836384249E+02  0.00000000000E+00 0. -1.
<mgrwt>
<rscale>  0 0.89508530E+02</rscale>
<asrwt>0</asrwt>
<pdfrwt beam="2">  1        3 0.25816140E-01 0.89508530E+02</pdfrwt>
<pdfrwt beam="1">  1       -3 0.18363305E-02 0.89508530E+02</pdfrwt>
<totfact> 0.31089770E+04</totfact>
</mgrwt>
</event>
<event>
 7    1  0.1312339E-009  0.8723504E+02  0.7818608E-02  0.1309689E+00
         -3   -1    0    0    0  501 -0.00000000000E+00  0.00000000000E+00  0.49206167422E+02  0.49206271077E+02  0.10100000000E+00 0.  1.
          3   -1    0    0  501    0  0.00000000000E+00 -0.00000000000E+00 -0.38663400903E+02  0.38663532824E+02  0.10100000000E+00 0. -1.
         23    2    1    2    0    0  0.00000000000E+00 -0.23939183968E-15  0.10542766518E+02  0.87869803901E+02  0.87235041765E+02 0.  0.
    9000005    2    3    3    0    0  0.31819290867E+02  0.16337352970E-01  0.34115773531E+02  0.48269877161E+02  0.12394656076E+02 0.  0.
         22    1    3    3    0    0 -0.31819290867E+02 -0.16337352970E-01 -0.23573007013E+02  0.39599926741E+02  0.00000000000E+00 0. -1.
         22    1    4    4    0    0  0.18532058481E+02 -0.57762716625E+01  0.22333194882E+02  0.29590101376E+02  0.00000000000E+00 0. -1.
         22    1    4    4    0    0  0.13287232387E+02  0.57926090155E+01  0.11782578650E+02  0.18679775784E+02  0.00000000000E+00 0. -1.
<mgrwt>
<rscale>  0 0.87235042E+02</rscale>
<asrwt>0</asrwt>
<pdfrwt beam="2">  1        3 0.59482337E-02 0.87235042E+02</pdfrwt>
<pdfrwt beam="1">  1       -3 0.75701977E-02 0.87235042E+02</pdfrwt>
<totfact> 0.40132684E+04</totfact>
</mgrwt>
</event>
<event>
 7    1  0.1312339E-009  0.9039806E+02  0.7818608E-02  0.1301891E+00
          3   -1    0    0  501    0  0.00000000000E+00  0.00000000000E+00  0.64891938260E+01  0.64899797774E+01  0.10100000000E+00 0. -1.
         -3   -1    0    0    0  501 -0.00000000000E+00 -0.00000000000E+00 -0.31480391992E+03  0.31480393612E+03  0.10100000000E+00 0.  1.
         23    2    1    2    0    0  0.00000000000E+00  0.35527136788E-14 -0.30831472609E+03  0.32129391589E+03  0.90398064512E+02 0.  0.
    9000005    2    3    3    0    0  0.10870127476E+02  0.29956061855E+02 -0.26774386337E+03  0.26970399231E+03  0.61596903325E+01 0.  0.
         22    1    3    3    0    0 -0.10870127476E+02 -0.29956061855E+02 -0.40570862720E+02  0.51589923581E+02  0.00000000000E+00 0. -1.
         22    1    4    4    0    0  0.55739902821E+01  0.16945964964E+02 -0.17425492424E+03  0.17516567506E+03  0.00000000000E+00 0.  1.
         22    1    4    4    0    0  0.52961371942E+01  0.13010096892E+02 -0.93488939127E+02  0.94538317255E+02  0.00000000000E+00 0.  1.
<mgrwt>
<rscale>  0 0.90398065E+02</rscale>
<asrwt>0</asrwt>
<pdfrwt beam="1">  1        3 0.99839946E-03 0.90398065E+02</pdfrwt>
<pdfrwt beam="2">  1       -3 0.48431422E-01 0.90398065E+02</pdfrwt>
<totfact> 0.23760539E+04</totfact>
</mgrwt>
</event>
<event>
 7    1  0.1312339E-009  0.9045965E+02  0.7818608E-02  0.1301742E+00
         -3   -1    0    0    0  501 -0.00000000000E+00  0.00000000000E+00  0.29075359801E+03  0.29075361555E+03  0.10100000000E+00 0.  1.
          3   -1    0    0  501    0  0.00000000000E+00 -0.00000000000E+00 -0.70356017513E+01  0.70363266697E+01  0.10100000000E+00 0. -1.
         23    2    1    2    0    0  0.00000000000E+00  0.00000000000E+00  0.28371799626E+03  0.29778994222E+03  0.90459650052E+02 0.  0.
    9000005    2    3    3    0    0 -0.45030060461E+01  0.40103904333E+02  0.20370563378E+03  0.20817644795E+03  0.14589312574E+02 0.  0.
         22    1    3    3    0    0  0.45030060461E+01 -0.40103904333E+02  0.80012362479E+02  0.89613494272E+02  0.00000000000E+00 0. -1.
         22    1    4    4    0    0 -0.71542418520E+01  0.36268716194E+02  0.19286155846E+03  0.19637256347E+03  0.00000000000E+00 0. -1.
         22    1    4    4    0    0  0.26512358059E+01  0.38351881389E+01  0.10844075318E+02  0.11803884482E+02  0.00000000000E+00 0. -1.
<mgrwt>
<rscale>  0 0.90459650E+02</rscale>
<asrwt>0</asrwt>
<pdfrwt beam="2">  1        3 0.10824574E-02 0.90459650E+02</pdfrwt>
<pdfrwt beam="1">  1       -3 0.44731381E-01 0.90459650E+02</pdfrwt>
<totfact> 0.24625211E+04</totfact>
</mgrwt>
</event>
<event>
 7    1  0.1312339E-009  0.9175826E+02  0.7818608E-02  0.1298649E+00
         -3   -1    0    0    0  501 -0.00000000000E+00  0.00000000000E+00  0.18833904357E+03  0.18833907065E+03  0.10100000000E+00 0. -1.
          3   -1    0    0  501    0  0.00000000000E+00 -0.00000000000E+00 -0.11175835608E+02  0.11176291985E+02  0.10100000000E+00 0.  1.
         23    2    1    2    0    0 -0.88817841970E-15  0.00000000000E+00  0.17716320796E+03  0.19951536264E+03  0.91758256702E+02 0.  0.
    9000005    2    3    3    0    0  0.78946569162E+01  0.34947363165E+02  0.14948119683E+03  0.15423912670E+03  0.12705754635E+02 0.  0.
         22    1    3    3    0    0 -0.78946569162E+01 -0.34947363165E+02  0.27682011134E+02  0.45276235935E+02  0.00000000000E+00 0.  1.
         22    1    4    4    0    0 -0.10824905655E+01  0.21152491338E+02  0.94659187137E+02  0.96999800953E+02  0.00000000000E+00 0.  1.
         22    1    4    4    0    0  0.89771474817E+01  0.13794871827E+02  0.54822009691E+02  0.57239325749E+02  0.00000000000E+00 0.  1.
<mgrwt>
<rscale>  0 0.91758257E+02</rscale>
<asrwt>0</asrwt>
<pdfrwt beam="2">  1        3 0.17193965E-02 0.91758257E+02</pdfrwt>
<pdfrwt beam="1">  1       -3 0.28975275E-01 0.91758257E+02</pdfrwt>
<totfact> 0.28036507E+04</totfact>
</mgrwt>
</event>
<event>
 7    1  0.1312339E-009  0.8709311E+02  0.7818608E-02  0.1310048E+00
          3   -1    0    0  501    0  0.00000000000E+00  0.00000000000E+00  0.11357756680E+03  0.11357761170E+03  0.10100000000E+00 0. -1.
         -3   -1    0    0    0  501 -0.00000000000E+00 -0.00000000000E+00 -0.16695899552E+02  0.16696205044E+02  0.10100000000E+00 0.  1.
         23    2    1    2    0    0  0.00000000000E+00  0.00000000000E+00  0.96881667245E+02  0.13027381675E+03  0.87093110417E+02 0.  0.
    9000005    2    3    3    0    0  0.81006536412E+01  0.41599434797E+02  0.62380671259E+02  0.75625374055E+02  0.56316506808E+01 0.  0.
         22    1    3    3    0    0 -0.81006536412E+01 -0.41599434797E+02  0.34500995986E+02  0.54648442694E+02  0.00000000000E+00 0. -1.
         22    1    4    4    0    0  0.84681987176E+01  0.34186224386E+02  0.49342035544E+02  0.60622147759E+02  0.00000000000E+00 0.  1.
         22    1    4    4    0    0 -0.36754507637E+00  0.74132104109E+01  0.13038635714E+02  0.15003226295E+02  0.00000000000E+00 0.  1.
<mgrwt>
<rscale>  0 0.87093110E+02</rscale>
<asrwt>0</asrwt>
<pdfrwt beam="1">  1        3 0.17473498E-01 0.87093110E+02</pdfrwt>
<pdfrwt beam="2">  1       -3 0.25686270E-02 0.87093110E+02</pdfrwt>
<totfact> 0.36848235E+04</totfact>
</mgrwt>
</event>
<event>
 7    1  0.1312339E-009  0.9009212E+02  0.7818608E-02  0.1302629E+00
         -3   -1    0    0    0  501 -0.00000000000E+00  0.00000000000E+00  0.59955680695E+02  0.59955765766E+02  0.10100000000E+00 0.  1.
          3   -1    0    0  501    0  0.00000000000E+00 -0.00000000000E+00 -0.33843937510E+02  0.33844088216E+02  0.10100000000E+00 0. -1.
         23    2    1    2    0    0  0.00000000000E+00  0.88817841970E-15  0.26111743185E+02  0.93799853982E+02  0.90092116608E+02 0.  0.
    9000005    2    3    3    0    0  0.19752285286E+02  0.42351124179E+01  0.54642625550E+02  0.58841304245E+02  0.82700427499E+01 0.  0.
         22    1    3    3    0    0 -0.19752285286E+02 -0.42351124179E+01 -0.28530882365E+02  0.34958549737E+02  0.00000000000E+00 0. -1.
         22    1    4    4    0    0  0.13160470549E+02 -0.61393877715E-01  0.26048708934E+02  0.29184533428E+02  0.00000000000E+00 0.  1.
         22    1    4    4    0    0  0.65918147371E+01  0.42965062957E+01  0.28593916616E+02  0.29656770818E+02  0.00000000000E+00 0.  1.
<mgrwt>
<rscale>  0 0.90092117E+02</rscale>
<asrwt>0</asrwt>
<pdfrwt beam="2">  1        3 0.52067778E-02 0.90092117E+02</pdfrwt>
<pdfrwt beam="1">  1       -3 0.92239689E-02 0.90092117E+02</pdfrwt>
<totfact> 0.36300495E+04</totfact>
</mgrwt>
</event>
<event>
 7    1  0.1312339E-009  0.9781264E+02  0.7818608E-02  0.1284964E+00
          3   -1    0    0  501    0  0.00000000000E+00  0.00000000000E+00  0.79848414415E+02  0.79848478293E+02  0.10100000000E+00 0. -1.
         -3   -1    0    0    0  501 -0.00000000000E+00 -0.00000000000E+00 -0.29954447122E+02  0.29954617396E+02  0.10100000000E+00 0.  1.
         23    2    1    2    0    0  0.00000000000E+00 -0.17763568394E-14  0.49893967294E+02  0.10980309569E+03  0.97812636457E+02 0.  0.
    9000005    2    3    3    0    0 -0.47091146562E+02 -0.96457090362E+01  0.34580212809E+02  0.59353845310E+02  0.40585770743E+01 0.  0.
         22    1    3    3    0    0  0.47091146562E+02  0.96457090362E+01  0.15313754485E+02  0.50449250379E+02  0.00000000000E+00 0.  1.
         22    1    4    4    0    0 -0.79570149206E+00 -0.50295981407E+00  0.18436476762E+00  0.95921833102E+00  0.00000000000E+00 0. -1.
         22    1    4    4    0    0 -0.46295445070E+02 -0.91427492221E+01  0.34395848041E+02  0.58394626979E+02  0.00000000000E+00 0. -1.
<mgrwt>
<rscale>  0 0.97812636E+02</rscale>
<asrwt>0</asrwt>
<pdfrwt beam="1">  1        3 0.12284389E-01 0.97812636E+02</pdfrwt>
<pdfrwt beam="2">  1       -3 0.46083946E-02 0.97812636E+02</pdfrwt>
<totfact> 0.28025194E+04</totfact>
</mgrwt>
</event>
<event>
 7    1  0.1312339E-009  0.8990678E+02  0.7818608E-02  0.1303078E+00
          3   -1    0    0  501    0  0.00000000000E+00  0.00000000000E+00  0.33116474018E+02  0.33116628034E+02  0.10100000000E+00 0. -1.
         -3   -1    0    0    0  501 -0.00000000000E+00 -0.00000000000E+00 -0.61020866615E+02  0.61020950201E+02  0.10100000000E+00 0.  1.
         23    2    1    2    0    0  0.00000000000E+00 -0.35527136788E-14 -0.27904392598E+02  0.94137578236E+02  0.89906776774E+02 0.  0.
    9000005    2    3    3    0    0 -0.38811006711E+02  0.14900123236E+02  0.38785837782E+01  0.41807228517E+02  0.21196768212E+01 0.  0.
         22    1    3    3    0    0  0.38811006711E+02 -0.14900123236E+02 -0.31782976376E+02  0.52330349718E+02  0.00000000000E+00 0.  1.
         22    1    4    4    0    0 -0.24854242783E+02  0.96130753718E+01  0.35039319075E+01  0.26877911772E+02  0.00000000000E+00 0.  1.
         22    1    4    4    0    0 -0.13956763928E+02  0.52870478640E+01  0.37465187069E+00  0.14929316745E+02  0.00000000000E+00 0.  1.
<mgrwt>
<rscale>  0 0.89906777E+02</rscale>
<asrwt>0</asrwt>
<pdfrwt beam="1">  1        3 0.50948604E-02 0.89906777E+02</pdfrwt>
<pdfrwt beam="2">  1       -3 0.93878439E-02 0.89906777E+02</pdfrwt>
<totfact> 0.36477147E+04</totfact>
</mgrwt>
</event>
<event>
 7    1  0.1312339E-009  0.9341324E+02  0.7818608E-02  0.1294790E+00
          3   -1    0    0  501    0  0.00000000000E+00  0.00000000000E+00  0.19675241704E+02  0.19675500937E+02  0.10100000000E+00 0. -1.
         -3   -1    0    0    0  501 -0.00000000000E+00 -0.00000000000E+00 -0.11087478551E+03  0.11087483151E+03  0.10100000000E+00 0.  1.
         23    2    1    2    0    0  0.00000000000E+00  0.00000000000E+00 -0.91199543805E+02  0.13055033245E+03  0.93413235209E+02 0.  0.
    9000005    2    3    3    0    0 -0.38467015050E+02 -0.13275914545E+02 -0.76402101787E+02  0.87249923165E+02  0.10922764342E+02 0.  0.
         22    1    3    3    0    0  0.38467015050E+02  0.13275914545E+02 -0.14797442017E+02  0.43300409284E+02  0.00000000000E+00 0. -1.
         22    1    4    4    0    0 -0.20773070318E+02 -0.44324017085E+01 -0.49441649972E+02  0.53811182735E+02  0.00000000000E+00 0. -1.
         22    1    4    4    0    0 -0.17693944732E+02 -0.88435128364E+01 -0.26960451815E+02  0.33438740430E+02  0.00000000000E+00 0. -1.
<mgrwt>
<rscale>  0 0.93413235E+02</rscale>
<asrwt>0</asrwt>
<pdfrwt beam="1">  1        3 0.30269838E-02 0.93413235E+02</pdfrwt>
<pdfrwt beam="2">  1       -3 0.17057682E-01 0.93413235E+02</pdfrwt>
<totfact> 0.30464778E+04</totfact>
</mgrwt>
</event>
<event>
 7    1  0.1312339E-009  0.9119818E+02  0.7818608E-02  0.1299976E+00
          3   -1    0    0  501    0  0.00000000000E+00  0.00000000000E+00  0.57893198476E+03  0.57893199357E+03  0.10100000000E+00 0. -1.
         -3   -1    0    0    0  501 -0.00000000000E+00 -0.00000000000E+00 -0.35908551775E+01  0.35922753105E+01  0.10100000000E+00 0.  1.
         23    2    1    2    0    0  0.00000000000E+00  0.00000000000E+00  0.57534112958E+03  0.58252426888E+03  0.91198182250E+02 0.  0.
    9000005    2    3    3    0    0 -0.31318682610E+02  0.31056038434E+02  0.31914677091E+03  0.32256102760E+03  0.15672196332E+02 0.  0.
         22    1    3    3    0    0  0.31318682610E+02 -0.31056038434E+02  0.25619435867E+03  0.25996324128E+03  0.00000000000E+00 0.  1.
         22    1    4    4    0    0 -0.44794605591E+01  0.13185248261E+02  0.12238784095E+03  0.12317751398E+03  0.00000000000E+00 0.  1.
         22    1    4    4    0    0 -0.26839222051E+02  0.17870790172E+02  0.19675892996E+03  0.19938351362E+03  0.00000000000E+00 0.  1.
<mgrwt>
<rscale>  0 0.91198182E+02</rscale>
<asrwt>0</asrwt>
<pdfrwt beam="1">  1        3 0.89066528E-01 0.91198182E+02</pdfrwt>
<pdfrwt beam="2">  1       -3 0.55254943E-03 0.91198182E+02</pdfrwt>
<totfact> 0.16067947E+04</totfact>
</mgrwt>
</event>
<event>
 7    1  0.1312339E-009  0.9103819E+02  0.7818608E-02  0.1300357E+00
          3   -1    0    0  501    0  0.00000000000E+00  0.00000000000E+00  0.49312394516E+01  0.49322736673E+01  0.10100000000E+00 0. -1.
         -3   -1    0    0    0  501 -0.00000000000E+00 -0.00000000000E+00 -0.42013080759E+03  0.42013081973E+03  0.10100000000E+00 0.  1.
         23    2    1    2    0    0  0.00000000000E+00  0.00000000000E+00 -0.41519956814E+03  0.42506309340E+03  0.91038189714E+02 0.  0.
    9000005    2    3    3    0    0  0.29169774549E+01 -0.32109695779E+02 -0.35546579305E+03  0.35718330843E+03  0.13581033644E+02 0.  0.
         22    1    3    3    0    0 -0.29169774549E+01  0.32109695779E+02 -0.59733775096E+02  0.67879784971E+02  0.00000000000E+00 0. -1.
         22    1    4    4    0    0  0.59428521055E+01 -0.21064648759E+02 -0.17656950049E+03  0.17792084033E+03  0.00000000000E+00 0. -1.
         22    1    4    4    0    0 -0.30258746506E+01 -0.11045047020E+02 -0.17889629255E+03  0.17926246810E+03  0.00000000000E+00 0. -1.
<mgrwt>
<rscale>  0 0.91038190E+02</rscale>
<asrwt>0</asrwt>
<pdfrwt beam="1">  1        3 0.75873304E-03 0.91038190E+02</pdfrwt>
<pdfrwt beam="2">  1       -3 0.64635561E-01 0.91038190E+02</pdfrwt>
<totfact> 0.19944542E+04</totfact>
</mgrwt>
</event>
<event>
 7    1  0.1312339E-009  0.9279878E+02  0.7818608E-02  0.1296212E+00
         -3   -1    0    0    0  501 -0.00000000000E+00  0.00000000000E+00  0.52786263079E+01  0.52795924747E+01  0.10100000000E+00 0.  1.
          3   -1    0    0  501    0  0.00000000000E+00 -0.00000000000E+00 -0.40781468341E+03  0.40781469592E+03  0.10100000000E+00 0. -1.
         23    2    1    2    0    0  0.35527136788E-14  0.00000000000E+00 -0.40253605711E+03  0.41309428840E+03  0.92798781428E+02 0.  0.
    9000005    2    3    3    0    0  0.27587521059E+02 -0.78830777200E+01 -0.36326004655E+03  0.36445460051E+03  0.67882384121E+01 0.  0.
         22    1    3    3    0    0 -0.27587521059E+02  0.78830777200E+01 -0.39276010560E+02  0.48639687890E+02  0.00000000000E+00 0.  1.
         22    1    4    4    0    0  0.35209820596E+01 -0.23460781679E+01 -0.32556618966E+02  0.32830395001E+02  0.00000000000E+00 0. -1.
         22    1    4    4    0    0  0.24066538999E+02 -0.55369995521E+01 -0.33070342758E+03  0.33162420551E+03  0.00000000000E+00 0. -1.
<mgrwt>
<rscale>  0 0.92798781E+02</rscale>
<asrwt>0</asrwt>
<pdfrwt beam="2">  1        3 0.62740771E-01 0.92798781E+02</pdfrwt>
<pdfrwt beam="1">  1       -3 0.81217196E-03 0.92798781E+02</pdfrwt>
<totfact> 0.19292089E+04</totfact>
</mgrwt>
</event>
<event>
 7    1  0.1312339E-009  0.9151743E+02  0.7818608E-02  0.1299218E+00
         -3   -1    0    0    0  501 -0.00000000000E+00  0.00000000000E+00  0.60330670390E+01  0.60339124038E+01  0.10100000000E+00 0.  1.
          3   -1    0    0  501    0  0.00000000000E+00 -0.00000000000E+00 -0.34703876023E+03  0.34703877493E+03  0.10100000000E+00 0. -1.
         23    2    1    2    0    0  0.00000000000E+00 -0.71054273576E-14 -0.34100569319E+03  0.35307268733E+03  0.91517428670E+02 0.  0.
    9000005    2    3    3    0    0  0.17337718573E+02  0.39136563111E+02 -0.13007087685E+03  0.13783848048E+03  0.15771703675E+02 0.  0.
         22    1    3    3    0    0 -0.17337718573E+02 -0.39136563111E+02 -0.21093481634E+03  0.21523420686E+03  0.00000000000E+00 0. -1.
         22    1    4    4    0    0  0.13252352785E+02  0.11684718877E+02 -0.44494256231E+02  0.47873754262E+02  0.00000000000E+00 0.  1.
         22    1    4    4    0    0  0.40853657877E+01  0.27451844234E+02 -0.85576620624E+02  0.89964726215E+02  0.00000000000E+00 0.  1.
<mgrwt>
<rscale>  0 0.91517429E+02</rscale>
<asrwt>0</asrwt>
<pdfrwt beam="2">  1        3 0.53390629E-01 0.91517429E+02</pdfrwt>
<pdfrwt beam="1">  1       -3 0.92823059E-03 0.91517429E+02</pdfrwt>
<totfact> 0.21893048E+04</totfact>
</mgrwt>
</event>
<event>
 7    1  0.1312339E-009  0.8727505E+02  0.7818608E-02  0.1309588E+00
          3   -1    0    0  501    0  0.00000000000E+00  0.00000000000E+00  0.77687404823E+02  0.77687470477E+02  0.10100000000E+00 0. -1.
         -3   -1    0    0    0  501 -0.00000000000E+00 -0.00000000000E+00 -0.24511301401E+02  0.24511509487E+02  0.10100000000E+00 0.  1.
         23    2    1    2    0    0  0.00000000000E+00  0.00000000000E+00  0.53176103423E+02  0.10219897996E+03  0.87275045292E+02 0.  0.
    9000005    2    3    3    0    0  0.18247429639E+02  0.36946752665E+02  0.10092684176E+02  0.42581765716E+02  0.36487363137E+01 0.  0.
         22    1    3    3    0    0 -0.18247429639E+02 -0.36946752665E+02  0.43083419246E+02  0.59617214249E+02  0.00000000000E+00 0. -1.
         22    1    4    4    0    0  0.16176824635E+02  0.33356497395E+02  0.79456432441E+01  0.37914097909E+02  0.00000000000E+00 0. -1.
         22    1    4    4    0    0  0.20706050041E+01  0.35902552699E+01  0.21470409321E+01  0.46676678063E+01  0.00000000000E+00 0. -1.
<mgrwt>
<rscale>  0 0.87275045E+02</rscale>
<asrwt>0</asrwt>
<pdfrwt beam="1">  1        3 0.11951929E-01 0.87275045E+02</pdfrwt>
<pdfrwt beam="2">  1       -3 0.37709906E-02 0.87275045E+02</pdfrwt>
<totfact> 0.38850812E+04</totfact>
</mgrwt>
</event>
<event>
 7    1  0.1312339E-009  0.9171826E+02  0.7818608E-02  0.1298743E+00
         -3   -1    0    0    0  501 -0.00000000000E+00  0.00000000000E+00  0.14891269753E+02  0.14891612265E+02  0.10100000000E+00 0.  1.
          3   -1    0    0  501    0  0.00000000000E+00 -0.00000000000E+00 -0.14122572222E+03  0.14122575834E+03  0.10100000000E+00 0. -1.
         23    2    1    2    0    0  0.71054273576E-14  0.88817841970E-15 -0.12633445247E+03  0.15611737060E+03  0.91718261669E+02 0.  0.
    9000005    2    3    3    0    0  0.45283793352E+02  0.70729225580E+01 -0.61235840474E+02  0.76502815040E+02  0.14847143338E+01 0.  0.
         22    1    3    3    0    0 -0.45283793352E+02 -0.70729225580E+01 -0.65098611994E+02  0.79614555562E+02  0.00000000000E+00 0.  1.
         22    1    4    4    0    0  0.34718020478E+02  0.50108418402E+01 -0.46045061397E+02  0.57884342969E+02  0.00000000000E+00 0.  1.
         22    1    4    4    0    0  0.10565772874E+02  0.20620807178E+01 -0.15190779077E+02  0.18618472072E+02  0.00000000000E+00 0.  1.
<mgrwt>
<rscale>  0 0.91718262E+02</rscale>
<asrwt>0</asrwt>
<pdfrwt beam="2">  1        3 0.21727062E-01 0.91718262E+02</pdfrwt>
<pdfrwt beam="1">  1       -3 0.22909938E-02 0.91718262E+02</pdfrwt>
<totfact> 0.30444162E+04</totfact>
</mgrwt>
</event>
<event>
 7    1  0.1312339E-009  0.9243029E+02  0.7818608E-02  0.1297071E+00
          3   -1    0    0  501    0  0.00000000000E+00  0.00000000000E+00  0.75710026333E+02  0.75710093702E+02  0.10100000000E+00 0. -1.
         -3   -1    0    0    0  501 -0.00000000000E+00 -0.00000000000E+00 -0.28210621102E+02  0.28210801902E+02  0.10100000000E+00 0.  1.
         23    2    1    2    0    0  0.00000000000E+00  0.00000000000E+00  0.47499405231E+02  0.10392089560E+03  0.92430292901E+02 0.  0.
    9000005    2    3    3    0    0 -0.37179362575E+02  0.27180920066E+02  0.25449041428E+02  0.52858914042E+02  0.50302750398E+01 0.  0.
         22    1    3    3    0    0  0.37179362575E+02 -0.27180920066E+02  0.22050363803E+02  0.51061981562E+02  0.00000000000E+00 0.  1.
         22    1    4    4    0    0 -0.18193970249E+02  0.12162146666E+02  0.94226902093E+01  0.23826990069E+02  0.00000000000E+00 0.  1.
         22    1    4    4    0    0 -0.18985392326E+02  0.15018773400E+02  0.16026351219E+02  0.29031923973E+02  0.00000000000E+00 0.  1.
<mgrwt>
<rscale>  0 0.92430293E+02</rscale>
<asrwt>0</asrwt>
<pdfrwt beam="1">  1        3 0.11647715E-01 0.92430293E+02</pdfrwt>
<pdfrwt beam="2">  1       -3 0.43401147E-02 0.92430293E+02</pdfrwt>
<totfact> 0.33126115E+04</totfact>
</mgrwt>
</event>
<event>
 7    1  0.1493929E-009  0.9408207E+02  0.7818608E-02  0.1293257E+00
          3   -1    0    0  501    0  0.00000000000E+00  0.00000000000E+00  0.77125187214E+02  0.77125253346E+02  0.10100000000E+00 0. -1.
         -3   -1    0    0    0  501 -0.00000000000E+00 -0.00000000000E+00 -0.28691613098E+02  0.28691790867E+02  0.10100000000E+00 0.  1.
         23    2    1    2    0    0  0.00000000000E+00  0.00000000000E+00  0.48433574116E+02  0.10581704421E+03  0.94082069197E+02 0.  0.
    9000005    2    3    3    0    0 -0.30367966125E+02  0.26374821489E+00 -0.13875431929E+02  0.36501135766E+02  0.14748639641E+02 0.  0.
         22    1    3    3    0    0  0.30367966125E+02 -0.26374821489E+00  0.62309006044E+02  0.69315908448E+02  0.00000000000E+00 0. -1.
         22    1    4    4    0    0 -0.23162456882E+02  0.50566594259E-01 -0.28625160915E+01  0.23338722420E+02  0.00000000000E+00 0. -1.
         22    1    4    4    0    0 -0.72055092429E+01  0.21318162063E+00 -0.11012915837E+02  0.13162413346E+02  0.00000000000E+00 0. -1.
<mgrwt>
<rscale>  0 0.94082069E+02</rscale>
<asrwt>0</asrwt>
<pdfrwt beam="1">  1        3 0.11865432E-01 0.94082069E+02</pdfrwt>
<pdfrwt beam="2">  1       -3 0.44141131E-02 0.94082069E+02</pdfrwt>
<totfact> 0.31435507E+04</totfact>
</mgrwt>
</event>
<event>
 7    1  0.1312339E-009  0.8984584E+02  0.7818608E-02  0.1303225E+00
          3   -1    0    0  501    0  0.00000000000E+00  0.00000000000E+00  0.73402210481E+02  0.73402279968E+02  0.10100000000E+00 0. -1.
         -3   -1    0    0    0  501 -0.00000000000E+00 -0.00000000000E+00 -0.27493118588E+02  0.27493304106E+02  0.10100000000E+00 0.  1.
         23    2    1    2    0    0  0.00000000000E+00  0.71054273576E-14  0.45909091894E+02  0.10089558407E+03  0.89845835559E+02 0.  0.
    9000005    2    3    3    0    0 -0.10822211197E+02  0.40515526155E+02  0.56726129469E+01  0.42778440710E+02  0.62600588777E+01 0.  0.
         22    1    3    3    0    0  0.10822211197E+02 -0.40515526155E+02  0.40236478947E+02  0.58117143364E+02  0.00000000000E+00 0. -1.
         22    1    4    4    0    0 -0.97678463465E+01  0.34260889829E+02  0.69769037583E+01  0.36302845345E+02  0.00000000000E+00 0. -1.
         22    1    4    4    0    0 -0.10543648504E+01  0.62546363259E+01 -0.13042908114E+01  0.64755953647E+01  0.00000000000E+00 0. -1.
<mgrwt>
<rscale>  0 0.89845836E+02</rscale>
<asrwt>0</asrwt>
<pdfrwt beam="1">  1        3 0.11292667E-01 0.89845836E+02</pdfrwt>
<pdfrwt beam="2">  1       -3 0.42297301E-02 0.89845836E+02</pdfrwt>
<totfact> 0.36014741E+04</totfact>
</mgrwt>
</event>
<event>
 7    1  0.1312339E-009  0.1000389E+03  0.7818608E-02  0.1280214E+00
          3   -1    0    0  501    0  0.00000000000E+00  0.00000000000E+00  0.60580933786E+02  0.60581017979E+02  0.10100000000E+00 0. -1.
         -3   -1    0    0    0  501 -0.00000000000E+00 -0.00000000000E+00 -0.41299066105E+02  0.41299189606E+02  0.10100000000E+00 0.  1.
         23    2    1    2    0    0  0.44408920985E-15  0.00000000000E+00  0.19281867681E+02  0.10188020759E+03  0.10003892381E+03 0.  0.
    9000005    2    3    3    0    0 -0.34186925919E+01  0.44055279977E+02 -0.13367141437E+02  0.46939212424E+02  0.84884651094E+01 0.  0.
         22    1    3    3    0    0  0.34186925919E+01 -0.44055279977E+02  0.32649009119E+02  0.54940995161E+02  0.00000000000E+00 0. -1.
         22    1    4    4    0    0 -0.35265847402E+00 -0.29265086802E+00 -0.46051733648E+00  0.64968357456E+00  0.00000000000E+00 0. -1.
         22    1    4    4    0    0 -0.30660341178E+01  0.44347930845E+02 -0.12906624101E+02  0.46289528849E+02  0.00000000000E+00 0. -1.
<mgrwt>
<rscale>  0 0.10003892E+03</rscale>
<asrwt>0</asrwt>
<pdfrwt beam="1">  1        3 0.93201597E-02 0.10003892E+03</pdfrwt>
<pdfrwt beam="2">  1       -3 0.63537184E-02 0.10003892E+03</pdfrwt>
<totfact> 0.26784399E+04</totfact>
</mgrwt>
</event>
<event>
 7    1  0.1312339E-009  0.9511215E+02  0.7818608E-02  0.1290924E+00
          3   -1    0    0  501    0  0.00000000000E+00  0.00000000000E+00  0.46602378542E+03  0.46602379636E+03  0.10100000000E+00 0. -1.
         -3   -1    0    0    0  501 -0.00000000000E+00 -0.00000000000E+00 -0.48523918469E+01  0.48534428642E+01  0.10100000000E+00 0.  1.
         23    2    1    2    0    0  0.00000000000E+00 -0.17763568394E-14  0.46117139357E+03  0.47087723923E+03  0.95112145248E+02 0.  0.
    9000005    2    3    3    0    0  0.19920265358E+02  0.13691907680E+02  0.43248080280E+03  0.43336143847E+03  0.13349391418E+02 0.  0.
         22    1    3    3    0    0 -0.19920265358E+02 -0.13691907680E+02  0.28690590766E+02  0.37515800756E+02  0.00000000000E+00 0.  1.
         22    1    4    4    0    0  0.24457669164E+01 -0.27074867999E+01  0.57600664079E+02  0.57716104884E+02  0.00000000000E+00 0. -1.
         22    1    4    4    0    0  0.17474498441E+02  0.16399394479E+02  0.37488013872E+03  0.37564533359E+03  0.00000000000E+00 0. -1.
<mgrwt>
<rscale>  0 0.95112145E+02</rscale>
<asrwt>0</asrwt>
<pdfrwt beam="1">  1        3 0.71696053E-01 0.95112145E+02</pdfrwt>
<pdfrwt beam="2">  1       -3 0.74660346E-03 0.95112145E+02</pdfrwt>
<totfact> 0.16643948E+04</totfact>
</mgrwt>
</event>
<event>
 7    1  0.1312339E-009  0.9218957E+02  0.7818608E-02  0.1297634E+00
          3   -1    0    0  501    0  0.00000000000E+00  0.00000000000E+00  0.12630972823E+02  0.12631376625E+02  0.10100000000E+00 0. -1.
         -3   -1    0    0    0  501 -0.00000000000E+00 -0.00000000000E+00 -0.16821267713E+03  0.16821270746E+03  0.10100000000E+00 0.  1.
         23    2    1    2    0    0  0.00000000000E+00  0.00000000000E+00 -0.15558170431E+03  0.18084408408E+03  0.92189565737E+02 0.  0.
    9000005    2    3    3    0    0  0.36573933170E+02  0.25814091415E+02 -0.56994600850E+02  0.72569263038E+02  0.37273997312E+01 0.  0.
         22    1    3    3    0    0 -0.36573933170E+02 -0.25814091415E+02 -0.98587103462E+02  0.10827482104E+03  0.00000000000E+00 0.  1.
         22    1    4    4    0    0  0.21646390684E+01  0.22142921253E+01 -0.28120325339E+01  0.41828553507E+01  0.00000000000E+00 0. -1.
         22    1    4    4    0    0  0.34409294101E+02  0.23599799289E+02 -0.54182568316E+02  0.68386407687E+02  0.00000000000E+00 0. -1.
<mgrwt>
<rscale>  0 0.92189566E+02</rscale>
<asrwt>0</asrwt>
<pdfrwt beam="1">  1        3 0.19432601E-02 0.92189566E+02</pdfrwt>
<pdfrwt beam="2">  1       -3 0.25878905E-01 0.92189566E+02</pdfrwt>
<totfact> 0.28649765E+04</totfact>
</mgrwt>
</event>
<event>
 7    1  0.1312339E-009  0.9618960E+02  0.7818608E-02  0.1288519E+00
          3   -1    0    0  501    0  0.00000000000E+00  0.00000000000E+00  0.36837082769E+02  0.36837221229E+02  0.10100000000E+00 0. -1.
         -3   -1    0    0    0  501 -0.00000000000E+00 -0.00000000000E+00 -0.62792677113E+02  0.62792758340E+02  0.10100000000E+00 0.  1.
         23    2    1    2    0    0  0.00000000000E+00  0.71054273576E-14 -0.25955594344E+02  0.99629979570E+02  0.96189604175E+02 0.  0.
    9000005    2    3    3    0    0  0.25455757307E+02 -0.39921733982E+02 -0.20869814101E+02  0.52010597120E+02  0.52737698054E+01 0.  0.
         22    1    3    3    0    0 -0.25455757307E+02  0.39921733982E+02 -0.50857802428E+01  0.47619382450E+02  0.00000000000E+00 0. -1.
         22    1    4    4    0    0  0.22983592017E+02 -0.36998206442E+02 -0.17606106525E+02  0.46979652711E+02  0.00000000000E+00 0.  1.
         22    1    4    4    0    0  0.24721652909E+01 -0.29235275399E+01 -0.32637075761E+01  0.50309444088E+01  0.00000000000E+00 0.  1.
<mgrwt>
<rscale>  0 0.96189604E+02</rscale>
<asrwt>0</asrwt>
<pdfrwt beam="1">  1        3 0.56672604E-02 0.96189604E+02</pdfrwt>
<pdfrwt beam="2">  1       -3 0.96604288E-02 0.96189604E+02</pdfrwt>
<totfact> 0.29975859E+04</totfact>
</mgrwt>
</event>
<event>
 7    1  0.1312339E-009  0.8988594E+02  0.7818608E-02  0.1303128E+00
         -3   -1    0    0    0  501 -0.00000000000E+00  0.00000000000E+00  0.14790033625E+02  0.14790378482E+02  0.10100000000E+00 0.  1.
          3   -1    0    0  501    0  0.00000000000E+00 -0.00000000000E+00 -0.13656773595E+03  0.13656777330E+03  0.10100000000E+00 0. -1.
         23    2    1    2    0    0  0.35527136788E-14  0.00000000000E+00 -0.12177770232E+03  0.15135815178E+03  0.89885935087E+02 0.  0.
    9000005    2    3    3    0    0 -0.21414461337E+02 -0.25649827922E+02 -0.13773073381E+02  0.38302887859E+02  0.12685457863E+02 0.  0.
         22    1    3    3    0    0  0.21414461337E+02  0.25649827922E+02 -0.10800462894E+03  0.11305526392E+03  0.00000000000E+00 0. -1.
         22    1    4    4    0    0 -0.13651867127E+02 -0.14684855240E+02 -0.14661349218E+02  0.24838953488E+02  0.00000000000E+00 0.  1.
         22    1    4    4    0    0 -0.77625942095E+01 -0.10964972683E+02  0.88827583727E+00  0.13463934371E+02  0.00000000000E+00 0.  1.
<mgrwt>
<rscale>  0 0.89885935E+02</rscale>
<asrwt>0</asrwt>
<pdfrwt beam="2">  1        3 0.21010449E-01 0.89885935E+02</pdfrwt>
<pdfrwt beam="1">  1       -3 0.22754193E-02 0.89885935E+02</pdfrwt>
<totfact> 0.32450606E+04</totfact>
</mgrwt>
</event>
<event>
 7    1  0.1312339E-009  0.9258794E+02  0.7818608E-02  0.1296703E+00
          3   -1    0    0  501    0  0.00000000000E+00  0.00000000000E+00  0.15427995207E+03  0.15427998513E+03  0.10100000000E+00 0. -1.
         -3   -1    0    0    0  501 -0.00000000000E+00 -0.00000000000E+00 -0.13890967446E+02  0.13891334622E+02  0.10100000000E+00 0.  1.
         23    2    1    2    0    0  0.71054273576E-14  0.00000000000E+00  0.14038898463E+03  0.16817131975E+03  0.92587935410E+02 0.  0.
    9000005    2    3    3    0    0 -0.39783895294E+02 -0.18530151262E+02  0.46671090242E+02  0.64686207016E+02  0.89437063436E+01 0.  0.
         22    1    3    3    0    0  0.39783895294E+02  0.18530151262E+02  0.93717894384E+02  0.10348511274E+03  0.00000000000E+00 0. -1.
         22    1    4    4    0    0 -0.16416873218E+02 -0.86124879318E+01  0.26093655391E+02  0.32008866370E+02  0.00000000000E+00 0. -1.
         22    1    4    4    0    0 -0.23367022077E+02 -0.99176633301E+01  0.20577434852E+02  0.32677340647E+02  0.00000000000E+00 0. -1.
<mgrwt>
<rscale>  0 0.92587935E+02</rscale>
<asrwt>0</asrwt>
<pdfrwt beam="1">  1        3 0.23735409E-01 0.92587935E+02</pdfrwt>
<pdfrwt beam="2">  1       -3 0.21371026E-02 0.92587935E+02</pdfrwt>
<totfact> 0.28998286E+04</totfact>
</mgrwt>
</event>
<event>
 7    1  0.1312339E-009  0.1036216E+03  0.7818608E-02  0.1272859E+00
          3   -1    0    0  501    0  0.00000000000E+00  0.00000000000E+00  0.87216923902E+02  0.87216982383E+02  0.10100000000E+00 0. -1.
         -3   -1    0    0    0  501 -0.00000000000E+00 -0.00000000000E+00 -0.30777815448E+02  0.30777981167E+02  0.10100000000E+00 0.  1.
         23    2    1    2    0    0  0.00000000000E+00  0.00000000000E+00  0.56439108455E+02  0.11799496355E+03  0.10362161194E+03 0.  0.
    9000005    2    3    3    0    0  0.52625817166E+01  0.50987826346E+02  0.33578814877E+02  0.61869690952E+02  0.85363134994E+01 0.  0.
         22    1    3    3    0    0 -0.52625817166E+01 -0.50987826346E+02  0.22860293578E+02  0.56125272598E+02  0.00000000000E+00 0.  1.
         22    1    4    4    0    0  0.95693977054E+00  0.18359949045E+02  0.16907296410E+02  0.24977192287E+02  0.00000000000E+00 0.  1.
         22    1    4    4    0    0  0.43056419460E+01  0.32627877301E+02  0.16671518467E+02  0.36892498665E+02  0.00000000000E+00 0.  1.
<mgrwt>
<rscale>  0 0.10362161E+03</rscale>
<asrwt>0</asrwt>
<pdfrwt beam="1">  1        3 0.13418005E-01 0.10362161E+03</pdfrwt>
<pdfrwt beam="2">  1       -3 0.47350658E-02 0.10362161E+03</pdfrwt>
<totfact> 0.23513461E+04</totfact>
</mgrwt>
</event>
<event>
 7    1  0.1312339E-009  0.9243938E+02  0.7818608E-02  0.1297050E+00
          3   -1    0    0  501    0  0.00000000000E+00  0.00000000000E+00  0.13972388700E+03  0.13972392351E+03  0.10100000000E+00 0. -1.
         -3   -1    0    0    0  501 -0.00000000000E+00 -0.00000000000E+00 -0.15288947302E+02  0.15289280905E+02  0.10100000000E+00 0.  1.
         23    2    1    2    0    0  0.71054273576E-14  0.00000000000E+00  0.12443493970E+03  0.15501320441E+03  0.92439381888E+02 0.  0.
    9000005    2    3    3    0    0 -0.35812718212E+02  0.26928626632E+02  0.43380270248E+02  0.62398080604E+02  0.19927112688E+01 0.  0.
         22    1    3    3    0    0  0.35812718212E+02 -0.26928626632E+02  0.81054669452E+02  0.92615123808E+02  0.00000000000E+00 0. -1.
         22    1    4    4    0    0 -0.12497169714E+02  0.93729303024E+01  0.16457858171E+02  0.22691235508E+02  0.00000000000E+00 0.  1.
         22    1    4    4    0    0 -0.23315548498E+02  0.17555696330E+02  0.26922412077E+02  0.39706845095E+02  0.00000000000E+00 0.  1.
<mgrwt>
<rscale>  0 0.92439382E+02</rscale>
<asrwt>0</asrwt>
<pdfrwt beam="1">  1        3 0.21496011E-01 0.92439382E+02</pdfrwt>
<pdfrwt beam="2">  1       -3 0.23521742E-02 0.92439382E+02</pdfrwt>
<totfact> 0.29867583E+04</totfact>
</mgrwt>
</event>
<event>
 7    1  0.1312339E-009  0.9367401E+02  0.7818608E-02  0.1294191E+00
         -3   -1    0    0    0  501 -0.00000000000E+00  0.00000000000E+00  0.60608319548E+01  0.60616734475E+01  0.10100000000E+00 0. -1.
          3   -1    0    0  501    0  0.00000000000E+00 -0.00000000000E+00 -0.36192184446E+03  0.36192185855E+03  0.10100000000E+00 0.  1.
         23    2    1    2    0    0  0.00000000000E+00  0.00000000000E+00 -0.35586101250E+03  0.36798353200E+03  0.93674007078E+02 0.  0.
    9000005    2    3    3    0    0 -0.28350308765E+02 -0.27147373849E+02 -0.27439378143E+03  0.27755328455E+03  0.14253370333E+02 0.  0.
         22    1    3    3    0    0  0.28350308765E+02  0.27147373849E+02 -0.81467231075E+02  0.90430247445E+02  0.00000000000E+00 0. -1.
         22    1    4    4    0    0 -0.15654321321E+02 -0.23216928930E+02 -0.20437317779E+03  0.20628252317E+03  0.00000000000E+00 0.  1.
         22    1    4    4    0    0 -0.12695987444E+02 -0.39304449193E+01 -0.70020603636E+02  0.71270761382E+02  0.00000000000E+00 0.  1.
<mgrwt>
<rscale>  0 0.93674007E+02</rscale>
<asrwt>0</asrwt>
<pdfrwt beam="2">  1        3 0.55680333E-01 0.93674007E+02</pdfrwt>
<pdfrwt beam="1">  1       -3 0.93250178E-03 0.93674007E+02</pdfrwt>
<totfact> 0.20106036E+04</totfact>
</mgrwt>
</event>
<event>
 7    1  0.1312339E-009  0.9098972E+02  0.7818608E-02  0.1300472E+00
         -3   -1    0    0    0  501 -0.00000000000E+00  0.00000000000E+00  0.29770141356E+03  0.29770143070E+03  0.10100000000E+00 0. -1.
          3   -1    0    0  501    0  0.00000000000E+00 -0.00000000000E+00 -0.69521604723E+01  0.69528940904E+01  0.10100000000E+00 0.  1.
         23    2    1    2    0    0 -0.88817841970E-15  0.00000000000E+00  0.29074925309E+03  0.30465432479E+03  0.90989721608E+02 0.  0.
    9000005    2    3    3    0    0 -0.43380886518E+01 -0.44810550428E+02  0.13920034171E+03  0.14655980564E+03  0.87313833242E+01 0.  0.
         22    1    3    3    0    0  0.43380886518E+01  0.44810550428E+02  0.15154891138E+03  0.15809451915E+03  0.00000000000E+00 0.  1.
         22    1    4    4    0    0 -0.67071862570E+01 -0.24485459161E+02  0.78496677663E+02  0.82500014921E+02  0.00000000000E+00 0.  1.
         22    1    4    4    0    0  0.23690976051E+01 -0.20325091267E+02  0.60703664043E+02  0.64059790717E+02  0.00000000000E+00 0.  1.
<mgrwt>
<rscale>  0 0.90989722E+02</rscale>
<asrwt>0</asrwt>
<pdfrwt beam="2">  1        3 0.10696212E-02 0.90989722E+02</pdfrwt>
<pdfrwt beam="1">  1       -3 0.45800264E-01 0.90989722E+02</pdfrwt>
<totfact> 0.23976132E+04</totfact>
</mgrwt>
</event>
<event>
 7    1  0.1312339E-009  0.9070253E+02  0.7818608E-02  0.1301159E+00
         -3   -1    0    0    0  501 -0.00000000000E+00  0.00000000000E+00  0.15593541405E+02  0.15593868493E+02  0.10100000000E+00 0.  1.
          3   -1    0    0  501    0  0.00000000000E+00 -0.00000000000E+00 -0.13189499434E+03  0.13189503302E+03  0.10100000000E+00 0. -1.
         23    2    1    2    0    0  0.00000000000E+00  0.00000000000E+00 -0.11630145294E+03  0.14748890151E+03  0.90702525391E+02 0.  0.
    9000005    2    3    3    0    0 -0.14244848125E+02 -0.38169772412E+02 -0.29881503612E+02  0.51947000408E+02  0.12072256179E+02 0.  0.
         22    1    3    3    0    0  0.14244848125E+02  0.38169772412E+02 -0.86419949327E+02  0.95541901099E+02  0.00000000000E+00 0. -1.
         22    1    4    4    0    0 -0.70165028918E+01 -0.15725929267E+02 -0.56174714900E+01  0.18113314166E+02  0.00000000000E+00 0. -1.
         22    1    4    4    0    0 -0.72283452328E+01 -0.22443843145E+02 -0.24264032122E+02  0.33833686242E+02  0.00000000000E+00 0. -1.
<mgrwt>
<rscale>  0 0.90702525E+02</rscale>
<asrwt>0</asrwt>
<pdfrwt beam="2">  1        3 0.20291565E-01 0.90702525E+02</pdfrwt>
<pdfrwt beam="1">  1       -3 0.23990346E-02 0.90702525E+02</pdfrwt>
<totfact> 0.31908480E+04</totfact>
</mgrwt>
</event>
<event>
 7    1  0.1312339E-009  0.8954560E+02  0.7818608E-02  0.1303956E+00
          3   -1    0    0  501    0  0.00000000000E+00  0.00000000000E+00  0.38024746375E+02  0.38024880511E+02  0.10100000000E+00 0. -1.
         -3   -1    0    0    0  501 -0.00000000000E+00 -0.00000000000E+00 -0.52718115778E+02  0.52718212528E+02  0.10100000000E+00 0.  1.
         23    2    1    2    0    0  0.00000000000E+00  0.00000000000E+00 -0.14693369403E+02  0.90743093039E+02  0.89545596373E+02 0.  0.
    9000005    2    3    3    0    0 -0.26865953045E+01 -0.33599685685E+02  0.21768071319E+02  0.41088351755E+02  0.88457361812E+01 0.  0.
         22    1    3    3    0    0  0.26865953045E+01  0.33599685685E+02 -0.36461440721E+02  0.49654741283E+02  0.00000000000E+00 0.  1.
         22    1    4    4    0    0  0.76644944898E+00 -0.21218018794E+02  0.92952011996E+01  0.23177414257E+02  0.00000000000E+00 0. -1.
         22    1    4    4    0    0 -0.34530447535E+01 -0.12381666891E+02  0.12472870119E+02  0.17910937499E+02  0.00000000000E+00 0. -1.
<mgrwt>
<rscale>  0 0.89545596E+02</rscale>
<asrwt>0</asrwt>
<pdfrwt beam="1">  1        3 0.58499788E-02 0.89545596E+02</pdfrwt>
<pdfrwt beam="2">  1       -3 0.81104971E-02 0.89545596E+02</pdfrwt>
<totfact> 0.37151620E+04</totfact>
</mgrwt>
</event>
<event>
 7    1  0.1312339E-009  0.9222224E+02  0.7818608E-02  0.1297558E+00
          3   -1    0    0  501    0  0.00000000000E+00  0.00000000000E+00  0.99847590115E+01  0.99852698270E+01  0.10100000000E+00 0. -1.
         -3   -1    0    0    0  501 -0.00000000000E+00 -0.00000000000E+00 -0.21294210265E+03  0.21294212661E+03  0.10100000000E+00 0.  1.
         23    2    1    2    0    0  0.00000000000E+00  0.00000000000E+00 -0.20295734364E+03  0.22292739643E+03  0.92222235617E+02 0.  0.
    9000005    2    3    3    0    0  0.33621312315E+02 -0.30329313533E+02 -0.10830990949E+03  0.11800648959E+03  0.12009795603E+02 0.  0.
         22    1    3    3    0    0 -0.33621312315E+02  0.30329313533E+02 -0.94647434149E+02  0.10492090684E+03  0.00000000000E+00 0. -1.
         22    1    4    4    0    0  0.18615222821E+02 -0.23757740306E+02 -0.63841245464E+02  0.70616296756E+02  0.00000000000E+00 0. -1.
         22    1    4    4    0    0  0.15006089494E+02 -0.65715732273E+01 -0.44468664031E+02  0.47390192838E+02  0.00000000000E+00 0. -1.
<mgrwt>
<rscale>  0 0.92222236E+02</rscale>
<asrwt>0</asrwt>
<pdfrwt beam="1">  1        3 0.15361581E-02 0.92222236E+02</pdfrwt>
<pdfrwt beam="2">  1       -3 0.32760361E-01 0.92222236E+02</pdfrwt>
<totfact> 0.26523405E+04</totfact>
</mgrwt>
</event>
<event>
 7    1  0.1312339E-009  0.9203854E+02  0.7818608E-02  0.1297989E+00
         -3   -1    0    0    0  501 -0.00000000000E+00  0.00000000000E+00  0.13437042693E+02  0.13437422273E+02  0.10100000000E+00 0.  1.
          3   -1    0    0  501    0  0.00000000000E+00 -0.00000000000E+00 -0.15760447390E+03  0.15760450626E+03  0.10100000000E+00 0. -1.
         23    2    1    2    0    0  0.00000000000E+00  0.00000000000E+00 -0.14416743120E+03  0.17104192853E+03  0.92038541363E+02 0.  0.
    9000005    2    3    3    0    0  0.13695283243E+02 -0.32988075953E+02 -0.12415953212E+03  0.13010185081E+03  0.15333891524E+02 0.  0.
         22    1    3    3    0    0 -0.13695283243E+02  0.32988075953E+02 -0.20007899080E+02  0.40940077720E+02  0.00000000000E+00 0.  1.
         22    1    4    4    0    0  0.59897526922E+01 -0.28303164755E+02 -0.10522483128E+03  0.10912933332E+03  0.00000000000E+00 0. -1.
         22    1    4    4    0    0  0.77055305504E+01 -0.46849111977E+01 -0.18934700845E+02  0.20972517495E+02  0.00000000000E+00 0. -1.
<mgrwt>
<rscale>  0 0.92038541E+02</rscale>
<asrwt>0</asrwt>
<pdfrwt beam="2">  1        3 0.24246872E-01 0.92038541E+02</pdfrwt>
<pdfrwt beam="1">  1       -3 0.20672691E-02 0.92038541E+02</pdfrwt>
<totfact> 0.29310683E+04</totfact>
</mgrwt>
</event>
<event>
 7    1  0.1312339E-009  0.9193886E+02  0.7818608E-02  0.1298223E+00
          3   -1    0    0  501    0  0.00000000000E+00  0.00000000000E+00  0.28976841024E+02  0.28977017043E+02  0.10100000000E+00 0. -1.
         -3   -1    0    0    0  501 -0.00000000000E+00 -0.00000000000E+00 -0.72926368978E+02  0.72926438918E+02  0.10100000000E+00 0.  1.
         23    2    1    2    0    0  0.00000000000E+00  0.00000000000E+00 -0.43949527954E+02  0.10190345596E+03  0.91938856472E+02 0.  0.
    9000005    2    3    3    0    0  0.27041996128E+02 -0.35418843207E+02 -0.28560555849E+02  0.54759161809E+02  0.14039104064E+02 0.  0.
         22    1    3    3    0    0 -0.27041996128E+02  0.35418843207E+02 -0.15388972105E+02  0.47144294152E+02  0.00000000000E+00 0.  1.
         22    1    4    4    0    0  0.37663004149E+01 -0.69718778302E+01  0.44561955063E+00  0.79366665596E+01  0.00000000000E+00 0. -1.
         22    1    4    4    0    0  0.23275695713E+02 -0.28446965376E+02 -0.29006175400E+02  0.46822495249E+02  0.00000000000E+00 0. -1.
<mgrwt>
<rscale>  0 0.91938856E+02</rscale>
<asrwt>0</asrwt>
<pdfrwt beam="1">  1        3 0.44579945E-02 0.91938856E+02</pdfrwt>
<pdfrwt beam="2">  1       -3 0.11219460E-01 0.91938856E+02</pdfrwt>
<totfact> 0.33756934E+04</totfact>
</mgrwt>
</event>
<event>
 7    1  0.1312339E-009  0.9161545E+02  0.7818608E-02  0.1298986E+00
         -3   -1    0    0    0  501 -0.00000000000E+00  0.00000000000E+00  0.20737472057E+03  0.20737474516E+03  0.10100000000E+00 0.  1.
          3   -1    0    0  501    0  0.00000000000E+00 -0.00000000000E+00 -0.10118351518E+02  0.10118855589E+02  0.10100000000E+00 0. -1.
         23    2    1    2    0    0  0.00000000000E+00 -0.71054273576E-14  0.19725636905E+03  0.21749360075E+03  0.91615453051E+02 0.  0.
    9000005    2    3    3    0    0  0.84911450059E+01 -0.41125194005E+02  0.13834531739E+03  0.14514795034E+03  0.12849884037E+02 0.  0.
         22    1    3    3    0    0 -0.84911450059E+01  0.41125194005E+02  0.58911051663E+02  0.72345650412E+02  0.00000000000E+00 0. -1.
         22    1    4    4    0    0 -0.32899206312E+01 -0.85303601915E+01  0.24844123249E+02  0.26473025568E+02  0.00000000000E+00 0. -1.
         22    1    4    4    0    0  0.11781065637E+02 -0.32594833814E+02  0.11350119414E+03  0.11867492477E+03  0.00000000000E+00 0. -1.
<mgrwt>
<rscale>  0 0.91615453E+02</rscale>
<asrwt>0</asrwt>
<pdfrwt beam="2">  1        3 0.15567102E-02 0.91615453E+02</pdfrwt>
<pdfrwt beam="1">  1       -3 0.31903841E-01 0.91615453E+02</pdfrwt>
<totfact> 0.27260972E+04</totfact>
</mgrwt>
</event>
<event>
 7    1  0.1312339E-009  0.9252676E+02  0.7818608E-02  0.1296846E+00
          3   -1    0    0  501    0  0.00000000000E+00  0.00000000000E+00  0.12675749716E+02  0.12676152092E+02  0.10100000000E+00 0. -1.
         -3   -1    0    0    0  501 -0.00000000000E+00 -0.00000000000E+00 -0.16884689508E+03  0.16884692529E+03  0.10100000000E+00 0.  1.
         23    2    1    2    0    0  0.00000000000E+00  0.00000000000E+00 -0.15617114536E+03  0.18152307738E+03  0.92526758167E+02 0.  0.
    9000005    2    3    3    0    0 -0.33621038147E+02 -0.11893558027E+02 -0.13427872567E+03  0.13967682344E+03  0.14387769453E+02 0.  0.
         22    1    3    3    0    0  0.33621038147E+02  0.11893558027E+02 -0.21892419689E+02  0.41846253935E+02  0.00000000000E+00 0. -1.
         22    1    4    4    0    0 -0.31026392557E+02 -0.10820967724E+02 -0.13209318047E+03  0.13611884037E+03  0.00000000000E+00 0.  1.
         22    1    4    4    0    0 -0.25946455892E+01 -0.10725903033E+01 -0.21855452043E+01  0.35579830709E+01  0.00000000000E+00 0.  1.
<mgrwt>
<rscale>  0 0.92526758E+02</rscale>
<asrwt>0</asrwt>
<pdfrwt beam="1">  1        3 0.19501487E-02 0.92526758E+02</pdfrwt>
<pdfrwt beam="2">  1       -3 0.25976477E-01 0.92526758E+02</pdfrwt>
<totfact> 0.28331981E+04</totfact>
</mgrwt>
</event>
<event>
 7    1  0.1312339E-009  0.8949714E+02  0.7818608E-02  0.1304074E+00
          3   -1    0    0  501    0  0.00000000000E+00  0.00000000000E+00  0.10924279522E+03  0.10924284190E+03  0.10100000000E+00 0. -1.
         -3   -1    0    0    0  501 -0.00000000000E+00 -0.00000000000E+00 -0.18329937476E+02  0.18330215735E+02  0.10100000000E+00 0.  1.
         23    2    1    2    0    0  0.00000000000E+00  0.00000000000E+00  0.90912857739E+02  0.12757305764E+03  0.89497135894E+02 0.  0.
    9000005    2    3    3    0    0  0.43463937958E+02 -0.31034669308E+01  0.48694952806E+02  0.66901013775E+02  0.14345794000E+02 0.  0.
         22    1    3    3    0    0 -0.43463937958E+02  0.31034669308E+01  0.42217904933E+02  0.60672043865E+02  0.00000000000E+00 0.  1.
         22    1    4    4    0    0  0.11233324393E+02 -0.43661072295E+01  0.62067311900E+01  0.13556326247E+02  0.00000000000E+00 0. -1.
         22    1    4    4    0    0  0.32230613565E+02  0.12626402987E+01  0.42488221616E+02  0.53344687527E+02  0.00000000000E+00 0. -1.
<mgrwt>
<rscale>  0 0.89497136E+02</rscale>
<asrwt>0</asrwt>
<pdfrwt beam="1">  1        3 0.16806609E-01 0.89497136E+02</pdfrwt>
<pdfrwt beam="2">  1       -3 0.28200153E-02 0.89497136E+02</pdfrwt>
<totfact> 0.34425949E+04</totfact>
</mgrwt>
</event>
<event>
 7    1  0.1312339E-009  0.9197466E+02  0.7818608E-02  0.1298139E+00
         -3   -1    0    0    0  501 -0.00000000000E+00  0.00000000000E+00  0.18426600738E+02  0.18426877537E+02  0.10100000000E+00 0.  1.
          3   -1    0    0  501    0  0.00000000000E+00 -0.00000000000E+00 -0.11476958009E+03  0.11476962453E+03  0.10100000000E+00 0. -1.
         23    2    1    2    0    0  0.00000000000E+00  0.00000000000E+00 -0.96342979356E+02  0.13319650207E+03  0.91974662234E+02 0.  0.
    9000005    2    3    3    0    0 -0.27516162032E+02  0.36296420740E+02 -0.47202162756E+02  0.66193597750E+02  0.88870063972E+01 0.  0.
         22    1    3    3    0    0  0.27516162032E+02 -0.36296420740E+02 -0.49140816600E+02  0.67002904322E+02  0.00000000000E+00 0.  1.
         22    1    4    4    0    0 -0.23395912223E+01  0.14984680669E+00 -0.27201386613E+01  0.35910020175E+01  0.00000000000E+00 0.  1.
         22    1    4    4    0    0 -0.25176570810E+02  0.36146573934E+02 -0.44482024095E+02  0.62602595732E+02  0.00000000000E+00 0.  1.
<mgrwt>
<rscale>  0 0.91974662E+02</rscale>
<asrwt>0</asrwt>
<pdfrwt beam="2">  1        3 0.17656883E-01 0.91974662E+02</pdfrwt>
<pdfrwt beam="1">  1       -3 0.28348864E-02 0.91974662E+02</pdfrwt>
<totfact> 0.31609460E+04</totfact>
</mgrwt>
</event>
<event>
 7    1  0.1312339E-009  0.9010477E+02  0.7818608E-02  0.1302598E+00
          3   -1    0    0  501    0  0.00000000000E+00  0.00000000000E+00  0.35810593005E+02  0.35810735435E+02  0.10100000000E+00 0. -1.
         -3   -1    0    0    0  501 -0.00000000000E+00 -0.00000000000E+00 -0.56678951621E+02  0.56679041610E+02  0.10100000000E+00 0.  1.
         23    2    1    2    0    0  0.00000000000E+00  0.35527136788E-14 -0.20868358616E+02  0.92489777045E+02  0.90104774937E+02 0.  0.
    9000005    2    3    3    0    0  0.37221647452E+02 -0.16553517698E+02 -0.26972804775E+02  0.51298342861E+02  0.15637064803E+02 0.  0.
         22    1    3    3    0    0 -0.37221647452E+02  0.16553517698E+02  0.61044461595E+01  0.41191434184E+02  0.00000000000E+00 0. -1.
         22    1    4    4    0    0  0.25810927352E+02 -0.84533551366E+01 -0.91957994291E+01  0.28674481878E+02  0.00000000000E+00 0.  1.
         22    1    4    4    0    0  0.11410720100E+02 -0.81001625614E+01 -0.17777005346E+02  0.22623860984E+02  0.00000000000E+00 0.  1.
<mgrwt>
<rscale>  0 0.90104775E+02</rscale>
<asrwt>0</asrwt>
<pdfrwt beam="1">  1        3 0.55093399E-02 0.90104775E+02</pdfrwt>
<pdfrwt beam="2">  1       -3 0.87198566E-02 0.90104775E+02</pdfrwt>
<totfact> 0.36390296E+04</totfact>
</mgrwt>
</event>
<event>
 7    1  0.1312339E-009  0.9193864E+02  0.7818608E-02  0.1298224E+00
          3   -1    0    0  501    0  0.00000000000E+00  0.00000000000E+00  0.16512745866E+03  0.16512748955E+03  0.10100000000E+00 0. -1.
         -3   -1    0    0    0  501 -0.00000000000E+00 -0.00000000000E+00 -0.12797024869E+02  0.12797423432E+02  0.10100000000E+00 0.  1.
         23    2    1    2    0    0  0.00000000000E+00  0.00000000000E+00  0.15233043380E+03  0.17792491298E+03  0.91938640408E+02 0.  0.
    9000005    2    3    3    0    0  0.44410637752E+02 -0.83178316912E+01  0.89901035081E+02  0.10086051852E+03  0.70112066604E+01 0.  0.
         22    1    3    3    0    0 -0.44410637752E+02  0.83178316912E+01  0.62429398714E+02  0.77064394459E+02  0.00000000000E+00 0. -1.
         22    1    4    4    0    0  0.95598021284E+01  0.89749703265E+00  0.16666466454E+02  0.19234511216E+02  0.00000000000E+00 0. -1.
         22    1    4    4    0    0  0.34850835623E+02 -0.92153287238E+01  0.73234568628E+02  0.81626007309E+02  0.00000000000E+00 0. -1.
<mgrwt>
<rscale>  0 0.91938640E+02</rscale>
<asrwt>0</asrwt>
<pdfrwt beam="1">  1        3 0.25404256E-01 0.91938640E+02</pdfrwt>
<pdfrwt beam="2">  1       -3 0.19688062E-02 0.91938640E+02</pdfrwt>
<totfact> 0.29019743E+04</totfact>
</mgrwt>
</event>
<event>
 7    1  0.1312339E-009  0.9327390E+02  0.7818608E-02  0.1295112E+00
         -3   -1    0    0    0  501 -0.00000000000E+00  0.00000000000E+00  0.70556557341E+01  0.70563785923E+01  0.10100000000E+00 0.  1.
          3   -1    0    0  501    0  0.00000000000E+00 -0.00000000000E+00 -0.30824752579E+03  0.30824754233E+03  0.10100000000E+00 0. -1.
         23    2    1    2    0    0  0.00000000000E+00  0.35527136788E-14 -0.30119187005E+03  0.31530392093E+03  0.93273897557E+02 0.  0.
    9000005    2    3    3    0    0 -0.28499355468E+02 -0.30387237347E+02 -0.87087302824E+02  0.97183854990E+02  0.11176130901E+02 0.  0.
         22    1    3    3    0    0  0.28499355468E+02  0.30387237347E+02 -0.21410456723E+03  0.21812006594E+03  0.00000000000E+00 0. -1.
         22    1    4    4    0    0 -0.24820589172E+02 -0.30205791061E+02 -0.75446789145E+02  0.84974522374E+02  0.00000000000E+00 0. -1.
         22    1    4    4    0    0 -0.36787662958E+01 -0.18144628647E+00 -0.11640513679E+02  0.12209332615E+02  0.00000000000E+00 0. -1.
<mgrwt>
<rscale>  0 0.93273898E+02</rscale>
<asrwt>0</asrwt>
<pdfrwt beam="2">  1        3 0.47422743E-01 0.93273898E+02</pdfrwt>
<pdfrwt beam="1">  1       -3 0.10855426E-02 0.93273898E+02</pdfrwt>
<totfact> 0.22059851E+04</totfact>
</mgrwt>
</event>
<event>
 7    1  0.1312339E-009  0.9254296E+02  0.7818608E-02  0.1296808E+00
         -3   -1    0    0    0  501 -0.00000000000E+00  0.00000000000E+00  0.16921920488E+02  0.16922221900E+02  0.10100000000E+00 0. -1.
          3   -1    0    0  501    0  0.00000000000E+00 -0.00000000000E+00 -0.12652378272E+03  0.12652382304E+03  0.10100000000E+00 0.  1.
         23    2    1    2    0    0 -0.71054273576E-14  0.00000000000E+00 -0.10960186224E+03  0.14344604494E+03  0.92542960847E+02 0.  0.
    9000005    2    3    3    0    0 -0.39136696157E+02  0.53712794780E+01 -0.91286026635E+02  0.99902946023E+02  0.93235366599E+01 0.  0.
         22    1    3    3    0    0  0.39136696157E+02 -0.53712794780E+01 -0.18315835601E+02  0.43543098914E+02  0.00000000000E+00 0. -1.
         22    1    4    4    0    0 -0.16448795255E+02 -0.16826367638E+01 -0.43494419152E+02  0.46531265072E+02  0.00000000000E+00 0.  1.
         22    1    4    4    0    0 -0.22687900902E+02  0.70539162418E+01 -0.47791607483E+02  0.53371680951E+02  0.00000000000E+00 0.  1.
<mgrwt>
<rscale>  0 0.92542961E+02</rscale>
<asrwt>0</asrwt>
<pdfrwt beam="2">  1        3 0.19465223E-01 0.92542961E+02</pdfrwt>
<pdfrwt beam="1">  1       -3 0.26033987E-02 0.92542961E+02</pdfrwt>
<totfact> 0.30457370E+04</totfact>
</mgrwt>
</event>
<event>
 7    1  0.1312339E-009  0.9146414E+02  0.7818608E-02  0.1299344E+00
          3   -1    0    0  501    0  0.00000000000E+00  0.00000000000E+00  0.97603365909E+02  0.97603418166E+02  0.10100000000E+00 0.  1.
         -3   -1    0    0    0  501 -0.00000000000E+00 -0.00000000000E+00 -0.21427590036E+02  0.21427828069E+02  0.10100000000E+00 0. -1.
         23    2    1    2    0    0  0.00000000000E+00  0.00000000000E+00  0.76175775873E+02  0.11903124624E+03  0.91464139150E+02 0.  0.
    9000005    2    3    3    0    0 -0.17319611374E+02 -0.19954939505E+02 -0.78245007778E+01  0.30973225441E+02  0.14140344161E+02 0.  0.
         22    1    3    3    0    0  0.17319611374E+02  0.19954939505E+02  0.84000276651E+02  0.88058020794E+02  0.00000000000E+00 0.  1.
         22    1    4    4    0    0 -0.84664459961E+01 -0.91787781959E+01 -0.11032290731E+02  0.16662596309E+02  0.00000000000E+00 0.  1.
         22    1    4    4    0    0 -0.88531653778E+01 -0.10776161309E+02  0.32077899536E+01  0.14310629132E+02  0.00000000000E+00 0.  1.
<mgrwt>
<rscale>  0 0.91464139E+02</rscale>
<asrwt>0</asrwt>
<pdfrwt beam="1">  1        3 0.15015925E-01 0.91464139E+02</pdfrwt>
<pdfrwt beam="2">  1       -3 0.32965747E-02 0.91464139E+02</pdfrwt>
<totfact> 0.33028695E+04</totfact>
</mgrwt>
</event>
<event>
 7    1  0.1312339E-009  0.8740871E+02  0.7818608E-02  0.1309251E+00
          3   -1    0    0  501    0  0.00000000000E+00  0.00000000000E+00  0.17328317350E+02  0.17328611692E+02  0.10100000000E+00 0. -1.
         -3   -1    0    0    0  501 -0.00000000000E+00 -0.00000000000E+00 -0.11022703351E+03  0.11022707979E+03  0.10100000000E+00 0.  1.
         23    2    1    2    0    0  0.00000000000E+00  0.00000000000E+00 -0.92898716163E+02  0.12755569148E+03  0.87408712173E+02 0.  0.
    9000005    2    3    3    0    0  0.22219703832E+02  0.15342585365E+02  0.16952142091E+01  0.29183328351E+02  0.10939960620E+02 0.  0.
         22    1    3    3    0    0 -0.22219703832E+02 -0.15342585365E+02 -0.94593930372E+02  0.98372363128E+02  0.00000000000E+00 0.  1.
         22    1    4    4    0    0  0.18815260775E+02  0.94770789983E+01 -0.24901483062E+01  0.21213908244E+02  0.00000000000E+00 0. -1.
         22    1    4    4    0    0  0.34044430564E+01  0.58655063664E+01  0.41853625152E+01  0.79694201071E+01  0.00000000000E+00 0. -1.
<mgrwt>
<rscale>  0 0.87408712E+02</rscale>
<asrwt>0</asrwt>
<pdfrwt beam="1">  1        3 0.26659212E-02 0.87408712E+02</pdfrwt>
<pdfrwt beam="2">  1       -3 0.16958031E-01 0.87408712E+02</pdfrwt>
<totfact> 0.36695111E+04</totfact>
</mgrwt>
</event>
<event>
 7    1  0.1312339E-009  0.9004552E+02  0.7818608E-02  0.1302741E+00
         -3   -1    0    0    0  501 -0.00000000000E+00  0.00000000000E+00  0.27164074246E+02  0.27164262011E+02  0.10100000000E+00 0.  1.
          3   -1    0    0  501    0  0.00000000000E+00 -0.00000000000E+00 -0.74621945573E+02  0.74622013924E+02  0.10100000000E+00 0. -1.
         23    2    1    2    0    0  0.00000000000E+00 -0.35527136788E-14 -0.47457871327E+02  0.10178627594E+03  0.90045524142E+02 0.  0.
    9000005    2    3    3    0    0 -0.30938905939E+02  0.21495039498E+02 -0.49296237052E+02  0.64068478913E+02  0.15981188289E+02 0.  0.
         22    1    3    3    0    0  0.30938905939E+02 -0.21495039498E+02  0.18383657243E+01  0.37717797022E+02  0.00000000000E+00 0.  1.
         22    1    4    4    0    0 -0.12509034516E+02  0.23387439132E+01 -0.25013842090E+02  0.28064888450E+02  0.00000000000E+00 0. -1.
         22    1    4    4    0    0 -0.18429871423E+02  0.19156295584E+02 -0.24282394962E+02  0.36003590464E+02  0.00000000000E+00 0. -1.
<mgrwt>
<rscale>  0 0.90045524E+02</rscale>
<asrwt>0</asrwt>
<pdfrwt beam="2">  1        3 0.11480319E-01 0.90045524E+02</pdfrwt>
<pdfrwt beam="1">  1       -3 0.41791081E-02 0.90045524E+02</pdfrwt>
<totfact> 0.35730397E+04</totfact>
</mgrwt>
</event>
<event>
 7    1  0.1312339E-009  0.9272386E+02  0.7818608E-02  0.1296386E+00
         -3   -1    0    0    0  501 -0.00000000000E+00  0.00000000000E+00  0.95274113666E+00  0.95807968013E+00  0.10100000000E+00 0.  1.
          3   -1    0    0  501    0  0.00000000000E+00 -0.00000000000E+00 -0.22497384181E+04  0.22497384203E+04  0.10100000000E+00 0. -1.
         23    2    1    2    0    0  0.11102230246E-15  0.00000000000E+00 -0.22487856769E+04  0.22506965000E+04  0.92723861058E+02 0.  0.
    9000005    2    3    3    0    0 -0.64287904343E+00  0.14393274983E+02 -0.21935562862E+04  0.21936187875E+04  0.81623997921E+01 0.  0.
         22    1    3    3    0    0  0.64287904343E+00 -0.14393274983E+02 -0.55229390773E+02  0.57077712493E+02  0.00000000000E+00 0.  1.
         22    1    4    4    0    0 -0.34273719916E+01  0.24349673659E+01 -0.65650116568E+03  0.65651462778E+03  0.00000000000E+00 0. -1.
         22    1    4    4    0    0  0.27844929482E+01  0.11958307617E+02 -0.15370551205E+04  0.15371041597E+04  0.00000000000E+00 0. -1.
<mgrwt>
<rscale>  0 0.92723861E+02</rscale>
<asrwt>0</asrwt>
<pdfrwt beam="2">  1        3 0.34610977E+00 0.92723861E+02</pdfrwt>
<pdfrwt beam="1">  1       -3 0.14698819E-03 0.92723861E+02</pdfrwt>
<totfact> 0.26486707E+03</totfact>
</mgrwt>
</event>
<event>
 7    1  0.1312339E-009  0.9250708E+02  0.7818608E-02  0.1296892E+00
         -3   -1    0    0    0  501 -0.00000000000E+00  0.00000000000E+00  0.29436036040E+01  0.29453358344E+01  0.10100000000E+00 0.  1.
          3   -1    0    0  501    0  0.00000000000E+00 -0.00000000000E+00 -0.72657737257E+03  0.72657737959E+03  0.10100000000E+00 0. -1.
         23    2    1    2    0    0  0.00000000000E+00  0.00000000000E+00 -0.72363376896E+03  0.72952271542E+03  0.92507084767E+02 0.  0.
    9000005    2    3    3    0    0  0.29704982173E+02  0.21235799919E+02 -0.58146390153E+03  0.58273846432E+03  0.12268001345E+02 0.  0.
         22    1    3    3    0    0 -0.29704982173E+02 -0.21235799919E+02 -0.14216986743E+03  0.14678425110E+03  0.00000000000E+00 0.  1.
         22    1    4    4    0    0 -0.60842217390E+00  0.14036301790E+01 -0.89590264738E+01  0.90887023595E+01  0.00000000000E+00 0. -1.
         22    1    4    4    0    0  0.30313404346E+02  0.19832169740E+02 -0.57250487505E+03  0.57364976196E+03  0.00000000000E+00 0. -1.
<mgrwt>
<rscale>  0 0.92507085E+02</rscale>
<asrwt>0</asrwt>
<pdfrwt beam="2">  1        3 0.11178113E+00 0.92507085E+02</pdfrwt>
<pdfrwt beam="1">  1       -3 0.45299646E-03 0.92507085E+02</pdfrwt>
<totfact> 0.12936972E+04</totfact>
</mgrwt>
</event>
<event>
 7    1  0.1312339E-009  0.9346870E+02  0.7818608E-02  0.1294663E+00
         -3   -1    0    0    0  501 -0.00000000000E+00  0.00000000000E+00  0.78469474809E+02  0.78469539808E+02  0.10100000000E+00 0.  1.
          3   -1    0    0  501    0  0.00000000000E+00 -0.00000000000E+00 -0.27833580526E+02  0.27833763775E+02  0.10100000000E+00 0. -1.
         23    2    1    2    0    0  0.00000000000E+00  0.00000000000E+00  0.50635894283E+02  0.10630330358E+03  0.93468703655E+02 0.  0.
    9000005    2    3    3    0    0  0.30258221116E+02 -0.19013575959E+02  0.58206287757E+02  0.69774043076E+02  0.14260755133E+02 0.  0.
         22    1    3    3    0    0 -0.30258221116E+02  0.19013575959E+02 -0.75703934738E+01  0.36529260507E+02  0.00000000000E+00 0. -1.
         22    1    4    4    0    0  0.28222136852E+02 -0.14694639004E+02  0.56226066195E+02  0.64604891020E+02  0.00000000000E+00 0.  1.
         22    1    4    4    0    0  0.20360842639E+01 -0.43189369547E+01  0.19802215620E+01  0.51691520564E+01  0.00000000000E+00 0.  1.
<mgrwt>
<rscale>  0 0.93468704E+02</rscale>
<asrwt>0</asrwt>
<pdfrwt beam="2">  1        3 0.42821084E-02 0.93468704E+02</pdfrwt>
<pdfrwt beam="1">  1       -3 0.12072246E-01 0.93468704E+02</pdfrwt>
<totfact> 0.31971264E+04</totfact>
</mgrwt>
</event>
<event>
 7    1  0.1312339E-009  0.9030672E+02  0.7818608E-02  0.1302111E+00
          3   -1    0    0  501    0  0.00000000000E+00  0.00000000000E+00  0.22718167384E+03  0.22718169629E+03  0.10100000000E+00 0. -1.
         -3   -1    0    0    0  501 -0.00000000000E+00 -0.00000000000E+00 -0.89741222742E+01  0.89746906126E+01  0.10100000000E+00 0.  1.
         23    2    1    2    0    0  0.17763568394E-14  0.00000000000E+00  0.21820755156E+03  0.23615638690E+03  0.90306719102E+02 0.  0.
    9000005    2    3    3    0    0  0.11734765589E+02 -0.33925588101E+02  0.45351163355E+02  0.59611828231E+02  0.14428852899E+02 0.  0.
         22    1    3    3    0    0 -0.11734765589E+02  0.33925588101E+02  0.17285638821E+03  0.17654455867E+03  0.00000000000E+00 0. -1.
         22    1    4    4    0    0  0.12964797925E+02 -0.18913643526E+02  0.21692891185E+02  0.31565700129E+02  0.00000000000E+00 0. -1.
         22    1    4    4    0    0 -0.12300323355E+01 -0.15011944576E+02  0.23658272170E+02  0.28046128102E+02  0.00000000000E+00 0. -1.
<mgrwt>
<rscale>  0 0.90306719E+02</rscale>
<asrwt>0</asrwt>
<pdfrwt beam="1">  1        3 0.34951070E-01 0.90306719E+02</pdfrwt>
<pdfrwt beam="2">  1       -3 0.13806797E-02 0.90306719E+02</pdfrwt>
<totfact> 0.27429126E+04</totfact>
</mgrwt>
</event>
<event>
 7    1  0.1312339E-009  0.8912270E+02  0.7818608E-02  0.1304990E+00
         -3   -1    0    0    0  501 -0.00000000000E+00  0.00000000000E+00  0.28859288362E+01  0.28876956640E+01  0.10100000000E+00 0.  1.
          3   -1    0    0  501    0  0.00000000000E+00 -0.00000000000E+00 -0.68785514115E+03  0.68785514856E+03  0.10100000000E+00 0. -1.
         23    2    1    2    0    0  0.77715611724E-15  0.00000000000E+00 -0.68496921231E+03  0.69074284423E+03  0.89122696525E+02 0.  0.
    9000005    2    3    3    0    0  0.15317254824E+00  0.29445188611E+02 -0.59795004982E+03  0.59887676107E+03  0.15558607700E+02 0.  0.
         22    1    3    3    0    0 -0.15317254824E+00 -0.29445188611E+02 -0.87019162490E+02  0.91866083157E+02  0.00000000000E+00 0.  1.
         22    1    4    4    0    0 -0.63526496828E+01  0.53963325740E+01 -0.16528160351E+03  0.16549164638E+03  0.00000000000E+00 0.  1.
         22    1    4    4    0    0  0.65058222310E+01  0.24048856037E+02 -0.43266844631E+03  0.43338511469E+03  0.00000000000E+00 0.  1.
<mgrwt>
<rscale>  0 0.89122697E+02</rscale>
<asrwt>0</asrwt>
<pdfrwt beam="2">  1        3 0.10582387E+00 0.89122697E+02</pdfrwt>
<pdfrwt beam="1">  1       -3 0.44412608E-03 0.89122697E+02</pdfrwt>
<totfact> 0.14950797E+04</totfact>
</mgrwt>
</event>
<event>
 7    1  0.1312339E-009  0.9070046E+02  0.7818608E-02  0.1301164E+00
          3   -1    0    0  501    0  0.00000000000E+00  0.00000000000E+00  0.10394735368E+02  0.10395226038E+02  0.10100000000E+00 0. -1.
         -3   -1    0    0    0  501 -0.00000000000E+00 -0.00000000000E+00 -0.19784914217E+03  0.19784916795E+03  0.10100000000E+00 0.  1.
         23    2    1    2    0    0  0.00000000000E+00  0.00000000000E+00 -0.18745440680E+03  0.20824439399E+03  0.90700457540E+02 0.  0.
    9000005    2    3    3    0    0 -0.42753921288E+02  0.10237230734E+02 -0.81168890240E+02  0.93225657648E+02  0.13035943481E+02 0.  0.
         22    1    3    3    0    0  0.42753921288E+02 -0.10237230734E+02 -0.10628551656E+03  0.11501873634E+03  0.00000000000E+00 0. -1.
         22    1    4    4    0    0 -0.25749069819E+02  0.15169258000E+01 -0.37037049642E+02  0.45133786752E+02  0.00000000000E+00 0.  1.
         22    1    4    4    0    0 -0.17004851468E+02  0.87203049336E+01 -0.44131840599E+02  0.48091870895E+02  0.00000000000E+00 0.  1.
<mgrwt>
<rscale>  0 0.90700458E+02</rscale>
<asrwt>0</asrwt>
<pdfrwt beam="1">  1        3 0.15992299E-02 0.90700458E+02</pdfrwt>
<pdfrwt beam="2">  1       -3 0.30438366E-01 0.90700458E+02</pdfrwt>
<totfact> 0.28475181E+04</totfact>
</mgrwt>
</event>
<event>
 7    1  0.1312339E-009  0.8911991E+02  0.7818608E-02  0.1304997E+00
          3   -1    0    0  501    0  0.00000000000E+00  0.00000000000E+00  0.35097783765E+02  0.35097929087E+02  0.10100000000E+00 0. -1.
         -3   -1    0    0    0  501 -0.00000000000E+00 -0.00000000000E+00 -0.56572765734E+02  0.56572855892E+02  0.10100000000E+00 0.  1.
         23    2    1    2    0    0  0.00000000000E+00  0.00000000000E+00 -0.21474981969E+02  0.91670784979E+02  0.89119907811E+02 0.  0.
    9000005    2    3    3    0    0  0.34834297190E+02 -0.14354570053E+02  0.11909899237E+02  0.41331613003E+02  0.12123307776E+02 0.  0.
         22    1    3    3    0    0 -0.34834297190E+02  0.14354570053E+02 -0.33384881206E+02  0.50339171976E+02  0.00000000000E+00 0.  1.
         22    1    4    4    0    0  0.33447448402E+02 -0.15596112145E+02  0.13055318650E+02  0.39146032541E+02  0.00000000000E+00 0. -1.
         22    1    4    4    0    0  0.13868487877E+01  0.12415420915E+01 -0.11454194122E+01  0.21855804618E+01  0.00000000000E+00 0. -1.
<mgrwt>
<rscale>  0 0.89119908E+02</rscale>
<asrwt>0</asrwt>
<pdfrwt beam="1">  1        3 0.53996772E-02 0.89119908E+02</pdfrwt>
<pdfrwt beam="2">  1       -3 0.87035205E-02 0.89119908E+02</pdfrwt>
<totfact> 0.37559112E+04</totfact>
</mgrwt>
</event>
<event>
 7    1  0.1312339E-009  0.9150574E+02  0.7818608E-02  0.1299246E+00
          3   -1    0    0  501    0  0.00000000000E+00  0.00000000000E+00  0.57529675008E+03  0.57529675895E+03  0.10100000000E+00 0. -1.
         -3   -1    0    0    0  501 -0.00000000000E+00 -0.00000000000E+00 -0.36379777127E+01  0.36393794578E+01  0.10100000000E+00 0.  1.
         23    2    1    2    0    0  0.00000000000E+00  0.00000000000E+00  0.57165877237E+03  0.57893613840E+03  0.91505739302E+02 0.  0.
    9000005    2    3    3    0    0 -0.35071962681E+02  0.44459636770E+01  0.46804928171E+03  0.46946132069E+03  0.86018809026E+01 0.  0.
         22    1    3    3    0    0  0.35071962681E+02 -0.44459636770E+01  0.10360949066E+03  0.10947481772E+03  0.00000000000E+00 0.  1.
         22    1    4    4    0    0 -0.33544462017E+02  0.61002324010E+01  0.43345161582E+03  0.43479046336E+03  0.00000000000E+00 0.  1.
         22    1    4    4    0    0 -0.15275006635E+01 -0.16542687240E+01  0.34597665888E+02  0.34670857332E+02  0.00000000000E+00 0.  1.
<mgrwt>
<rscale>  0 0.91505739E+02</rscale>
<asrwt>0</asrwt>
<pdfrwt beam="1">  1        3 0.88507299E-01 0.91505739E+02</pdfrwt>
<pdfrwt beam="2">  1       -3 0.55979740E-03 0.91505739E+02</pdfrwt>
<totfact> 0.15997081E+04</totfact>
</mgrwt>
</event>
<event>
 7    1  0.1312339E-009  0.9493276E+02  0.7818608E-02  0.1291328E+00
          3   -1    0    0  501    0  0.00000000000E+00  0.00000000000E+00  0.93960838834E+01  0.93966267003E+01  0.10100000000E+00 0. -1.
         -3   -1    0    0    0  501 -0.00000000000E+00 -0.00000000000E+00 -0.23977937098E+03  0.23977939225E+03  0.10100000000E+00 0.  1.
         23    2    1    2    0    0  0.00000000000E+00  0.00000000000E+00 -0.23038328709E+03  0.24917601895E+03  0.94932762770E+02 0.  0.
    9000005    2    3    3    0    0 -0.18547859766E+02  0.42465345369E+02 -0.11039428878E+03  0.12054986152E+03  0.14072720332E+02 0.  0.
         22    1    3    3    0    0  0.18547859766E+02 -0.42465345369E+02 -0.11998899831E+03  0.12862615743E+03  0.00000000000E+00 0.  1.
         22    1    4    4    0    0 -0.43992782599E+01  0.14998686336E+02 -0.54353845903E+02  0.56556651293E+02  0.00000000000E+00 0. -1.
         22    1    4    4    0    0 -0.14148581506E+02  0.27466659033E+02 -0.56040442881E+02  0.63993210229E+02  0.00000000000E+00 0. -1.
<mgrwt>
<rscale>  0 0.94932763E+02</rscale>
<asrwt>0</asrwt>
<pdfrwt beam="1">  1        3 0.14455949E-02 0.94932763E+02</pdfrwt>
<pdfrwt beam="2">  1       -3 0.36889173E-01 0.94932763E+02</pdfrwt>
<totfact> 0.23437211E+04</totfact>
</mgrwt>
</event>
<event>
 7    1  0.1312339E-009  0.8638015E+02  0.7818608E-02  0.1311862E+00
         -3   -1    0    0    0  501 -0.00000000000E+00  0.00000000000E+00  0.56744024515E+02  0.56744114401E+02  0.10100000000E+00 0.  1.
          3   -1    0    0  501    0  0.00000000000E+00 -0.00000000000E+00 -0.32873445571E+02  0.32873600726E+02  0.10100000000E+00 0. -1.
         23    2    1    2    0    0  0.00000000000E+00  0.17763568394E-14  0.23870578944E+02  0.89617715127E+02  0.86380150066E+02 0.  0.
    9000005    2    3    3    0    0  0.18298549300E+02 -0.10314085043E+02 -0.27182531452E+02  0.34412304723E+02  0.20247082369E+01 0.  0.
         22    1    3    3    0    0 -0.18298549300E+02  0.10314085043E+02  0.51053110396E+02  0.55205410404E+02  0.00000000000E+00 0.  1.
         22    1    4    4    0    0  0.14662025906E+02 -0.88833473905E+01 -0.23030384245E+02  0.28710406877E+02  0.00000000000E+00 0.  1.
         22    1    4    4    0    0  0.36365233934E+01 -0.14307376525E+01 -0.41521472067E+01  0.57018978460E+01  0.00000000000E+00 0.  1.
<mgrwt>
<rscale>  0 0.86380150E+02</rscale>
<asrwt>0</asrwt>
<pdfrwt beam="2">  1        3 0.50574720E-02 0.86380150E+02</pdfrwt>
<pdfrwt beam="1">  1       -3 0.87298688E-02 0.86380150E+02</pdfrwt>
<totfact> 0.41058246E+04</totfact>
</mgrwt>
</event>
<event>
 7    1  0.1312339E-009  0.9189481E+02  0.7818608E-02  0.1298327E+00
          3   -1    0    0  501    0  0.00000000000E+00  0.00000000000E+00  0.45241781319E+02  0.45241894058E+02  0.10100000000E+00 0. -1.
         -3   -1    0    0    0  501 -0.00000000000E+00 -0.00000000000E+00 -0.46663806780E+02  0.46663916083E+02  0.10100000000E+00 0.  1.
         23    2    1    2    0    0  0.00000000000E+00 -0.71054273576E-14 -0.14220254612E+01  0.91905810141E+02  0.91894808239E+02 0.  0.
    9000005    2    3    3    0    0 -0.14042677074E+02  0.42278862003E+02 -0.72350826962E+01  0.46978195180E+02  0.13034778442E+02 0.  0.
         22    1    3    3    0    0  0.14042677074E+02 -0.42278862003E+02  0.58130572350E+01  0.44927614961E+02  0.00000000000E+00 0. -1.
         22    1    4    4    0    0  0.15651226710E+01  0.37816522411E+01  0.17920357202E+01  0.44678736184E+01  0.00000000000E+00 0. -1.
         22    1    4    4    0    0 -0.15607799745E+02  0.38497209762E+02 -0.90271184164E+01  0.42510321561E+02  0.00000000000E+00 0. -1.
<mgrwt>
<rscale>  0 0.91894808E+02</rscale>
<asrwt>0</asrwt>
<pdfrwt beam="1">  1        3 0.69602911E-02 0.91894808E+02</pdfrwt>
<pdfrwt beam="2">  1       -3 0.71790643E-02 0.91894808E+02</pdfrwt>
<totfact> 0.34534956E+04</totfact>
</mgrwt>
</event>
<event>
 7    1  0.1312339E-009  0.9046034E+02  0.7818608E-02  0.1301741E+00
         -3   -1    0    0    0  501 -0.00000000000E+00  0.00000000000E+00  0.12333863347E+02  0.12334276876E+02  0.10100000000E+00 0.  1.
          3   -1    0    0  501    0  0.00000000000E+00 -0.00000000000E+00 -0.16586275091E+03  0.16586278166E+03  0.10100000000E+00 0. -1.
         23    2    1    2    0    0  0.00000000000E+00  0.00000000000E+00 -0.15352888756E+03  0.17819705853E+03  0.90460335810E+02 0.  0.
    9000005    2    3    3    0    0  0.37932700115E+02  0.22021063863E+02 -0.80571963384E+02  0.93070506995E+02  0.15699076314E+02 0.  0.
         22    1    3    3    0    0 -0.37932700115E+02 -0.22021063863E+02 -0.72956924177E+02  0.85126551540E+02  0.00000000000E+00 0.  1.
         22    1    4    4    0    0  0.25475509255E+02  0.57890081012E+01 -0.45111526337E+02  0.52130259879E+02  0.00000000000E+00 0.  1.
         22    1    4    4    0    0  0.12457190860E+02  0.16232055762E+02 -0.35460437046E+02  0.40940247116E+02  0.00000000000E+00 0.  1.
<mgrwt>
<rscale>  0 0.90460336E+02</rscale>
<asrwt>0</asrwt>
<pdfrwt beam="2">  1        3 0.25517379E-01 0.90460336E+02</pdfrwt>
<pdfrwt beam="1">  1       -3 0.18975517E-02 0.90460336E+02</pdfrwt>
<totfact> 0.30303935E+04</totfact>
</mgrwt>
</event>
<event>
 7    1  0.1312339E-009  0.9463574E+02  0.7818608E-02  0.1291999E+00
         -3   -1    0    0    0  501 -0.00000000000E+00  0.00000000000E+00  0.12534129475E+03  0.12534133544E+03  0.10100000000E+00 0.  1.
          3   -1    0    0  501    0  0.00000000000E+00 -0.00000000000E+00 -0.17862888245E+02  0.17863173779E+02  0.10100000000E+00 0. -1.
         23    2    1    2    0    0  0.35527136788E-14 -0.71054273576E-14  0.10747840650E+03  0.14320450922E+03  0.94635741645E+02 0.  0.
    9000005    2    3    3    0    0 -0.18961318910E+02  0.41375152388E+02  0.34866019229E+02  0.57507405211E+02  0.44752103055E+01 0.  0.
         22    1    3    3    0    0  0.18961318910E+02 -0.41375152388E+02  0.72612387273E+02  0.85697104008E+02  0.00000000000E+00 0. -1.
         22    1    4    4    0    0 -0.54907724073E+01  0.82844668698E+01  0.63393626919E+01  0.11788489822E+02  0.00000000000E+00 0.  1.
         22    1    4    4    0    0 -0.13470546503E+02  0.33090685519E+02  0.28526656537E+02  0.45718915389E+02  0.00000000000E+00 0.  1.
<mgrwt>
<rscale>  0 0.94635742E+02</rscale>
<asrwt>0</asrwt>
<pdfrwt beam="2">  1        3 0.27481617E-02 0.94635742E+02</pdfrwt>
<pdfrwt beam="1">  1       -3 0.19283302E-01 0.94635742E+02</pdfrwt>
<totfact> 0.28673853E+04</totfact>
</mgrwt>
</event>
<event>
 7    1  0.1312339E-009  0.9182092E+02  0.7818608E-02  0.1298501E+00
          3   -1    0    0  501    0  0.00000000000E+00  0.00000000000E+00  0.12887702183E+02  0.12888097942E+02  0.10100000000E+00 0. -1.
         -3   -1    0    0    0  501 -0.00000000000E+00 -0.00000000000E+00 -0.16354604882E+03  0.16354608001E+03  0.10100000000E+00 0.  1.
         23    2    1    2    0    0  0.44408920985E-15  0.00000000000E+00 -0.15065834664E+03  0.17643417795E+03  0.91820922113E+02 0.  0.
    9000005    2    3    3    0    0  0.89988576506E+00 -0.42579407028E+02 -0.45505810748E+02  0.62984314569E+02  0.90790623222E+01 0.  0.
         22    1    3    3    0    0 -0.89988576506E+00  0.42579407028E+02 -0.10515253589E+03  0.11344986338E+03  0.00000000000E+00 0.  1.
         22    1    4    4    0    0 -0.36150397865E+01 -0.98527474374E+01 -0.11668229528E+02  0.15693716101E+02  0.00000000000E+00 0. -1.
         22    1    4    4    0    0  0.45149255516E+01 -0.32726659591E+02 -0.33837581220E+02  0.47290598468E+02  0.00000000000E+00 0. -1.
<mgrwt>
<rscale>  0 0.91820922E+02</rscale>
<asrwt>0</asrwt>
<pdfrwt beam="1">  1        3 0.19827564E-02 0.91820922E+02</pdfrwt>
<pdfrwt beam="2">  1       -3 0.25160962E-01 0.91820922E+02</pdfrwt>
<totfact> 0.29201909E+04</totfact>
</mgrwt>
</event>
<event>
 7    1  0.1312339E-009  0.9204006E+02  0.7818608E-02  0.1297985E+00
          3   -1    0    0  501    0  0.00000000000E+00  0.00000000000E+00  0.27545987324E+02  0.27546172486E+02  0.10100000000E+00 0. -1.
         -3   -1    0    0    0  501 -0.00000000000E+00 -0.00000000000E+00 -0.76883434473E+02  0.76883500814E+02  0.10100000000E+00 0.  1.
         23    2    1    2    0    0  0.00000000000E+00  0.00000000000E+00 -0.49337447149E+02  0.10442967330E+03  0.92040061790E+02 0.  0.
    9000005    2    3    3    0    0  0.42233504736E+02  0.15355445281E+02 -0.17639142479E+02  0.49436572450E+02  0.10647850775E+02 0.  0.
         22    1    3    3    0    0 -0.42233504736E+02 -0.15355445281E+02 -0.31698304671E+02  0.54993100850E+02  0.00000000000E+00 0.  1.
         22    1    4    4    0    0  0.32675770151E+02  0.69070744617E+01 -0.13534966613E+02  0.36036217252E+02  0.00000000000E+00 0. -1.
         22    1    4    4    0    0  0.95577345850E+01  0.84483708197E+01 -0.41041758659E+01  0.13400355198E+02  0.00000000000E+00 0. -1.
<mgrwt>
<rscale>  0 0.92040062E+02</rscale>
<asrwt>0</asrwt>
<pdfrwt beam="1">  1        3 0.42378636E-02 0.92040062E+02</pdfrwt>
<pdfrwt beam="2">  1       -3 0.11828240E-01 0.92040062E+02</pdfrwt>
<totfact> 0.33476241E+04</totfact>
</mgrwt>
</event>
<event>
 7    1  0.1312339E-009  0.8644844E+02  0.7818608E-02  0.1311688E+00
         -3   -1    0    0    0  501 -0.00000000000E+00  0.00000000000E+00  0.68686734307E+01  0.68694159649E+01  0.10100000000E+00 0.  1.
          3   -1    0    0  501    0  0.00000000000E+00 -0.00000000000E+00 -0.27199238946E+03  0.27199240821E+03  0.10100000000E+00 0. -1.
         23    2    1    2    0    0  0.00000000000E+00 -0.88817841970E-15 -0.26512371603E+03  0.27886182418E+03  0.86448436552E+02 0.  0.
    9000005    2    3    3    0    0 -0.81949713060E+01  0.64947261366E+01 -0.26749579182E+03  0.26813961518E+03  0.15346516325E+02 0.  0.
         22    1    3    3    0    0  0.81949713060E+01 -0.64947261366E+01  0.23720757908E+01  0.10722209001E+02  0.00000000000E+00 0.  1.
         22    1    4    4    0    0 -0.10513532004E+02  0.40994415998E+01 -0.25354731253E+03  0.25379830470E+03  0.00000000000E+00 0. -1.
         22    1    4    4    0    0  0.23185606980E+01  0.23952845368E+01 -0.13948479288E+02  0.14341310476E+02  0.00000000000E+00 0. -1.
<mgrwt>
<rscale>  0 0.86448437E+02</rscale>
<asrwt>0</asrwt>
<pdfrwt beam="2">  1        3 0.41845033E-01 0.86448437E+02</pdfrwt>
<pdfrwt beam="1">  1       -3 0.10567778E-02 0.86448437E+02</pdfrwt>
<totfact> 0.28680450E+04</totfact>
</mgrwt>
</event>
<event>
 7    1  0.1312339E-009  0.9233196E+02  0.7818608E-02  0.1297301E+00
          3   -1    0    0  501    0  0.00000000000E+00  0.00000000000E+00  0.11414512738E+02  0.11414959573E+02  0.10100000000E+00 0. -1.
         -3   -1    0    0    0  501 -0.00000000000E+00 -0.00000000000E+00 -0.18671413017E+03  0.18671415749E+03  0.10100000000E+00 0.  1.
         23    2    1    2    0    0  0.71054273576E-14  0.00000000000E+00 -0.17529961743E+03  0.19812911706E+03  0.92331961721E+02 0.  0.
    9000005    2    3    3    0    0  0.38587807922E+02 -0.23090804316E+02 -0.10313411257E+03  0.11309933254E+03  0.11515627660E+02 0.  0.
         22    1    3    3    0    0 -0.38587807922E+02  0.23090804316E+02 -0.72165504863E+02  0.85029784525E+02  0.00000000000E+00 0.  1.
         22    1    4    4    0    0  0.37379645988E+02 -0.19443257516E+02 -0.98106316623E+02  0.10677137987E+03  0.00000000000E+00 0.  1.
         22    1    4    4    0    0  0.12081619338E+01 -0.36475468005E+01 -0.50277959455E+01  0.63279526697E+01  0.00000000000E+00 0.  1.
<mgrwt>
<rscale>  0 0.92331962E+02</rscale>
<asrwt>0</asrwt>
<pdfrwt beam="1">  1        3 0.17561155E-02 0.92331962E+02</pdfrwt>
<pdfrwt beam="2">  1       -3 0.28725285E-01 0.92331962E+02</pdfrwt>
<totfact> 0.27637322E+04</totfact>
</mgrwt>
</event>
<event>
 7    1  0.1312339E-009  0.9140771E+02  0.7818608E-02  0.1299478E+00
          3   -1    0    0  501    0  0.00000000000E+00  0.00000000000E+00  0.17910549561E+01  0.17939004587E+01  0.10100000000E+00 0. -1.
         -3   -1    0    0    0  501 -0.00000000000E+00 -0.00000000000E+00 -0.11653351527E+04  0.11653351571E+04  0.10100000000E+00 0.  1.
         23    2    1    2    0    0 -0.22204460493E-15  0.35527136788E-14 -0.11635440978E+04  0.11671290576E+04  0.91407710557E+02 0.  0.
    9000005    2    3    3    0    0  0.14251605404E+01 -0.19461460169E+02 -0.11092568018E+04  0.11094411904E+04  0.53219442896E+01 0.  0.
         22    1    3    3    0    0 -0.14251605404E+01  0.19461460169E+02 -0.54287295964E+02  0.57687867161E+02  0.00000000000E+00 0. -1.
         22    1    4    4    0    0  0.18763056628E+01 -0.19682642741E+01 -0.16014356246E+03  0.16016664817E+03  0.00000000000E+00 0.  1.
         22    1    4    4    0    0 -0.45114512237E+00 -0.17493195894E+02 -0.94911323935E+03  0.94927454224E+03  0.00000000000E+00 0.  1.
<mgrwt>
<rscale>  0 0.91407711E+02</rscale>
<asrwt>0</asrwt>
<pdfrwt beam="1">  1        3 0.27576707E-03 0.91407711E+02</pdfrwt>
<pdfrwt beam="2">  1       -3 0.17928194E+00 0.91407711E+02</pdfrwt>
<totfact> 0.83644016E+03</totfact>
</mgrwt>
</event>
<event>
 7    1  0.1312339E-009  0.9061706E+02  0.7818608E-02  0.1301364E+00
          3   -1    0    0  501    0  0.00000000000E+00  0.00000000000E+00  0.37970226435E+02  0.37970360763E+02  0.10100000000E+00 0. -1.
         -3   -1    0    0    0  501 -0.00000000000E+00 -0.00000000000E+00 -0.54064785577E+02  0.54064879918E+02  0.10100000000E+00 0.  1.
         23    2    1    2    0    0  0.00000000000E+00  0.35527136788E-14 -0.16094559143E+02  0.92035240681E+02  0.90617055200E+02 0.  0.
    9000005    2    3    3    0    0 -0.29837934386E+02  0.30690672045E+02  0.30205615405E+01  0.45156593967E+02  0.14063232473E+02 0.  0.
         22    1    3    3    0    0  0.29837934386E+02 -0.30690672045E+02 -0.19115120683E+02  0.46878646714E+02  0.00000000000E+00 0.  1.
         22    1    4    4    0    0 -0.25374602605E+02  0.22561308496E+02 -0.30209747986E+01  0.34088258787E+02  0.00000000000E+00 0. -1.
         22    1    4    4    0    0 -0.44633317818E+01  0.81293635497E+01  0.60415363391E+01  0.11068335180E+02  0.00000000000E+00 0. -1.
<mgrwt>
<rscale>  0 0.90617055E+02</rscale>
<asrwt>0</asrwt>
<pdfrwt beam="1">  1        3 0.58415909E-02 0.90617055E+02</pdfrwt>
<pdfrwt beam="2">  1       -3 0.83176769E-02 0.90617055E+02</pdfrwt>
<totfact> 0.35869497E+04</totfact>
</mgrwt>
</event>
<event>
 7    1  0.1312339E-009  0.9334655E+02  0.7818608E-02  0.1294944E+00
          3   -1    0    0  501    0  0.00000000000E+00  0.00000000000E+00  0.64189910236E+01  0.64197855698E+01  0.10100000000E+00 0. -1.
         -3   -1    0    0    0  501 -0.00000000000E+00 -0.00000000000E+00 -0.33934536650E+03  0.33934538153E+03  0.10100000000E+00 0.  1.
         23    2    1    2    0    0  0.00000000000E+00  0.71054273576E-14 -0.33292637548E+03  0.34576516710E+03  0.93346554794E+02 0.  0.
    9000005    2    3    3    0    0  0.12575042383E+02  0.44251247062E+02 -0.19452868390E+03  0.19992201302E+03  0.33313471469E+01 0.  0.
         22    1    3    3    0    0 -0.12575042383E+02 -0.44251247062E+02 -0.13839769158E+03  0.14584315408E+03  0.00000000000E+00 0. -1.
         22    1    4    4    0    0  0.10249332172E+02  0.33168512005E+02 -0.14131610020E+03  0.14551783112E+03  0.00000000000E+00 0.  1.
         22    1    4    4    0    0  0.23257102117E+01  0.11082735058E+02 -0.53212583702E+02  0.54404181903E+02  0.00000000000E+00 0.  1.
<mgrwt>
<rscale>  0 0.93346555E+02</rscale>
<asrwt>0</asrwt>
<pdfrwt beam="1">  1        3 0.98759962E-03 0.93346555E+02</pdfrwt>
<pdfrwt beam="2">  1       -3 0.52207028E-01 0.93346555E+02</pdfrwt>
<totfact> 0.20982887E+04</totfact>
</mgrwt>
</event>
<event>
 7    1  0.1312339E-009  0.9103699E+02  0.7818608E-02  0.1300360E+00
         -3   -1    0    0    0  501 -0.00000000000E+00  0.00000000000E+00  0.80232973624E+01  0.80239330484E+01  0.10100000000E+00 0.  1.
          3   -1    0    0  501    0  0.00000000000E+00 -0.00000000000E+00 -0.25822873402E+03  0.25822875377E+03  0.10100000000E+00 0. -1.
         23    2    1    2    0    0  0.00000000000E+00  0.00000000000E+00 -0.25020543665E+03  0.26625268682E+03  0.91036985373E+02 0.  0.
    9000005    2    3    3    0    0 -0.38292315516E+02 -0.18953410113E+02 -0.85956071616E+02  0.96537080292E+02  0.10267835277E+02 0.  0.
         22    1    3    3    0    0  0.38292315516E+02  0.18953410113E+02 -0.16424936504E+03  0.16971560652E+03  0.00000000000E+00 0.  1.
         22    1    4    4    0    0 -0.22213066864E+02 -0.13497650398E+02 -0.61472946178E+02  0.66742265601E+02  0.00000000000E+00 0.  1.
         22    1    4    4    0    0 -0.16079248652E+02 -0.54557597149E+01 -0.24483125437E+02  0.29794814691E+02  0.00000000000E+00 0.  1.
<mgrwt>
<rscale>  0 0.91036985E+02</rscale>
<asrwt>0</asrwt>
<pdfrwt beam="2">  1        3 0.39727542E-01 0.91036985E+02</pdfrwt>
<pdfrwt beam="1">  1       -3 0.12344041E-02 0.91036985E+02</pdfrwt>
<totfact> 0.25503646E+04</totfact>
</mgrwt>
</event>
<event>
 7    1  0.1312339E-009  0.9098990E+02  0.7818608E-02  0.1300472E+00
         -3   -1    0    0    0  501 -0.00000000000E+00  0.00000000000E+00  0.35954431242E+02  0.35954573102E+02  0.10100000000E+00 0.  1.
          3   -1    0    0  501    0  0.00000000000E+00 -0.00000000000E+00 -0.57566751377E+02  0.57566839979E+02  0.10100000000E+00 0. -1.
         23    2    1    2    0    0 -0.35527136788E-14  0.00000000000E+00 -0.21612320135E+02  0.93521413081E+02  0.90989902314E+02 0.  0.
    9000005    2    3    3    0    0  0.22870161568E+02  0.11774683148E+02 -0.48013670139E+02  0.56660610928E+02  0.15602078616E+02 0.  0.
         22    1    3    3    0    0 -0.22870161568E+02 -0.11774683148E+02  0.26401350004E+02  0.36860802153E+02  0.00000000000E+00 0.  1.
         22    1    4    4    0    0  0.22272622933E+02  0.13129236221E+02 -0.34741389734E+02  0.43306012709E+02  0.00000000000E+00 0.  1.
         22    1    4    4    0    0  0.59753863459E+00 -0.13545530734E+01 -0.13272280405E+02  0.13354598219E+02  0.00000000000E+00 0.  1.
<mgrwt>
<rscale>  0 0.90989902E+02</rscale>
<asrwt>0</asrwt>
<pdfrwt beam="2">  1        3 0.88564410E-02 0.90989902E+02</pdfrwt>
<pdfrwt beam="1">  1       -3 0.55314687E-02 0.90989902E+02</pdfrwt>
<totfact> 0.35356546E+04</totfact>
</mgrwt>
</event>
<event>
 7    1  0.1312339E-009  0.7990372E+02  0.7818608E-02  0.1329325E+00
          3   -1    0    0  501    0  0.00000000000E+00  0.00000000000E+00  0.37558452979E+03  0.37558454337E+03  0.10100000000E+00 0. -1.
         -3   -1    0    0    0  501 -0.00000000000E+00 -0.00000000000E+00 -0.42491651367E+01  0.42503653207E+01  0.10100000000E+00 0.  1.
         23    2    1    2    0    0 -0.88817841970E-15  0.00000000000E+00  0.37133536465E+03  0.37983490869E+03  0.79903722178E+02 0.  0.
    9000005    2    3    3    0    0 -0.63607754330E+01  0.23122508438E+02  0.33714366189E+03  0.33807149889E+03  0.71679666266E+01 0.  0.
         22    1    3    3    0    0  0.63607754330E+01 -0.23122508438E+02  0.34191702755E+02  0.41763409797E+02  0.00000000000E+00 0.  1.
         22    1    4    4    0    0 -0.62540903265E+01  0.15356494125E+02  0.26299430313E+03  0.26351648722E+03  0.00000000000E+00 0. -1.
         22    1    4    4    0    0 -0.10668510652E+00  0.77660143131E+01  0.74149358762E+02  0.74555011668E+02  0.00000000000E+00 0. -1.
<mgrwt>
<rscale>  0 0.79903722E+02</rscale>
<asrwt>0</asrwt>
<pdfrwt beam="1">  1        3 0.57782359E-01 0.79903722E+02</pdfrwt>
<pdfrwt beam="2">  1       -3 0.65381074E-03 0.79903722E+02</pdfrwt>
<totfact> 0.30146459E+04</totfact>
</mgrwt>
</event>
<event>
 7    1  0.1312339E-009  0.8915399E+02  0.7818608E-02  0.1304913E+00
          3   -1    0    0  501    0  0.00000000000E+00  0.00000000000E+00  0.26502458858E+02  0.26502651312E+02  0.10100000000E+00 0. -1.
         -3   -1    0    0    0  501 -0.00000000000E+00 -0.00000000000E+00 -0.74977763124E+02  0.74977831150E+02  0.10100000000E+00 0.  1.
         23    2    1    2    0    0 -0.17763568394E-14  0.00000000000E+00 -0.48475304265E+02  0.10148048246E+03  0.89153985873E+02 0.  0.
    9000005    2    3    3    0    0  0.15499955302E+02 -0.30937952621E+02  0.57306932698E+01  0.37171107597E+02  0.12306293832E+02 0.  0.
         22    1    3    3    0    0 -0.15499955302E+02  0.30937952621E+02 -0.54205997535E+02  0.64309374865E+02  0.00000000000E+00 0.  1.
         22    1    4    4    0    0  0.73917015915E+01 -0.10194503066E+02  0.77854804683E+01  0.14804690179E+02  0.00000000000E+00 0. -1.
         22    1    4    4    0    0  0.81082537108E+01 -0.20743449555E+02 -0.20547871985E+01  0.22366417418E+02  0.00000000000E+00 0. -1.
<mgrwt>
<rscale>  0 0.89153986E+02</rscale>
<asrwt>0</asrwt>
<pdfrwt beam="1">  1        3 0.40773214E-02 0.89153986E+02</pdfrwt>
<pdfrwt beam="2">  1       -3 0.11535060E-01 0.89153986E+02</pdfrwt>
<totfact> 0.36732880E+04</totfact>
</mgrwt>
</event>
<event>
 7    1  0.1312339E-009  0.9015223E+02  0.7818608E-02  0.1302483E+00
         -3   -1    0    0    0  501 -0.00000000000E+00  0.00000000000E+00  0.14361766228E+03  0.14361769780E+03  0.10100000000E+00 0.  1.
          3   -1    0    0  501    0  0.00000000000E+00 -0.00000000000E+00 -0.14147459151E+02  0.14147819670E+02  0.10100000000E+00 0. -1.
         23    2    1    2    0    0 -0.71054273576E-14 -0.88817841970E-15  0.12947020313E+03  0.15776551747E+03  0.90152232378E+02 0.  0.
    9000005    2    3    3    0    0  0.39574780340E+02  0.74771732517E+01  0.96720889484E+02  0.10585608766E+03  0.15116529783E+02 0.  0.
         22    1    3    3    0    0 -0.39574780340E+02 -0.74771732517E+01  0.32749313648E+02  0.51909429810E+02  0.00000000000E+00 0. -1.
         22    1    4    4    0    0  0.10402611696E+02 -0.46849689431E+01  0.26258692199E+02  0.28630092213E+02  0.00000000000E+00 0.  1.
         22    1    4    4    0    0  0.29172168644E+02  0.12162142195E+02  0.70462197284E+02  0.77225995444E+02  0.00000000000E+00 0.  1.
<mgrwt>
<rscale>  0 0.90152232E+02</rscale>
<asrwt>0</asrwt>
<pdfrwt beam="2">  1        3 0.21765627E-02 0.90152232E+02</pdfrwt>
<pdfrwt beam="1">  1       -3 0.22095055E-01 0.90152232E+02</pdfrwt>
<totfact> 0.31795451E+04</totfact>
</mgrwt>
</event>
<event>
 7    1  0.1312339E-009  0.9284014E+02  0.7818608E-02  0.1296116E+00
         -3   -1    0    0    0  501 -0.00000000000E+00  0.00000000000E+00  0.38789947967E+02  0.38790079457E+02  0.10100000000E+00 0.  1.
          3   -1    0    0  501    0  0.00000000000E+00 -0.00000000000E+00 -0.55550794280E+02  0.55550886097E+02  0.10100000000E+00 0. -1.
         23    2    1    2    0    0  0.00000000000E+00  0.00000000000E+00 -0.16760846313E+02  0.94340965554E+02  0.92840141170E+02 0.  0.
    9000005    2    3    3    0    0 -0.36230943797E+02  0.27303714722E+02 -0.31829266984E+01  0.46985564308E+02  0.11804156255E+02 0.  0.
         22    1    3    3    0    0  0.36230943797E+02 -0.27303714722E+02 -0.13577919614E+02  0.47355401246E+02  0.00000000000E+00 0. -1.
         22    1    4    4    0    0 -0.25268710486E+02  0.16403618323E+02 -0.72789656549E+01  0.30993059945E+02  0.00000000000E+00 0. -1.
         22    1    4    4    0    0 -0.10962233311E+02  0.10900096399E+02  0.40960389564E+01  0.15992504363E+02  0.00000000000E+00 0. -1.
<mgrwt>
<rscale>  0 0.92840141E+02</rscale>
<asrwt>0</asrwt>
<pdfrwt beam="2">  1        3 0.85462932E-02 0.92840141E+02</pdfrwt>
<pdfrwt beam="1">  1       -3 0.59677015E-02 0.92840141E+02</pdfrwt>
<totfact> 0.33406451E+04</totfact>
</mgrwt>
</event>
<event>
 7    1  0.1312339E-009  0.9294281E+02  0.7818608E-02  0.1295878E+00
          3   -1    0    0  501    0  0.00000000000E+00  0.00000000000E+00  0.78192928491E+03  0.78192929143E+03  0.10100000000E+00 0. -1.
         -3   -1    0    0    0  501 -0.00000000000E+00 -0.00000000000E+00 -0.27609457652E+01  0.27627925218E+01  0.10100000000E+00 0.  1.
         23    2    1    2    0    0  0.00000000000E+00  0.00000000000E+00  0.77916833914E+03  0.78469208395E+03  0.92942809811E+02 0.  0.
    9000005    2    3    3    0    0 -0.22889883470E+02 -0.58395296918E+01  0.72653656579E+03  0.72700195968E+03  0.10882144864E+02 0.  0.
         22    1    3    3    0    0  0.22889883470E+02  0.58395296918E+01  0.52631773353E+02  0.57690124273E+02  0.00000000000E+00 0.  1.
         22    1    4    4    0    0 -0.91668505105E+01 -0.26329221465E+01  0.45498851346E+03  0.45508846481E+03  0.00000000000E+00 0.  1.
         22    1    4    4    0    0 -0.13723032960E+02 -0.32066075454E+01  0.27154805233E+03  0.27191349486E+03  0.00000000000E+00 0.  1.
<mgrwt>
<rscale>  0 0.92942810E+02</rscale>
<asrwt>0</asrwt>
<pdfrwt beam="1">  1        3 0.12029717E+00 0.92942810E+02</pdfrwt>
<pdfrwt beam="2">  1       -3 0.42490268E-03 0.92942810E+02</pdfrwt>
<totfact> 0.11997820E+04</totfact>
</mgrwt>
</event>
<event>
 7    1  0.1312339E-009  0.9104278E+02  0.7818608E-02  0.1300346E+00
          3   -1    0    0  501    0  0.00000000000E+00  0.00000000000E+00  0.19910692700E+02  0.19910948867E+02  0.10100000000E+00 0. -1.
         -3   -1    0    0    0  501 -0.00000000000E+00 -0.00000000000E+00 -0.10407363694E+03  0.10407368595E+03  0.10100000000E+00 0.  1.
         23    2    1    2    0    0 -0.35527136788E-14  0.17763568394E-14 -0.84162944244E+02  0.12398463482E+03  0.91042783829E+02 0.  0.
    9000005    2    3    3    0    0  0.29178438798E+02 -0.10063439278E+02  0.33428474896E+01  0.31194992683E+02  0.30493996798E+01 0.  0.
         22    1    3    3    0    0 -0.29178438798E+02  0.10063439278E+02 -0.87505791733E+02  0.92789642136E+02  0.00000000000E+00 0.  1.
         22    1    4    4    0    0  0.14453814241E+02 -0.43789018725E+01  0.21414591305E+00  0.15104085083E+02  0.00000000000E+00 0.  1.
         22    1    4    4    0    0  0.14724624556E+02 -0.56845374053E+01  0.31287015766E+01  0.16090907600E+02  0.00000000000E+00 0.  1.
<mgrwt>
<rscale>  0 0.91042784E+02</rscale>
<asrwt>0</asrwt>
<pdfrwt beam="1">  1        3 0.30632070E-02 0.91042784E+02</pdfrwt>
<pdfrwt beam="2">  1       -3 0.16011352E-01 0.91042784E+02</pdfrwt>
<totfact> 0.33109876E+04</totfact>
</mgrwt>
</event>
<event>
 7    1  0.1312339E-009  0.9048223E+02  0.7818608E-02  0.1301688E+00
          3   -1    0    0  501    0  0.00000000000E+00  0.00000000000E+00  0.97407945679E+03  0.97407946203E+03  0.10100000000E+00 0. -1.
         -3   -1    0    0    0  501 -0.00000000000E+00 -0.00000000000E+00 -0.21000041952E+01  0.21024315970E+01  0.10100000000E+00 0.  1.
         23    2    1    2    0    0  0.00000000000E+00  0.00000000000E+00  0.97197945259E+03  0.97618189362E+03  0.90482225721E+02 0.  0.
    9000005    2    3    3    0    0  0.23547547308E+02 -0.18731564110E+02  0.84865965639E+03  0.84924438689E+03  0.93518881334E+01 0.  0.
         22    1    3    3    0    0 -0.23547547308E+02  0.18731564110E+02  0.12331979621E+03  0.12693750673E+03  0.00000000000E+00 0. -1.
         22    1    4    4    0    0  0.21565174185E+02 -0.13129299812E+02  0.63405453700E+03  0.63455700386E+03  0.00000000000E+00 0. -1.
         22    1    4    4    0    0  0.19823731228E+01 -0.56022642982E+01  0.21460511939E+03  0.21468738304E+03  0.00000000000E+00 0. -1.
<mgrwt>
<rscale>  0 0.90482226E+02</rscale>
<asrwt>0</asrwt>
<pdfrwt beam="1">  1        3 0.14985875E+00 0.90482226E+02</pdfrwt>
<pdfrwt beam="2">  1       -3 0.32326429E-03 0.90482226E+02</pdfrwt>
<totfact> 0.10479761E+04</totfact>
</mgrwt>
</event>
<event>
 7    1  0.1312339E-009  0.8664491E+02  0.7818608E-02  0.1311186E+00
          3   -1    0    0  501    0  0.00000000000E+00  0.00000000000E+00  0.21950958348E+03  0.21950960672E+03  0.10100000000E+00 0.  1.
         -3   -1    0    0    0  501 -0.00000000000E+00 -0.00000000000E+00 -0.85498061978E+01  0.85504027402E+01  0.10100000000E+00 0. -1.
         23    2    1    2    0    0  0.35527136788E-14  0.00000000000E+00  0.21095977728E+03  0.22806000946E+03  0.86644909153E+02 0.  0.
    9000005    2    3    3    0    0 -0.25857822258E+02  0.33410596475E+02  0.98921131493E+02  0.10832048766E+03  0.12768823877E+02 0.  0.
         22    1    3    3    0    0  0.25857822258E+02 -0.33410596475E+02  0.11203864579E+03  0.11973952179E+03  0.00000000000E+00 0.  1.
         22    1    4    4    0    0 -0.10055815427E+02  0.44467959905E+01  0.28708697471E+02  0.30742197855E+02  0.00000000000E+00 0.  1.
         22    1    4    4    0    0 -0.15802006830E+02  0.28963800484E+02  0.70212434022E+02  0.77578289809E+02  0.00000000000E+00 0.  1.
<mgrwt>
<rscale>  0 0.86644909E+02</rscale>
<asrwt>0</asrwt>
<pdfrwt beam="1">  1        3 0.33770747E-01 0.86644909E+02</pdfrwt>
<pdfrwt beam="2">  1       -3 0.13154027E-02 0.86644909E+02</pdfrwt>
<totfact> 0.31082088E+04</totfact>
</mgrwt>
</event>
<event>
 7    1  0.1312339E-009  0.9325539E+02  0.7818608E-02  0.1295154E+00
         -3   -1    0    0    0  501 -0.00000000000E+00  0.00000000000E+00  0.34405066191E+01  0.34419887850E+01  0.10100000000E+00 0.  1.
          3   -1    0    0  501    0  0.00000000000E+00 -0.00000000000E+00 -0.63178730751E+03  0.63178731558E+03  0.10100000000E+00 0. -1.
         23    2    1    2    0    0  0.17763568394E-14  0.00000000000E+00 -0.62834680089E+03  0.63522930437E+03  0.93255385572E+02 0.  0.
    9000005    2    3    3    0    0 -0.13281793786E+02  0.42153208677E+02 -0.40500350847E+03  0.40755513956E+03  0.10956772673E+02 0.  0.
         22    1    3    3    0    0  0.13281793786E+02 -0.42153208677E+02 -0.22334329242E+03  0.22767416480E+03  0.00000000000E+00 0.  1.
         22    1    4    4    0    0 -0.63905818520E+01  0.32538215480E+02 -0.32399297343E+03  0.32568546457E+03  0.00000000000E+00 0.  1.
         22    1    4    4    0    0 -0.68912119345E+01  0.96149931972E+01 -0.81010535037E+02  0.81869674991E+02  0.00000000000E+00 0.  1.
<mgrwt>
<rscale>  0 0.93255386E+02</rscale>
<asrwt>0</asrwt>
<pdfrwt beam="2">  1        3 0.97198070E-01 0.93255386E+02</pdfrwt>
<pdfrwt beam="1">  1       -3 0.52942385E-03 0.93255386E+02</pdfrwt>
<totfact> 0.14175589E+04</totfact>
</mgrwt>
</event>
<event>
 7    1  0.1312339E-009  0.8951376E+02  0.7818608E-02  0.1304033E+00
          3   -1    0    0  501    0  0.00000000000E+00  0.00000000000E+00  0.36110743851E+03  0.36110745264E+03  0.10100000000E+00 0. -1.
         -3   -1    0    0    0  501 -0.00000000000E+00 -0.00000000000E+00 -0.55468457653E+01  0.55477652207E+01  0.10100000000E+00 0.  1.
         23    2    1    2    0    0  0.00000000000E+00  0.00000000000E+00  0.35556059275E+03  0.36665521786E+03  0.89513762448E+02 0.  0.
    9000005    2    3    3    0    0 -0.65891201275E+01 -0.43083014990E+02  0.16631792389E+03  0.17245853817E+03  0.13443693566E+02 0.  0.
         22    1    3    3    0    0  0.65891201275E+01  0.43083014990E+02  0.18924266886E+03  0.19419667969E+03  0.00000000000E+00 0. -1.
         22    1    4    4    0    0 -0.88424139569E+01 -0.31044593853E+02  0.13559911368E+03  0.13938821587E+03  0.00000000000E+00 0.  1.
         22    1    4    4    0    0  0.22532938294E+01 -0.12038421137E+02  0.30718810203E+02  0.33070322297E+02  0.00000000000E+00 0.  1.
<mgrwt>
<rscale>  0 0.89513762E+02</rscale>
<asrwt>0</asrwt>
<pdfrwt beam="1">  1        3 0.55555052E-01 0.89513762E+02</pdfrwt>
<pdfrwt beam="2">  1       -3 0.85343286E-03 0.89513762E+02</pdfrwt>
<totfact> 0.22753800E+04</totfact>
</mgrwt>
</event>
<event>
 7    1  0.1312339E-009  0.7948068E+02  0.7818608E-02  0.1330532E+00
          3   -1    0    0  501    0  0.00000000000E+00  0.00000000000E+00  0.13534942651E+03  0.13534946420E+03  0.10100000000E+00 0. -1.
         -3   -1    0    0    0  501 -0.00000000000E+00 -0.00000000000E+00 -0.11668019791E+02  0.11668456918E+02  0.10100000000E+00 0.  1.
         23    2    1    2    0    0  0.44408920985E-15  0.00000000000E+00  0.12368140672E+03  0.14701792112E+03  0.79480681680E+02 0.  0.
    9000005    2    3    3    0    0 -0.38889962928E+01 -0.37773904887E+02  0.43015742000E+02  0.57861083758E+02  0.74537756390E+01 0.  0.
         22    1    3    3    0    0  0.38889962928E+01  0.37773904887E+02  0.80665664723E+02  0.89156837358E+02  0.00000000000E+00 0. -1.
         22    1    4    4    0    0 -0.48046264700E+01 -0.16419459513E+02  0.16115184029E+02  0.23502813502E+02  0.00000000000E+00 0.  1.
         22    1    4    4    0    0  0.91563017718E+00 -0.21354445373E+02  0.26900557970E+02  0.34358270255E+02  0.00000000000E+00 0.  1.
<mgrwt>
<rscale>  0 0.79480682E+02</rscale>
<asrwt>0</asrwt>
<pdfrwt beam="1">  1        3 0.20823025E-01 0.79480682E+02</pdfrwt>
<pdfrwt beam="2">  1       -3 0.17951165E-02 0.79480682E+02</pdfrwt>
<totfact> 0.45520178E+04</totfact>
</mgrwt>
</event>
<event>
 7    1  0.1312339E-009  0.9077813E+02  0.7818608E-02  0.1300978E+00
         -3   -1    0    0    0  501 -0.00000000000E+00  0.00000000000E+00  0.39665288261E+02  0.39665416849E+02  0.10100000000E+00 0.  1.
          3   -1    0    0  501    0  0.00000000000E+00 -0.00000000000E+00 -0.51938535934E+02  0.51938634136E+02  0.10100000000E+00 0. -1.
         23    2    1    2    0    0  0.88817841970E-15  0.00000000000E+00 -0.12273247673E+02  0.91604050986E+02  0.90778133648E+02 0.  0.
    9000005    2    3    3    0    0 -0.12957245531E+01  0.33479910336E+02 -0.35355240920E+02  0.50917914397E+02  0.14834340152E+02 0.  0.
         22    1    3    3    0    0  0.12957245531E+01 -0.33479910336E+02  0.23081993248E+02  0.40686136589E+02  0.00000000000E+00 0.  1.
         22    1    4    4    0    0  0.67257066327E+01  0.15173074752E+02 -0.14618019978E+02  0.22116596375E+02  0.00000000000E+00 0. -1.
         22    1    4    4    0    0 -0.80214311858E+01  0.18306835584E+02 -0.20737220943E+02  0.28801318022E+02  0.00000000000E+00 0. -1.
<mgrwt>
<rscale>  0 0.90778134E+02</rscale>
<asrwt>0</asrwt>
<pdfrwt beam="2">  1        3 0.79905615E-02 0.90778134E+02</pdfrwt>
<pdfrwt beam="1">  1       -3 0.61023695E-02 0.90778134E+02</pdfrwt>
<totfact> 0.35729882E+04</totfact>
</mgrwt>
</event>
<event>
 7    1  0.1312339E-009  0.9104610E+02  0.7818608E-02  0.1300338E+00
         -3   -1    0    0    0  501 -0.00000000000E+00  0.00000000000E+00  0.64073775987E+01  0.64081735848E+01  0.10100000000E+00 0.  1.
          3   -1    0    0  501    0  0.00000000000E+00 -0.00000000000E+00 -0.32341066427E+03  0.32341068004E+03  0.10100000000E+00 0. -1.
         23    2    1    2    0    0  0.00000000000E+00  0.00000000000E+00 -0.31700328667E+03  0.32981885362E+03  0.91046100666E+02 0.  0.
    9000005    2    3    3    0    0 -0.14547790663E+02  0.11952644059E+02 -0.30837915289E+03  0.30910944521E+03  0.98205534883E+01 0.  0.
         22    1    3    3    0    0  0.14547790663E+02 -0.11952644059E+02 -0.86241337794E+01  0.20709408409E+02  0.00000000000E+00 0.  1.
         22    1    4    4    0    0 -0.68396573515E+01  0.65686857428E+00 -0.69391781791E+02  0.69731139165E+02  0.00000000000E+00 0.  1.
         22    1    4    4    0    0 -0.77081333119E+01  0.11295775485E+02 -0.23898737110E+03  0.23937830605E+03  0.00000000000E+00 0.  1.
<mgrwt>
<rscale>  0 0.91046101E+02</rscale>
<asrwt>0</asrwt>
<pdfrwt beam="2">  1        3 0.49755537E-01 0.91046101E+02</pdfrwt>
<pdfrwt beam="1">  1       -3 0.98581309E-03 0.91046101E+02</pdfrwt>
<totfact> 0.23010115E+04</totfact>
</mgrwt>
</event>
<event>
 7    1  0.1312339E-009  0.9082812E+02  0.7818608E-02  0.1300859E+00
          3   -1    0    0  501    0  0.00000000000E+00  0.00000000000E+00  0.54635886133E+01  0.54645220775E+01  0.10100000000E+00 0. -1.
         -3   -1    0    0    0  501 -0.00000000000E+00 -0.00000000000E+00 -0.37745441511E+03  0.37745442862E+03  0.10100000000E+00 0.  1.
         23    2    1    2    0    0  0.00000000000E+00  0.00000000000E+00 -0.37199082649E+03  0.38291895070E+03  0.90828122339E+02 0.  0.
    9000005    2    3    3    0    0 -0.20568757711E+02  0.41300468156E+01 -0.35544912804E+03  0.35620268471E+03  0.98050441077E+01 0.  0.
         22    1    3    3    0    0  0.20568757711E+02 -0.41300468156E+01 -0.16541698450E+02  0.26716265984E+02  0.00000000000E+00 0. -1.
         22    1    4    4    0    0 -0.10675796699E+02  0.71085209913E+01 -0.19694809241E+03  0.19736528269E+03  0.00000000000E+00 0.  1.
         22    1    4    4    0    0 -0.98929610125E+01 -0.29784741757E+01 -0.15850103563E+03  0.15883740203E+03  0.00000000000E+00 0.  1.
<mgrwt>
<rscale>  0 0.90828122E+02</rscale>
<asrwt>0</asrwt>
<pdfrwt beam="1">  1        3 0.84062524E-03 0.90828122E+02</pdfrwt>
<pdfrwt beam="2">  1       -3 0.58069962E-01 0.90828122E+02</pdfrwt>
<totfact> 0.21345051E+04</totfact>
</mgrwt>
</event>
<event>
 7    1  0.1312339E-009  0.9115743E+02  0.7818608E-02  0.1300073E+00
          3   -1    0    0  501    0  0.00000000000E+00  0.00000000000E+00  0.10127584062E+02  0.10128087674E+02  0.10100000000E+00 0. -1.
         -3   -1    0    0    0  501 -0.00000000000E+00 -0.00000000000E+00 -0.20511925908E+03  0.20511928395E+03  0.10100000000E+00 0.  1.
         23    2    1    2    0    0 -0.71054273576E-14 -0.17763568394E-14 -0.19499167502E+03  0.21524737162E+03  0.91157433395E+02 0.  0.
    9000005    2    3    3    0    0  0.42738353003E+02  0.12952618263E+02 -0.78775275654E+02  0.90746011715E+02  0.59124826008E+01 0.  0.
         22    1    3    3    0    0 -0.42738353003E+02 -0.12952618263E+02 -0.11621639937E+03  0.12450135991E+03  0.00000000000E+00 0.  1.
         22    1    4    4    0    0  0.31338533836E+02  0.94470250221E+01 -0.52140002662E+02  0.61562406243E+02  0.00000000000E+00 0.  1.
         22    1    4    4    0    0  0.11399819167E+02  0.35055932405E+01 -0.26635272992E+02  0.29183605472E+02  0.00000000000E+00 0.  1.
<mgrwt>
<rscale>  0 0.91157433E+02</rscale>
<asrwt>0</asrwt>
<pdfrwt beam="1">  1        3 0.15581307E-02 0.91157433E+02</pdfrwt>
<pdfrwt beam="2">  1       -3 0.31556847E-01 0.91157433E+02</pdfrwt>
<totfact> 0.27742847E+04</totfact>
</mgrwt>
</event>
<event>
 7    1  0.1312339E-009  0.9113174E+02  0.7818608E-02  0.1300134E+00
          3   -1    0    0  501    0  0.00000000000E+00  0.00000000000E+00  0.10738408616E+03  0.10738413366E+03  0.10100000000E+00 0. -1.
         -3   -1    0    0    0  501 -0.00000000000E+00 -0.00000000000E+00 -0.19334603391E+02  0.19334867191E+02  0.10100000000E+00 0.  1.
         23    2    1    2    0    0  0.00000000000E+00  0.00000000000E+00  0.88049482768E+02  0.12671900085E+03  0.91131738490E+02 0.  0.
    9000005    2    3    3    0    0 -0.38461096480E+02  0.22542239154E+02  0.33597024328E+02  0.56345151169E+02  0.76555553736E+01 0.  0.
         22    1    3    3    0    0  0.38461096480E+02 -0.22542239154E+02  0.54452458441E+02  0.70373849680E+02  0.00000000000E+00 0.  1.
         22    1    4    4    0    0 -0.86877961163E+01  0.89554089998E+01  0.83822395884E+01  0.15031270480E+02  0.00000000000E+00 0.  1.
         22    1    4    4    0    0 -0.29773300363E+02  0.13586830154E+02  0.25214784739E+02  0.41313880689E+02  0.00000000000E+00 0.  1.
<mgrwt>
<rscale>  0 0.91131738E+02</rscale>
<asrwt>0</asrwt>
<pdfrwt beam="1">  1        3 0.16520652E-01 0.91131738E+02</pdfrwt>
<pdfrwt beam="2">  1       -3 0.29745784E-02 0.91131738E+02</pdfrwt>
<totfact> 0.32837103E+04</totfact>
</mgrwt>
</event>
<event>
 7    1  0.1312339E-009  0.8820324E+02  0.7818608E-02  0.1307262E+00
         -3   -1    0    0    0  501 -0.00000000000E+00  0.00000000000E+00  0.13950157307E+02  0.13950522926E+02  0.10100000000E+00 0.  1.
          3   -1    0    0  501    0  0.00000000000E+00 -0.00000000000E+00 -0.13941936761E+03  0.13941940419E+03  0.10100000000E+00 0. -1.
         23    2    1    2    0    0 -0.71054273576E-14  0.00000000000E+00 -0.12546921030E+03  0.15336992712E+03  0.88203241496E+02 0.  0.
    9000005    2    3    3    0    0  0.35356560039E+02  0.21302168132E+02 -0.45215695233E+02  0.63123069079E+02  0.15368605977E+02 0.  0.
         22    1    3    3    0    0 -0.35356560039E+02 -0.21302168132E+02 -0.80253515066E+02  0.90246858036E+02  0.00000000000E+00 0. -1.
         22    1    4    4    0    0  0.31213161544E+02  0.21897974492E+02 -0.44929275661E+02  0.58927264927E+02  0.00000000000E+00 0.  1.
         22    1    4    4    0    0  0.41433984954E+01 -0.59580635961E+00 -0.28641957162E+00  0.41958041519E+01  0.00000000000E+00 0.  1.
<mgrwt>
<rscale>  0 0.88203241E+02</rscale>
<asrwt>0</asrwt>
<pdfrwt beam="2">  1        3 0.21449163E-01 0.88203241E+02</pdfrwt>
<pdfrwt beam="1">  1       -3 0.21462091E-02 0.88203241E+02</pdfrwt>
<totfact> 0.34012942E+04</totfact>
</mgrwt>
</event>
<event>
 7    1  0.1312339E-009  0.9063693E+02  0.7818608E-02  0.1301317E+00
          3   -1    0    0  501    0  0.00000000000E+00  0.00000000000E+00  0.25693235411E+02  0.25693433925E+02  0.10100000000E+00 0. -1.
         -3   -1    0    0    0  501 -0.00000000000E+00 -0.00000000000E+00 -0.79933461089E+02  0.79933524898E+02  0.10100000000E+00 0.  1.
         23    2    1    2    0    0 -0.35527136788E-14  0.00000000000E+00 -0.54240225678E+02  0.10562695882E+03  0.90636925967E+02 0.  0.
    9000005    2    3    3    0    0  0.27894627721E+02 -0.67886786162E+01 -0.66815202399E+02  0.74284871264E+02  0.15158311718E+02 0.  0.
         22    1    3    3    0    0 -0.27894627721E+02  0.67886786162E+01  0.12574976721E+02  0.31342087559E+02  0.00000000000E+00 0. -1.
         22    1    4    4    0    0  0.19045174784E+02 -0.38052525003E+01 -0.26221240777E+02  0.32630539331E+02  0.00000000000E+00 0. -1.
         22    1    4    4    0    0  0.88494529370E+01 -0.29834261159E+01 -0.40593961622E+02  0.41654331934E+02  0.00000000000E+00 0. -1.
<mgrwt>
<rscale>  0 0.90636926E+02</rscale>
<asrwt>0</asrwt>
<pdfrwt beam="1">  1        3 0.39528257E-02 0.90636926E+02</pdfrwt>
<pdfrwt beam="2">  1       -3 0.12297476E-01 0.90636926E+02</pdfrwt>
<totfact> 0.34817668E+04</totfact>
</mgrwt>
</event>
<event>
 7    1  0.1312339E-009  0.8782767E+02  0.7818608E-02  0.1308199E+00
          3   -1    0    0  501    0  0.00000000000E+00  0.00000000000E+00  0.99477077056E+02  0.99477128329E+02  0.10100000000E+00 0. -1.
         -3   -1    0    0    0  501 -0.00000000000E+00 -0.00000000000E+00 -0.19385432713E+02  0.19385695821E+02  0.10100000000E+00 0.  1.
         23    2    1    2    0    0  0.00000000000E+00  0.44408920985E-15  0.80091644344E+02  0.11886282415E+03  0.87827669167E+02 0.  0.
    9000005    2    3    3    0    0 -0.35481880102E+02  0.29437336757E+01  0.73321256254E+02  0.82621031446E+02  0.13512913639E+02 0.  0.
         22    1    3    3    0    0  0.35481880102E+02 -0.29437336757E+01  0.67703880894E+01  0.36241792704E+02  0.00000000000E+00 0.  1.
         22    1    4    4    0    0 -0.16337391033E+02  0.73329790962E+01  0.28134621209E+02  0.33350259950E+02  0.00000000000E+00 0.  1.
         22    1    4    4    0    0 -0.19144489069E+02 -0.43892454204E+01  0.45186635046E+02  0.49270771496E+02  0.00000000000E+00 0.  1.
<mgrwt>
<rscale>  0 0.87827669E+02</rscale>
<asrwt>0</asrwt>
<pdfrwt beam="1">  1        3 0.15304190E-01 0.87827669E+02</pdfrwt>
<pdfrwt beam="2">  1       -3 0.29823985E-02 0.87827669E+02</pdfrwt>
<totfact> 0.36876024E+04</totfact>
</mgrwt>
</event>
<event>
 7    1  0.1312339E-009  0.9108317E+02  0.7818608E-02  0.1300250E+00
         -3   -1    0    0    0  501 -0.00000000000E+00  0.00000000000E+00  0.23664522635E+02  0.23664738167E+02  0.10100000000E+00 0.  1.
          3   -1    0    0  501    0  0.00000000000E+00 -0.00000000000E+00 -0.87642613117E+02  0.87642671314E+02  0.10100000000E+00 0. -1.
         23    2    1    2    0    0  0.00000000000E+00  0.00000000000E+00 -0.63978090482E+02  0.11130740948E+03  0.91083167181E+02 0.  0.
    9000005    2    3    3    0    0  0.37569854462E+02  0.90252525061E+01 -0.49407511096E+01  0.40749939378E+02  0.11966511217E+02 0.  0.
         22    1    3    3    0    0 -0.37569854462E+02 -0.90252525061E+01 -0.59037339373E+02  0.70557470103E+02  0.00000000000E+00 0. -1.
         22    1    4    4    0    0  0.19479584783E+02  0.22060795557E+01  0.30328695702E+01  0.19837321093E+02  0.00000000000E+00 0.  1.
         22    1    4    4    0    0  0.18090269679E+02  0.68191729504E+01 -0.79736206798E+01  0.20912618285E+02  0.00000000000E+00 0.  1.
<mgrwt>
<rscale>  0 0.91083167E+02</rscale>
<asrwt>0</asrwt>
<pdfrwt beam="2">  1        3 0.13483500E-01 0.91083167E+02</pdfrwt>
<pdfrwt beam="1">  1       -3 0.36407169E-02 0.91083167E+02</pdfrwt>
<totfact> 0.33946577E+04</totfact>
</mgrwt>
</event>
<event>
 7    1  0.1616982E-009  0.9558756E+02  0.7818608E-02  0.1289858E+00
          3   -1    0    0  501    0  0.00000000000E+00  0.00000000000E+00  0.23426716686E+02  0.23426934407E+02  0.10100000000E+00 0. -1.
         -3   -1    0    0    0  501 -0.00000000000E+00 -0.00000000000E+00 -0.97505310082E+02  0.97505362392E+02  0.10100000000E+00 0.  1.
         23    2    1    2    0    0  0.00000000000E+00  0.00000000000E+00 -0.74078593396E+02  0.12093229680E+03  0.95587564095E+02 0.  0.
    9000005    2    3    3    0    0  0.36724420679E+02  0.19716414105E+02 -0.64286556034E+02  0.78115196768E+02  0.15225065519E+02 0.  0.
         22    1    3    3    0    0 -0.36724420679E+02 -0.19716414105E+02 -0.97920373620E+01  0.42817100031E+02  0.00000000000E+00 0. -1.
         22    1    4    4    0    0  0.10968907245E+02  0.95733741594E+01 -0.34532665046E+02  0.37476277485E+02  0.00000000000E+00 0.  1.
         22    1    4    4    0    0  0.25755513434E+02  0.10143039946E+02 -0.29753890988E+02  0.40638919283E+02  0.00000000000E+00 0.  1.
<mgrwt>
<rscale>  0 0.95587564E+02</rscale>
<asrwt>0</asrwt>
<pdfrwt beam="1">  1        3 0.36041311E-02 0.95587564E+02</pdfrwt>
<pdfrwt beam="2">  1       -3 0.15000838E-01 0.95587564E+02</pdfrwt>
<totfact> 0.29173072E+04</totfact>
</mgrwt>
</event>
<event>
 7    1  0.1616618E-009  0.1000825E+03  0.7818608E-02  0.1280123E+00
          3   -1    0    0  501    0  0.00000000000E+00  0.00000000000E+00  0.27830734730E+03  0.27830736563E+03  0.10100000000E+00 0. -1.
         -3   -1    0    0    0  501 -0.00000000000E+00 -0.00000000000E+00 -0.89973997083E+01  0.89979665764E+01  0.10100000000E+00 0.  1.
         23    2    1    2    0    0  0.00000000000E+00  0.00000000000E+00  0.26930994760E+03  0.28730533221E+03  0.10008249618E+03 0.  0.
    9000005    2    3    3    0    0  0.17463155549E+02  0.13723574284E+02  0.26271879744E+03  0.26413764883E+03  0.15944676409E+02 0.  0.
         22    1    3    3    0    0 -0.17463155549E+02 -0.13723574284E+02  0.65911501544E+01  0.23167683381E+02  0.00000000000E+00 0.  1.
         22    1    4    4    0    0  0.83281841268E+01 -0.43882857919E+00  0.14243717972E+03  0.14268111784E+03  0.00000000000E+00 0.  1.
         22    1    4    4    0    0  0.91349714223E+01  0.14162402863E+02  0.12028161772E+03  0.12145653099E+03  0.00000000000E+00 0.  1.
<mgrwt>
<rscale>  0 0.10008250E+03</rscale>
<asrwt>0</asrwt>
<pdfrwt beam="1">  1        3 0.42816559E-01 0.10008250E+03</pdfrwt>
<pdfrwt beam="2">  1       -3 0.13842604E-02 0.10008250E+03</pdfrwt>
<totfact> 0.19069442E+04</totfact>
</mgrwt>
</event>
<event>
 7    1  0.1312339E-009  0.1042111E+03  0.7818608E-02  0.1271682E+00
          3   -1    0    0  501    0  0.00000000000E+00  0.00000000000E+00  0.91223166949E+01  0.91228758011E+01  0.10100000000E+00 0. -1.
         -3   -1    0    0    0  501 -0.00000000000E+00 -0.00000000000E+00 -0.29761055164E+03  0.29761056878E+03  0.10100000000E+00 0.  1.
         23    2    1    2    0    0  0.00000000000E+00  0.00000000000E+00 -0.28848823495E+03  0.30673344458E+03  0.10421105662E+03 0.  0.
    9000005    2    3    3    0    0  0.27188163036E+02  0.31827151914E+02 -0.54750099671E+02  0.69276754445E+02  0.70378607657E+01 0.  0.
         22    1    3    3    0    0 -0.27188163036E+02 -0.31827151914E+02 -0.23373813527E+03  0.23745669014E+03  0.00000000000E+00 0.  1.
         22    1    4    4    0    0  0.21788452393E+02  0.26208398514E+02 -0.48548070835E+02  0.59317214973E+02  0.00000000000E+00 0.  1.
         22    1    4    4    0    0  0.53997106436E+01  0.56187534005E+01 -0.62020288354E+01  0.99595394716E+01  0.00000000000E+00 0.  1.
<mgrwt>
<rscale>  0 0.10421106E+03</rscale>
<asrwt>0</asrwt>
<pdfrwt beam="1">  1        3 0.14034779E-02 0.10421106E+03</pdfrwt>
<pdfrwt beam="2">  1       -3 0.45786275E-01 0.10421106E+03</pdfrwt>
<totfact> 0.16554415E+04</totfact>
</mgrwt>
</event>
<event>
 7    1  0.1312339E-009  0.9216491E+02  0.7818608E-02  0.1297692E+00
         -3   -1    0    0    0  501 -0.00000000000E+00  0.00000000000E+00  0.10444958107E+02  0.10445446417E+02  0.10100000000E+00 0.  1.
          3   -1    0    0  501    0  0.00000000000E+00 -0.00000000000E+00 -0.20330744503E+03  0.20330747012E+03  0.10100000000E+00 0. -1.
         23    2    1    2    0    0  0.00000000000E+00  0.00000000000E+00 -0.19286248693E+03  0.21375291654E+03  0.92164909075E+02 0.  0.
    9000005    2    3    3    0    0 -0.41893756625E+02  0.17621763323E+02 -0.10698040921E+03  0.11658633453E+03  0.90527375376E+01 0.  0.
         22    1    3    3    0    0  0.41893756625E+02 -0.17621763323E+02 -0.85882077714E+02  0.97166582008E+02  0.00000000000E+00 0.  1.
         22    1    4    4    0    0 -0.31719217163E+02  0.10487773787E+02 -0.69773461638E+02  0.77359149978E+02  0.00000000000E+00 0.  1.
         22    1    4    4    0    0 -0.10174539461E+02  0.71339895361E+01 -0.37206947575E+02  0.39227184551E+02  0.00000000000E+00 0.  1.
<mgrwt>
<rscale>  0 0.92164909E+02</rscale>
<asrwt>0</asrwt>
<pdfrwt beam="2">  1        3 0.31278105E-01 0.92164909E+02</pdfrwt>
<pdfrwt beam="1">  1       -3 0.16069563E-02 0.92164909E+02</pdfrwt>
<totfact> 0.27005008E+04</totfact>
</mgrwt>
</event>
<event>
 7    1  0.1312339E-009  0.9758973E+02  0.7818608E-02  0.1285448E+00
          3   -1    0    0  501    0  0.00000000000E+00  0.00000000000E+00  0.87558819244E+01  0.87564644277E+01  0.10100000000E+00 0. -1.
         -3   -1    0    0    0  501 -0.00000000000E+00 -0.00000000000E+00 -0.27191484076E+03  0.27191485952E+03  0.10100000000E+00 0.  1.
         23    2    1    2    0    0  0.00000000000E+00  0.00000000000E+00 -0.26315895884E+03  0.28067132395E+03  0.97589725227E+02 0.  0.
    9000005    2    3    3    0    0  0.23025823322E+02 -0.20987799650E+02 -0.23932294353E+03  0.24144337601E+03  0.69825671287E+01 0.  0.
         22    1    3    3    0    0 -0.23025823322E+02  0.20987799650E+02 -0.23836015304E+02  0.39227947938E+02  0.00000000000E+00 0. -1.
         22    1    4    4    0    0  0.50619451356E+01 -0.90195836651E+01 -0.77490506677E+02  0.78177712956E+02  0.00000000000E+00 0.  1.
         22    1    4    4    0    0  0.17963878186E+02 -0.11968215985E+02 -0.16183243686E+03  0.16326566305E+03  0.00000000000E+00 0.  1.
<mgrwt>
<rscale>  0 0.97589725E+02</rscale>
<asrwt>0</asrwt>
<pdfrwt beam="1">  1        3 0.13471052E-02 0.97589725E+02</pdfrwt>
<pdfrwt beam="2">  1       -3 0.41833092E-01 0.97589725E+02</pdfrwt>
<totfact> 0.20636075E+04</totfact>
</mgrwt>
</event>
<event>
 7    1  0.1312339E-009  0.8976560E+02  0.7818608E-02  0.1303420E+00
          3   -1    0    0  501    0  0.00000000000E+00  0.00000000000E+00  0.16426260465E+04  0.16426260496E+04  0.10100000000E+00 0. -1.
         -3   -1    0    0    0  501 -0.00000000000E+00 -0.00000000000E+00 -0.12242864970E+01  0.12284455327E+01  0.10100000000E+00 0.  1.
         23    2    1    2    0    0 -0.17763568394E-14  0.00000000000E+00  0.16414017600E+04  0.16438544951E+04  0.89765602788E+02 0.  0.
    9000005    2    3    3    0    0 -0.14838635440E+02  0.10674922746E+02  0.15694077230E+04  0.15695760969E+04  0.13942164270E+02 0.  0.
         22    1    3    3    0    0  0.14838635440E+02 -0.10674922746E+02  0.71994037016E+02  0.74278398228E+02  0.00000000000E+00 0.  1.
         22    1    4    4    0    0 -0.22781473198E+01  0.60627304851E+01  0.95838835855E+03  0.95841024225E+03  0.00000000000E+00 0.  1.
         22    1    4    4    0    0 -0.12560488120E+02  0.46121922607E+01  0.61101936444E+03  0.61116585465E+03  0.00000000000E+00 0.  1.
<mgrwt>
<rscale>  0 0.89765603E+02</rscale>
<asrwt>0</asrwt>
<pdfrwt beam="1">  1        3 0.25271243E+00 0.89765603E+02</pdfrwt>
<pdfrwt beam="2">  1       -3 0.18867163E-03 0.89765603E+02</pdfrwt>
<totfact> 0.55272066E+03</totfact>
</mgrwt>
</event>
<event>
 7    1  0.1312339E-009  0.8399278E+02  0.7818608E-02  0.1318088E+00
          3   -1    0    0  501    0  0.00000000000E+00  0.00000000000E+00  0.49688405049E+02  0.49688507698E+02  0.10100000000E+00 0. -1.
         -3   -1    0    0    0  501 -0.00000000000E+00 -0.00000000000E+00 -0.35494925116E+02  0.35495068812E+02  0.10100000000E+00 0.  1.
         23    2    1    2    0    0  0.00000000000E+00  0.00000000000E+00  0.14193479933E+02  0.85183576510E+02  0.83992778466E+02 0.  0.
    9000005    2    3    3    0    0  0.15166861555E+02 -0.36039309708E+02 -0.78061075195E+01  0.40318808800E+02  0.59837692812E+01 0.  0.
         22    1    3    3    0    0 -0.15166861555E+02  0.36039309708E+02  0.21999587452E+02  0.44864767710E+02  0.00000000000E+00 0.  1.
         22    1    4    4    0    0  0.12486794480E+02 -0.22305640466E+02 -0.49696890994E+01  0.26041494633E+02  0.00000000000E+00 0. -1.
         22    1    4    4    0    0  0.26800670751E+01 -0.13733669241E+02 -0.28364184201E+01  0.14277314167E+02  0.00000000000E+00 0. -1.
<mgrwt>
<rscale>  0 0.83992778E+02</rscale>
<asrwt>0</asrwt>
<pdfrwt beam="1">  1        3 0.76443890E-02 0.83992778E+02</pdfrwt>
<pdfrwt beam="2">  1       -3 0.54607766E-02 0.83992778E+02</pdfrwt>
<totfact> 0.44723387E+04</totfact>
</mgrwt>
</event>
<event>
 7    1  0.1312339E-009  0.9405972E+02  0.7818608E-02  0.1293308E+00
         -3   -1    0    0    0  501 -0.00000000000E+00  0.00000000000E+00  0.69584844974E+02  0.69584918273E+02  0.10100000000E+00 0. -1.
          3   -1    0    0  501    0  0.00000000000E+00 -0.00000000000E+00 -0.31785597546E+02  0.31785758011E+02  0.10100000000E+00 0.  1.
         23    2    1    2    0    0  0.00000000000E+00  0.00000000000E+00  0.37799247429E+02  0.10137067628E+03  0.94059719881E+02 0.  0.
    9000005    2    3    3    0    0  0.31385360044E+02  0.27481517420E+01  0.55467937813E+02  0.65248996049E+02  0.13716639426E+02 0.  0.
         22    1    3    3    0    0 -0.31385360044E+02 -0.27481517420E+01 -0.17668690384E+02  0.36121680235E+02  0.00000000000E+00 0.  1.
         22    1    4    4    0    0  0.22506583500E+02  0.70418833782E+01  0.45375684931E+02  0.51137923357E+02  0.00000000000E+00 0.  1.
         22    1    4    4    0    0  0.88787765444E+01 -0.42937316361E+01  0.10092252882E+02  0.14111072692E+02  0.00000000000E+00 0.  1.
<mgrwt>
<rscale>  0 0.94059720E+02</rscale>
<asrwt>0</asrwt>
<pdfrwt beam="2">  1        3 0.48901100E-02 0.94059720E+02</pdfrwt>
<pdfrwt beam="1">  1       -3 0.10705379E-01 0.94059720E+02</pdfrwt>
<totfact> 0.31753654E+04</totfact>
</mgrwt>
</event>
<event>
 7    1  0.1312339E-009  0.9323883E+02  0.7818608E-02  0.1295193E+00
         -3   -1    0    0    0  501 -0.00000000000E+00  0.00000000000E+00  0.33677126834E+01  0.33692268724E+01  0.10100000000E+00 0.  1.
          3   -1    0    0  501    0  0.00000000000E+00 -0.00000000000E+00 -0.64520830012E+03  0.64520830803E+03  0.10100000000E+00 0. -1.
         23    2    1    2    0    0  0.00000000000E+00  0.00000000000E+00 -0.64184058744E+03  0.64857753490E+03  0.93238828247E+02 0.  0.
    9000005    2    3    3    0    0 -0.68224579032E+01 -0.35635955418E+02 -0.52337558907E+03  0.52468071053E+03  0.71675321896E+01 0.  0.
         22    1    3    3    0    0  0.68224579032E+01  0.35635955418E+02 -0.11846499837E+03  0.12389682437E+03  0.00000000000E+00 0.  1.
         22    1    4    4    0    0 -0.16209327120E+01 -0.10728510953E+02 -0.20666821424E+03  0.20695284281E+03  0.00000000000E+00 0. -1.
         22    1    4    4    0    0 -0.52015251913E+01 -0.24907444465E+02 -0.31670737483E+03  0.31772786772E+03  0.00000000000E+00 0. -1.
<mgrwt>
<rscale>  0 0.93238828E+02</rscale>
<asrwt>0</asrwt>
<pdfrwt beam="2">  1        3 0.99262834E-01 0.93238828E+02</pdfrwt>
<pdfrwt beam="1">  1       -3 0.51822724E-03 0.93238828E+02</pdfrwt>
<totfact> 0.13952929E+04</totfact>
</mgrwt>
</event>
<event>
 7    1  0.1312339E-009  0.8481244E+02  0.7818608E-02  0.1315924E+00
          3   -1    0    0  501    0  0.00000000000E+00  0.00000000000E+00  0.21312818910E+02  0.21313058225E+02  0.10100000000E+00 0. -1.
         -3   -1    0    0    0  501 -0.00000000000E+00 -0.00000000000E+00 -0.84375117813E+02  0.84375178263E+02  0.10100000000E+00 0.  1.
         23    2    1    2    0    0  0.00000000000E+00  0.00000000000E+00 -0.63062298903E+02  0.10568823649E+03  0.84812438882E+02 0.  0.
    9000005    2    3    3    0    0  0.21089023920E+02 -0.32753581282E+02 -0.49873878590E+02  0.64560649068E+02  0.12772220865E+02 0.  0.
         22    1    3    3    0    0 -0.21089023920E+02  0.32753581282E+02 -0.13188420313E+02  0.41127587420E+02  0.00000000000E+00 0. -1.
         22    1    4    4    0    0  0.74970127856E+00 -0.11100188073E+02 -0.11117786301E+02  0.15728362900E+02  0.00000000000E+00 0.  1.
         22    1    4    4    0    0  0.20339322641E+02 -0.21653393209E+02 -0.38756092288E+02  0.48832286168E+02  0.00000000000E+00 0.  1.
<mgrwt>
<rscale>  0 0.84812439E+02</rscale>
<asrwt>0</asrwt>
<pdfrwt beam="1">  1        3 0.32789183E-02 0.84812439E+02</pdfrwt>
<pdfrwt beam="2">  1       -3 0.12980810E-01 0.84812439E+02</pdfrwt>
<totfact> 0.41661008E+04</totfact>
</mgrwt>
</event>
<event>
 7    1  0.1312339E-009  0.9262165E+02  0.7818608E-02  0.1296624E+00
         -3   -1    0    0    0  501 -0.00000000000E+00  0.00000000000E+00  0.53147077997E+01  0.53156674084E+01  0.10100000000E+00 0.  1.
          3   -1    0    0  501    0  0.00000000000E+00 -0.00000000000E+00 -0.40350173718E+03  0.40350174982E+03  0.10100000000E+00 0. -1.
         23    2    1    2    0    0  0.00000000000E+00  0.00000000000E+00 -0.39818702938E+03  0.40881741723E+03  0.92621651157E+02 0.  0.
    9000005    2    3    3    0    0  0.41465872398E+02  0.19255990218E+02 -0.20399068349E+03  0.20931194741E+03  0.10444167860E+02 0.  0.
         22    1    3    3    0    0 -0.41465872398E+02 -0.19255990218E+02 -0.19419634589E+03  0.19950546982E+03  0.00000000000E+00 0.  1.
         22    1    4    4    0    0  0.10420821615E+02  0.57205859587E+01 -0.35082380266E+02  0.37041760649E+02  0.00000000000E+00 0. -1.
         22    1    4    4    0    0  0.31045050783E+02  0.13535404260E+02 -0.16890830323E+03  0.17227018676E+03  0.00000000000E+00 0. -1.
<mgrwt>
<rscale>  0 0.92621651E+02</rscale>
<asrwt>0</asrwt>
<pdfrwt beam="2">  1        3 0.62077241E-01 0.92621651E+02</pdfrwt>
<pdfrwt beam="1">  1       -3 0.81772246E-03 0.92621651E+02</pdfrwt>
<totfact> 0.19511759E+04</totfact>
</mgrwt>
</event>
<event>
 7    1  0.1312339E-009  0.9174322E+02  0.7818608E-02  0.1298684E+00
          3   -1    0    0  501    0  0.00000000000E+00  0.00000000000E+00  0.59442079190E+02  0.59442164996E+02  0.10100000000E+00 0. -1.
         -3   -1    0    0    0  501 -0.00000000000E+00 -0.00000000000E+00 -0.35399056652E+02  0.35399200738E+02  0.10100000000E+00 0.  1.
         23    2    1    2    0    0  0.00000000000E+00  0.00000000000E+00  0.24043022537E+02  0.94841365734E+02  0.91743216215E+02 0.  0.
    9000005    2    3    3    0    0  0.25742496430E+02  0.43527561941E+00 -0.26212047320E+02  0.38375113568E+02  0.11077559720E+02 0.  0.
         22    1    3    3    0    0 -0.25742496430E+02 -0.43527561941E+00  0.50255069857E+02  0.56466252166E+02  0.00000000000E+00 0. -1.
         22    1    4    4    0    0  0.46518266411E+00  0.15897201232E+01  0.34652405279E+00  0.16922422699E+01  0.00000000000E+00 0. -1.
         22    1    4    4    0    0  0.25277313766E+02 -0.11544445037E+01 -0.26558571372E+02  0.36682871298E+02  0.00000000000E+00 0. -1.
<mgrwt>
<rscale>  0 0.91743216E+02</rscale>
<asrwt>0</asrwt>
<pdfrwt beam="1">  1        3 0.91449529E-02 0.91743216E+02</pdfrwt>
<pdfrwt beam="2">  1       -3 0.54460264E-02 0.91743216E+02</pdfrwt>
<totfact> 0.34471177E+04</totfact>
</mgrwt>
</event>
<event>
 7    1  0.1312339E-009  0.9107152E+02  0.7818608E-02  0.1300277E+00
          3   -1    0    0  501    0  0.00000000000E+00  0.00000000000E+00  0.85909696394E+01  0.85915633237E+01  0.10100000000E+00 0. -1.
         -3   -1    0    0    0  501 -0.00000000000E+00 -0.00000000000E+00 -0.24134977949E+03  0.24134980063E+03  0.10100000000E+00 0.  1.
         23    2    1    2    0    0  0.88817841970E-15  0.00000000000E+00 -0.23275880985E+03  0.24994136395E+03  0.91071520514E+02 0.  0.
    9000005    2    3    3    0    0 -0.78289056579E+01  0.44195579568E+02 -0.12196579887E+03  0.13040211391E+03  0.10701130833E+02 0.  0.
         22    1    3    3    0    0  0.78289056579E+01 -0.44195579568E+02 -0.11079301098E+03  0.11953925004E+03  0.00000000000E+00 0. -1.
         22    1    4    4    0    0 -0.65044339199E+01  0.24058724699E+02 -0.53424525963E+02  0.58951758829E+02  0.00000000000E+00 0. -1.
         22    1    4    4    0    0 -0.13244717380E+01  0.20136854870E+02 -0.68541272909E+02  0.71450355083E+02  0.00000000000E+00 0. -1.
<mgrwt>
<rscale>  0 0.91071521E+02</rscale>
<asrwt>0</asrwt>
<pdfrwt beam="1">  1        3 0.13217351E-02 0.91071521E+02</pdfrwt>
<pdfrwt beam="2">  1       -3 0.37130777E-01 0.91071521E+02</pdfrwt>
<totfact> 0.26183486E+04</totfact>
</mgrwt>
</event>
<event>
 7    1  0.1312339E-009  0.8995535E+02  0.7818608E-02  0.1302960E+00
         -3   -1    0    0    0  501 -0.00000000000E+00  0.00000000000E+00  0.38594069955E+03  0.38594071276E+03  0.10100000000E+00 0.  1.
          3   -1    0    0  501    0  0.00000000000E+00 -0.00000000000E+00 -0.52412155758E+01  0.52421886376E+01  0.10100000000E+00 0. -1.
         23    2    1    2    0    0  0.00000000000E+00  0.00000000000E+00  0.38069948397E+03  0.39118290140E+03  0.89955351437E+02 0.  0.
    9000005    2    3    3    0    0 -0.36473415564E+02 -0.10273171097E+02  0.29314090313E+03  0.29577664811E+03  0.10788345299E+02 0.  0.
         22    1    3    3    0    0  0.36473415564E+02  0.10273171097E+02  0.87558580843E+02  0.95406253289E+02  0.00000000000E+00 0. -1.
         22    1    4    4    0    0 -0.36777522951E+01 -0.20227231759E+01  0.65862252691E+02  0.65995860481E+02  0.00000000000E+00 0. -1.
         22    1    4    4    0    0 -0.32795663269E+02 -0.82504479211E+01  0.22727865044E+03  0.22978078763E+03  0.00000000000E+00 0. -1.
<mgrwt>
<rscale>  0 0.89955351E+02</rscale>
<asrwt>0</asrwt>
<pdfrwt beam="2">  1        3 0.80641680E-03 0.89955351E+02</pdfrwt>
<pdfrwt beam="1">  1       -3 0.59375563E-01 0.89955351E+02</pdfrwt>
<totfact> 0.21635045E+04</totfact>
</mgrwt>
</event>
<event>
 7    1  0.1312339E-009  0.8941572E+02  0.7818608E-02  0.1304273E+00
          3   -1    0    0  501    0  0.00000000000E+00  0.00000000000E+00  0.65432083862E+02  0.65432161813E+02  0.10100000000E+00 0. -1.
         -3   -1    0    0    0  501 -0.00000000000E+00 -0.00000000000E+00 -0.30547416656E+02  0.30547583625E+02  0.10100000000E+00 0.  1.
         23    2    1    2    0    0  0.35527136788E-14  0.00000000000E+00  0.34884667206E+02  0.95979745439E+02  0.89415723049E+02 0.  0.
    9000005    2    3    3    0    0  0.28844072698E+02  0.26850685547E+02 -0.27921353980E+01  0.41459278652E+02  0.12575210617E+02 0.  0.
         22    1    3    3    0    0 -0.28844072698E+02 -0.26850685547E+02  0.37676802604E+02  0.54520466787E+02  0.00000000000E+00 0. -1.
         22    1    4    4    0    0  0.40686982839E+01  0.44930470763E+01  0.41849448926E+01  0.73658361039E+01  0.00000000000E+00 0.  1.
         22    1    4    4    0    0  0.24775374415E+02  0.22357638471E+02 -0.69770802906E+01  0.34093442548E+02  0.00000000000E+00 0.  1.
<mgrwt>
<rscale>  0 0.89415723E+02</rscale>
<asrwt>0</asrwt>
<pdfrwt beam="1">  1        3 0.10066493E-01 0.89415723E+02</pdfrwt>
<pdfrwt beam="2">  1       -3 0.46996214E-02 0.89415723E+02</pdfrwt>
<totfact> 0.36874297E+04</totfact>
</mgrwt>
</event>
<event>
 7    1  0.1312339E-009  0.9095678E+02  0.7818608E-02  0.1300551E+00
         -3   -1    0    0    0  501 -0.00000000000E+00  0.00000000000E+00  0.82518550616E+01  0.82524731419E+01  0.10100000000E+00 0.  1.
          3   -1    0    0  501    0  0.00000000000E+00 -0.00000000000E+00 -0.25063470358E+03  0.25063472393E+03  0.10100000000E+00 0. -1.
         23    2    1    2    0    0 -0.71054273576E-14  0.00000000000E+00 -0.24238284852E+03  0.25888719707E+03  0.90956778483E+02 0.  0.
    9000005    2    3    3    0    0 -0.44584739874E+02  0.44161451772E+01 -0.12053715350E+03  0.12906549333E+03  0.11017932064E+02 0.  0.
         22    1    3    3    0    0  0.44584739874E+02 -0.44161451772E+01 -0.12184569502E+03  0.12982170374E+03  0.00000000000E+00 0. -1.
         22    1    4    4    0    0  0.39725040371E+00 -0.17496574441E+00 -0.13725911113E+00  0.45525922127E+00  0.00000000000E+00 0.  1.
         22    1    4    4    0    0 -0.44981990278E+02  0.45911109216E+01 -0.12039989439E+03  0.12861023411E+03  0.00000000000E+00 0.  1.
<mgrwt>
<rscale>  0 0.90956778E+02</rscale>
<asrwt>0</asrwt>
<pdfrwt beam="2">  1        3 0.38559229E-01 0.90956778E+02</pdfrwt>
<pdfrwt beam="1">  1       -3 0.12695655E-02 0.90956778E+02</pdfrwt>
<totfact> 0.25881783E+04</totfact>
</mgrwt>
</event>
<event>
 7    1  0.1312339E-009  0.9142045E+02  0.7818608E-02  0.1299448E+00
          3   -1    0    0  501    0  0.00000000000E+00  0.00000000000E+00  0.10802183028E+03  0.10802187749E+03  0.10100000000E+00 0. -1.
         -3   -1    0    0    0  501 -0.00000000000E+00 -0.00000000000E+00 -0.19342429792E+02  0.19342693485E+02  0.10100000000E+00 0.  1.
         23    2    1    2    0    0  0.00000000000E+00  0.00000000000E+00  0.88679400483E+02  0.12736457098E+03  0.91420445581E+02 0.  0.
    9000005    2    3    3    0    0  0.42615698304E+00 -0.22013949904E+02  0.10012415620E+03  0.10254969573E+03  0.26072666492E+01 0.  0.
         22    1    3    3    0    0 -0.42615698304E+00  0.22013949904E+02 -0.11444755717E+02  0.24814875248E+02  0.00000000000E+00 0.  1.
         22    1    4    4    0    0 -0.15659623998E+00 -0.53320120132E+01  0.29621850166E+02  0.30098320248E+02  0.00000000000E+00 0.  1.
         22    1    4    4    0    0  0.58275322302E+00 -0.16681937891E+02  0.70502306033E+02  0.72451375482E+02  0.00000000000E+00 0.  1.
<mgrwt>
<rscale>  0 0.91420446E+02</rscale>
<asrwt>0</asrwt>
<pdfrwt beam="1">  1        3 0.16618767E-01 0.91420446E+02</pdfrwt>
<pdfrwt beam="2">  1       -3 0.29757823E-02 0.91420446E+02</pdfrwt>
<totfact> 0.32513316E+04</totfact>
</mgrwt>
</event>
<event>
 7    1  0.1312339E-009  0.9529319E+02  0.7818608E-02  0.1290517E+00
         -3   -1    0    0    0  501 -0.00000000000E+00  0.00000000000E+00  0.75159819860E+01  0.75166605759E+01  0.10100000000E+00 0.  1.
          3   -1    0    0  501    0  0.00000000000E+00 -0.00000000000E+00 -0.30203511307E+03  0.30203512996E+03  0.10100000000E+00 0. -1.
         23    2    1    2    0    0  0.71054273576E-14  0.00000000000E+00 -0.29451913108E+03  0.30955179053E+03  0.95293192032E+02 0.  0.
    9000005    2    3    3    0    0 -0.36774124403E+02  0.28328386337E+02 -0.11641169916E+03  0.12549448694E+03  0.65075996946E+01 0.  0.
         22    1    3    3    0    0  0.36774124403E+02 -0.28328386337E+02 -0.17810743193E+03  0.18405730359E+03  0.00000000000E+00 0. -1.
         22    1    4    4    0    0 -0.23775733192E+01  0.35074468009E+01 -0.74976652108E+01  0.86122018998E+01  0.00000000000E+00 0. -1.
         22    1    4    4    0    0 -0.34396551084E+02  0.24820939536E+02 -0.10891403395E+03  0.11688228504E+03  0.00000000000E+00 0. -1.
<mgrwt>
<rscale>  0 0.95293192E+02</rscale>
<asrwt>0</asrwt>
<pdfrwt beam="2">  1        3 0.46466985E-01 0.95293192E+02</pdfrwt>
<pdfrwt beam="1">  1       -3 0.11563587E-02 0.95293192E+02</pdfrwt>
<totfact> 0.21012974E+04</totfact>
</mgrwt>
</event>
<event>
 7    1  0.1312339E-009  0.9322999E+02  0.7818608E-02  0.1295213E+00
          3   -1    0    0  501    0  0.00000000000E+00  0.00000000000E+00  0.66073288953E+02  0.66073366147E+02  0.10100000000E+00 0. -1.
         -3   -1    0    0    0  501 -0.00000000000E+00 -0.00000000000E+00 -0.32886909649E+02  0.32887064741E+02  0.10100000000E+00 0.  1.
         23    2    1    2    0    0  0.00000000000E+00  0.00000000000E+00  0.33186379304E+02  0.98960430888E+02  0.93229990402E+02 0.  0.
    9000005    2    3    3    0    0 -0.41377984510E+01  0.28595599611E+02 -0.20557894827E+02  0.37941772308E+02  0.13495234455E+02 0.  0.
         22    1    3    3    0    0  0.41377984510E+01 -0.28595599611E+02  0.53744274131E+02  0.61018658581E+02  0.00000000000E+00 0. -1.
         22    1    4    4    0    0  0.16003749646E+00  0.12236685150E+02 -0.12936365344E+01  0.12305916096E+02  0.00000000000E+00 0.  1.
         22    1    4    4    0    0 -0.42978359474E+01  0.16358914461E+02 -0.19264258292E+02  0.25635856212E+02  0.00000000000E+00 0.  1.
<mgrwt>
<rscale>  0 0.93229990E+02</rscale>
<asrwt>0</asrwt>
<pdfrwt beam="1">  1        3 0.10165139E-01 0.93229990E+02</pdfrwt>
<pdfrwt beam="2">  1       -3 0.50595425E-02 0.93229990E+02</pdfrwt>
<totfact> 0.32698772E+04</totfact>
</mgrwt>
</event>
<event>
 7    1  0.1312339E-009  0.9064837E+02  0.7818608E-02  0.1301289E+00
         -3   -1    0    0    0  501 -0.00000000000E+00  0.00000000000E+00  0.21085202114E+03  0.21085204533E+03  0.10100000000E+00 0.  1.
          3   -1    0    0  501    0  0.00000000000E+00 -0.00000000000E+00 -0.97424777796E+01  0.97430012977E+01  0.10100000000E+00 0. -1.
         23    2    1    2    0    0  0.00000000000E+00  0.00000000000E+00  0.20110954336E+03  0.22059504663E+03  0.90648365490E+02 0.  0.
    9000005    2    3    3    0    0  0.12114713954E+02  0.34936975736E+02  0.43541785516E+02  0.58746485065E+02  0.13707802662E+02 0.  0.
         22    1    3    3    0    0 -0.12114713954E+02 -0.34936975736E+02  0.15756775785E+03  0.16184856156E+03  0.00000000000E+00 0.  1.
         22    1    4    4    0    0  0.14504300192E+02  0.24075149175E+02  0.28375381187E+02  0.39939326351E+02  0.00000000000E+00 0. -1.
         22    1    4    4    0    0 -0.23895862377E+01  0.10861826561E+02  0.15166404329E+02  0.18807158714E+02  0.00000000000E+00 0. -1.
<mgrwt>
<rscale>  0 0.90648365E+02</rscale>
<asrwt>0</asrwt>
<pdfrwt beam="2">  1        3 0.14988850E-02 0.90648365E+02</pdfrwt>
<pdfrwt beam="1">  1       -3 0.32438812E-01 0.90648365E+02</pdfrwt>
<totfact> 0.27898413E+04</totfact>
</mgrwt>
</event>
<event>
 7    1  0.1312339E-009  0.9156502E+02  0.7818608E-02  0.1299105E+00
         -3   -1    0    0    0  501 -0.00000000000E+00  0.00000000000E+00  0.25778473694E+02  0.25778671552E+02  0.10100000000E+00 0.  1.
          3   -1    0    0  501    0  0.00000000000E+00 -0.00000000000E+00 -0.81309082454E+02  0.81309145184E+02  0.10100000000E+00 0. -1.
         23    2    1    2    0    0  0.00000000000E+00  0.00000000000E+00 -0.55530608760E+02  0.10708781674E+03  0.91565015065E+02 0.  0.
    9000005    2    3    3    0    0  0.24068727348E+02 -0.37419122229E+02 -0.36237335041E+02  0.58593231931E+02  0.11854452020E+02 0.  0.
         22    1    3    3    0    0 -0.24068727348E+02  0.37419122229E+02 -0.19293273719E+02  0.48494584804E+02  0.00000000000E+00 0. -1.
         22    1    4    4    0    0  0.82397497959E+01 -0.89381945281E+01 -0.16509694660E+02  0.20502556326E+02  0.00000000000E+00 0.  1.
         22    1    4    4    0    0  0.15828977552E+02 -0.28480927701E+02 -0.19727640381E+02  0.38090675605E+02  0.00000000000E+00 0.  1.
<mgrwt>
<rscale>  0 0.91565015E+02</rscale>
<asrwt>0</asrwt>
<pdfrwt beam="2">  1        3 0.12509110E-01 0.91565015E+02</pdfrwt>
<pdfrwt beam="1">  1       -3 0.39659391E-02 0.91565015E+02</pdfrwt>
<totfact> 0.33760325E+04</totfact>
</mgrwt>
</event>
<event>
 7    1  0.1312339E-009  0.9001093E+02  0.7818608E-02  0.1302825E+00
          3   -1    0    0  501    0  0.00000000000E+00  0.00000000000E+00  0.25299996510E+02  0.25300198110E+02  0.10100000000E+00 0. -1.
         -3   -1    0    0    0  501 -0.00000000000E+00 -0.00000000000E+00 -0.80058423112E+02  0.80058486821E+02  0.10100000000E+00 0.  1.
         23    2    1    2    0    0  0.00000000000E+00  0.00000000000E+00 -0.54758426601E+02  0.10535868493E+03  0.90010928262E+02 0.  0.
    9000005    2    3    3    0    0  0.29870888467E+02  0.29511920819E+02 -0.44327148301E+02  0.62091664983E+02  0.11280750667E+02 0.  0.
         22    1    3    3    0    0 -0.29870888467E+02 -0.29511920819E+02 -0.10431278301E+02  0.43267019949E+02  0.00000000000E+00 0.  1.
         22    1    4    4    0    0  0.71096620575E+01  0.14595509012E+02 -0.15434643973E+02  0.22400991328E+02  0.00000000000E+00 0. -1.
         22    1    4    4    0    0  0.22761226410E+02  0.14916411807E+02 -0.28892504327E+02  0.39690673655E+02  0.00000000000E+00 0. -1.
<mgrwt>
<rscale>  0 0.90010928E+02</rscale>
<asrwt>0</asrwt>
<pdfrwt beam="1">  1        3 0.38923276E-02 0.90010928E+02</pdfrwt>
<pdfrwt beam="2">  1       -3 0.12316701E-01 0.90010928E+02</pdfrwt>
<totfact> 0.35498471E+04</totfact>
</mgrwt>
</event>
<event>
 7    1  0.1312339E-009  0.9307771E+02  0.7818608E-02  0.1295565E+00
          3   -1    0    0  501    0  0.00000000000E+00  0.00000000000E+00  0.67083350979E+02  0.67083427011E+02  0.10100000000E+00 0. -1.
         -3   -1    0    0    0  501 -0.00000000000E+00 -0.00000000000E+00 -0.32286006185E+02  0.32286164164E+02  0.10100000000E+00 0.  1.
         23    2    1    2    0    0 -0.71054273576E-14  0.00000000000E+00  0.34797344793E+02  0.99369591175E+02  0.93077711862E+02 0.  0.
    9000005    2    3    3    0    0  0.43204063846E+02 -0.80331746432E+01  0.26857040004E+01  0.44942754944E+02  0.90285762064E+01 0.  0.
         22    1    3    3    0    0 -0.43204063846E+02  0.80331746432E+01  0.32111640793E+02  0.54426836230E+02  0.00000000000E+00 0. -1.
         22    1    4    4    0    0  0.90081606900E+01  0.13788846320E+01  0.25940514922E+01  0.94750928749E+01  0.00000000000E+00 0.  1.
         22    1    4    4    0    0  0.34195903156E+02 -0.94120592752E+01  0.91652508275E-01  0.35467662069E+02  0.00000000000E+00 0.  1.
<mgrwt>
<rscale>  0 0.93077712E+02</rscale>
<asrwt>0</asrwt>
<pdfrwt beam="1">  1        3 0.10320533E-01 0.93077712E+02</pdfrwt>
<pdfrwt beam="2">  1       -3 0.49670959E-02 0.93077712E+02</pdfrwt>
<totfact> 0.32816433E+04</totfact>
</mgrwt>
</event>
<event>
 7    1  0.1312339E-009  0.9414215E+02  0.7818608E-02  0.1293120E+00
          3   -1    0    0  501    0  0.00000000000E+00  0.00000000000E+00  0.29830062143E+02  0.29830233128E+02  0.10100000000E+00 0. -1.
         -3   -1    0    0    0  501 -0.00000000000E+00 -0.00000000000E+00 -0.74276540667E+02  0.74276609336E+02  0.10100000000E+00 0.  1.
         23    2    1    2    0    0  0.00000000000E+00  0.00000000000E+00 -0.44446478524E+02  0.10410684246E+03  0.94142154185E+02 0.  0.
    9000005    2    3    3    0    0 -0.38566512113E+02  0.26578350538E+02 -0.22655475189E+02  0.52448034888E+02  0.66137155691E+01 0.  0.
         22    1    3    3    0    0  0.38566512113E+02 -0.26578350538E+02 -0.21791003335E+02  0.51658807576E+02  0.00000000000E+00 0. -1.
         22    1    4    4    0    0  0.20885683541E+00  0.41574366063E+00 -0.52305869791E+00  0.70003883501E+00  0.00000000000E+00 0. -1.
         22    1    4    4    0    0 -0.38775368949E+02  0.26162606877E+02 -0.22132416491E+02  0.51747996053E+02  0.00000000000E+00 0. -1.
<mgrwt>
<rscale>  0 0.94142154E+02</rscale>
<asrwt>0</asrwt>
<pdfrwt beam="1">  1        3 0.45892588E-02 0.94142154E+02</pdfrwt>
<pdfrwt beam="2">  1       -3 0.11427178E-01 0.94142154E+02</pdfrwt>
<totfact> 0.31494966E+04</totfact>
</mgrwt>
</event>
<event>
 7    1  0.1312339E-009  0.9246346E+02  0.7818608E-02  0.1296993E+00
         -3   -1    0    0    0  501 -0.00000000000E+00  0.00000000000E+00  0.19871976040E+02  0.19872232707E+02  0.10100000000E+00 0.  1.
          3   -1    0    0  501    0  0.00000000000E+00 -0.00000000000E+00 -0.10755616830E+03  0.10755621572E+03  0.10100000000E+00 0. -1.
         23    2    1    2    0    0  0.00000000000E+00  0.00000000000E+00 -0.87684192259E+02  0.12742844843E+03  0.92463462495E+02 0.  0.
    9000005    2    3    3    0    0  0.38957991169E+02  0.12980505067E+02 -0.16085168949E+02  0.44889737953E+02  0.83748030214E+01 0.  0.
         22    1    3    3    0    0 -0.38957991169E+02 -0.12980505067E+02 -0.71599023310E+02  0.82538710474E+02  0.00000000000E+00 0. -1.
         22    1    4    4    0    0  0.46325872412E+01 -0.21317577749E+00  0.26499822733E+00  0.46450546305E+01  0.00000000000E+00 0.  1.
         22    1    4    4    0    0  0.34325403928E+02  0.13193680845E+02 -0.16350167176E+02  0.40244683323E+02  0.00000000000E+00 0.  1.
<mgrwt>
<rscale>  0 0.92463462E+02</rscale>
<asrwt>0</asrwt>
<pdfrwt beam="2">  1        3 0.16547126E-01 0.92463462E+02</pdfrwt>
<pdfrwt beam="1">  1       -3 0.30572505E-02 0.92463462E+02</pdfrwt>
<totfact> 0.31520962E+04</totfact>
</mgrwt>
</event>
<event>
 7    1  0.1312339E-009  0.9203895E+02  0.7818608E-02  0.1297988E+00
          3   -1    0    0  501    0  0.00000000000E+00  0.00000000000E+00  0.76360731919E+02  0.76360798713E+02  0.10100000000E+00 0. -1.
         -3   -1    0    0    0  501 -0.00000000000E+00 -0.00000000000E+00 -0.27733878213E+02  0.27734062121E+02  0.10100000000E+00 0.  1.
         23    2    1    2    0    0  0.35527136788E-14  0.00000000000E+00  0.48626853705E+02  0.10409486083E+03  0.92038954530E+02 0.  0.
    9000005    2    3    3    0    0  0.31116687794E+02 -0.31535485874E+02  0.12068797674E+02  0.46655966439E+02  0.82697157417E+01 0.  0.
         22    1    3    3    0    0 -0.31116687794E+02  0.31535485874E+02  0.36558056031E+02  0.57438894396E+02  0.00000000000E+00 0. -1.
         22    1    4    4    0    0  0.97964807444E+01 -0.90229019872E+01  0.75865374723E+01  0.15327731276E+02  0.00000000000E+00 0. -1.
         22    1    4    4    0    0  0.21320207050E+02 -0.22512583887E+02  0.44822602017E+01  0.31328235163E+02  0.00000000000E+00 0. -1.
<mgrwt>
<rscale>  0 0.92038955E+02</rscale>
<asrwt>0</asrwt>
<pdfrwt beam="1">  1        3 0.11747824E-01 0.92038955E+02</pdfrwt>
<pdfrwt beam="2">  1       -3 0.42667698E-02 0.92038955E+02</pdfrwt>
<totfact> 0.33499586E+04</totfact>
</mgrwt>
</event>
<event>
 7    1  0.1312339E-009  0.8384399E+02  0.7818608E-02  0.1318484E+00
          3   -1    0    0  501    0  0.00000000000E+00  0.00000000000E+00  0.62461798213E+02  0.62461879871E+02  0.10100000000E+00 0. -1.
         -3   -1    0    0    0  501 -0.00000000000E+00 -0.00000000000E+00 -0.28136265553E+02  0.28136446831E+02  0.10100000000E+00 0.  1.
         23    2    1    2    0    0 -0.17763568394E-14  0.35527136788E-14  0.34325532660E+02  0.90598326702E+02  0.83843989700E+02 0.  0.
    9000005    2    3    3    0    0  0.12506971330E+02 -0.22099639424E+02 -0.16720484789E+02  0.33585044987E+02  0.14267523985E+02 0.  0.
         22    1    3    3    0    0 -0.12506971330E+02  0.22099639424E+02  0.51046017449E+02  0.57013281715E+02  0.00000000000E+00 0. -1.
         22    1    4    4    0    0 -0.15110975152E+01  0.47235706919E+00  0.78399143538E+00  0.17666860140E+01  0.00000000000E+00 0.  1.
         22    1    4    4    0    0  0.14018068845E+02 -0.22571996493E+02 -0.17504476225E+02  0.31818358973E+02  0.00000000000E+00 0.  1.
<mgrwt>
<rscale>  0 0.83843990E+02</rscale>
<asrwt>0</asrwt>
<pdfrwt beam="1">  1        3 0.96095275E-02 0.83843990E+02</pdfrwt>
<pdfrwt beam="2">  1       -3 0.43286765E-02 0.83843990E+02</pdfrwt>
<totfact> 0.44400209E+04</totfact>
</mgrwt>
</event>
<event>
 7    1  0.1312339E-009  0.9176061E+02  0.7818608E-02  0.1298643E+00
          3   -1    0    0  501    0  0.00000000000E+00  0.00000000000E+00  0.55745325901E+02  0.55745417397E+02  0.10100000000E+00 0. -1.
         -3   -1    0    0    0  501 -0.00000000000E+00 -0.00000000000E+00 -0.37760868950E+02  0.37761004023E+02  0.10100000000E+00 0.  1.
         23    2    1    2    0    0  0.00000000000E+00  0.00000000000E+00  0.17984456951E+02  0.93506421420E+02  0.91760613310E+02 0.  0.
    9000005    2    3    3    0    0 -0.35192149284E+02  0.22004679039E+02 -0.86965799061E+01  0.44165049342E+02  0.12338063482E+02 0.  0.
         22    1    3    3    0    0  0.35192149284E+02 -0.22004679039E+02  0.26681036857E+02  0.49341372078E+02  0.00000000000E+00 0. -1.
         22    1    4    4    0    0 -0.71632328543E+01  0.98592635283E+01  0.69554650448E+00  0.12206587041E+02  0.00000000000E+00 0. -1.
         22    1    4    4    0    0 -0.28028916429E+02  0.12145415511E+02 -0.93921264106E+01  0.31958462301E+02  0.00000000000E+00 0. -1.
<mgrwt>
<rscale>  0 0.91760613E+02</rscale>
<asrwt>0</asrwt>
<pdfrwt beam="1">  1        3 0.85762214E-02 0.91760613E+02</pdfrwt>
<pdfrwt beam="2">  1       -3 0.58093819E-02 0.91760613E+02</pdfrwt>
<totfact> 0.34553270E+04</totfact>
</mgrwt>
</event>
<event>
 7    1  0.1312339E-009  0.9188066E+02  0.7818608E-02  0.1298360E+00
          3   -1    0    0  501    0  0.00000000000E+00  0.00000000000E+00  0.84836347554E+03  0.84836348156E+03  0.10100000000E+00 0. -1.
         -3   -1    0    0    0  501 -0.00000000000E+00 -0.00000000000E+00 -0.24867162095E+01  0.24887664629E+01  0.10100000000E+00 0.  1.
         23    2    1    2    0    0 -0.35527136788E-14  0.00000000000E+00  0.84587675934E+03  0.85085224802E+03  0.91880661604E+02 0.  0.
    9000005    2    3    3    0    0  0.26906755799E+02  0.27083664624E+02  0.65718447196E+03  0.65833659226E+03  0.76249674268E+01 0.  0.
         22    1    3    3    0    0 -0.26906755799E+02 -0.27083664624E+02  0.18869228737E+03  0.19251565576E+03  0.00000000000E+00 0.  1.
         22    1    4    4    0    0  0.17220914785E+02  0.19873400606E+02  0.49867326462E+03  0.49936613502E+03  0.00000000000E+00 0. -1.
         22    1    4    4    0    0  0.96858410138E+01  0.72102640174E+01  0.15851120734E+03  0.15897045724E+03  0.00000000000E+00 0. -1.
<mgrwt>
<rscale>  0 0.91880662E+02</rscale>
<asrwt>0</asrwt>
<pdfrwt beam="1">  1        3 0.13051755E+00 0.91880662E+02</pdfrwt>
<pdfrwt beam="2">  1       -3 0.38273010E-03 0.91880662E+02</pdfrwt>
<totfact> 0.11494130E+04</totfact>
</mgrwt>
</event>
<event>
 7    1  0.1355842E-009  0.9122026E+02  0.7818608E-02  0.1299923E+00
         -3   -1    0    0    0  501 -0.00000000000E+00  0.00000000000E+00  0.27165834348E+02  0.27166022101E+02  0.10100000000E+00 0.  1.
          3   -1    0    0  501    0  0.00000000000E+00 -0.00000000000E+00 -0.76576725613E+02  0.76576792220E+02  0.10100000000E+00 0. -1.
         23    2    1    2    0    0  0.00000000000E+00 -0.17763568394E-14 -0.49410891265E+02  0.10374281432E+03  0.91220257332E+02 0.  0.
    9000005    2    3    3    0    0  0.37696203563E+02 -0.12015763024E+02 -0.25722163878E+01  0.42430141990E+02  0.15110206089E+02 0.  0.
         22    1    3    3    0    0 -0.37696203563E+02  0.12015763024E+02 -0.46838674878E+02  0.61312672331E+02  0.00000000000E+00 0. -1.
         22    1    4    4    0    0  0.22350668392E+02 -0.19000303666E+01  0.42402321740E+01  0.22828536131E+02  0.00000000000E+00 0.  1.
         22    1    4    4    0    0  0.15345535170E+02 -0.10115732658E+02 -0.68124485618E+01  0.19601605859E+02  0.00000000000E+00 0.  1.
<mgrwt>
<rscale>  0 0.91220257E+02</rscale>
<asrwt>0</asrwt>
<pdfrwt beam="2">  1        3 0.11781054E-01 0.91220257E+02</pdfrwt>
<pdfrwt beam="1">  1       -3 0.41793787E-02 0.91220257E+02</pdfrwt>
<totfact> 0.34351320E+04</totfact>
</mgrwt>
</event>
<event>
 7    1  0.1312339E-009  0.9143464E+02  0.7818608E-02  0.1299414E+00
         -3   -1    0    0    0  501 -0.00000000000E+00  0.00000000000E+00  0.44352730098E+03  0.44352731248E+03  0.10100000000E+00 0.  1.
          3   -1    0    0  501    0  0.00000000000E+00 -0.00000000000E+00 -0.47118364709E+01  0.47129188332E+01  0.10100000000E+00 0. -1.
         23    2    1    2    0    0  0.17763568394E-14  0.00000000000E+00  0.43881546451E+03  0.44824023131E+03  0.91434638268E+02 0.  0.
    9000005    2    3    3    0    0  0.10727394342E+02  0.39889857165E+02  0.31284108196E+03  0.31566639244E+03  0.83337303930E+01 0.  0.
         22    1    3    3    0    0 -0.10727394342E+02 -0.39889857165E+02  0.12597438255E+03  0.13257383887E+03  0.00000000000E+00 0. -1.
         22    1    4    4    0    0  0.10838079304E+02  0.25094505207E+02  0.19989332091E+03  0.20175365647E+03  0.00000000000E+00 0. -1.
         22    1    4    4    0    0 -0.11068496206E+00  0.14795351958E+02  0.11294776105E+03  0.11391273597E+03  0.00000000000E+00 0. -1.
<mgrwt>
<rscale>  0 0.91434638E+02</rscale>
<asrwt>0</asrwt>
<pdfrwt beam="2">  1        3 0.72498170E-03 0.91434638E+02</pdfrwt>
<pdfrwt beam="1">  1       -3 0.68235088E-01 0.91434638E+02</pdfrwt>
<totfact> 0.19073900E+04</totfact>
</mgrwt>
</event>
<event>
 7    1  0.1312339E-009  0.9110075E+02  0.7818608E-02  0.1300208E+00
          3   -1    0    0  501    0  0.00000000000E+00  0.00000000000E+00  0.56844057596E+02  0.56844147324E+02  0.10100000000E+00 0. -1.
         -3   -1    0    0    0  501 -0.00000000000E+00 -0.00000000000E+00 -0.36500313121E+02  0.36500452859E+02  0.10100000000E+00 0.  1.
         23    2    1    2    0    0  0.00000000000E+00  0.00000000000E+00  0.20343744474E+02  0.93344600183E+02  0.91100748867E+02 0.  0.
    9000005    2    3    3    0    0 -0.41055078505E+02 -0.14341848832E+02  0.16154469528E+01  0.45995289448E+02  0.14891235126E+02 0.  0.
         22    1    3    3    0    0  0.41055078505E+02  0.14341848832E+02  0.18728297522E+02  0.47349310735E+02  0.00000000000E+00 0. -1.
         22    1    4    4    0    0 -0.64646226718E+01  0.55187538738E+00  0.49880975221E+01  0.81839495124E+01  0.00000000000E+00 0.  1.
         22    1    4    4    0    0 -0.34590455834E+02 -0.14893724219E+02 -0.33726505693E+01  0.37811339936E+02  0.00000000000E+00 0.  1.
<mgrwt>
<rscale>  0 0.91100749E+02</rscale>
<asrwt>0</asrwt>
<pdfrwt beam="1">  1        3 0.87452572E-02 0.91100749E+02</pdfrwt>
<pdfrwt beam="2">  1       -3 0.56154505E-02 0.91100749E+02</pdfrwt>
<totfact> 0.35252956E+04</totfact>
</mgrwt>
</event>
<event>
 7    1  0.1312339E-009  0.8150245E+02  0.7818608E-02  0.1324841E+00
          3   -1    0    0  501    0  0.00000000000E+00  0.00000000000E+00  0.31685401025E+02  0.31685561997E+02  0.10100000000E+00 0. -1.
         -3   -1    0    0    0  501 -0.00000000000E+00 -0.00000000000E+00 -0.52410612748E+02  0.52410710066E+02  0.10100000000E+00 0.  1.
         23    2    1    2    0    0  0.00000000000E+00  0.00000000000E+00 -0.20725211723E+02  0.84096272063E+02  0.81502445202E+02 0.  0.
    9000005    2    3    3    0    0 -0.12758873101E+02  0.37827766726E+02 -0.16806125305E+02  0.43982832711E+02  0.76364224143E+01 0.  0.
         22    1    3    3    0    0  0.12758873101E+02 -0.37827766726E+02 -0.39190864179E+01  0.40113439352E+02  0.00000000000E+00 0. -1.
         22    1    4    4    0    0 -0.29157324798E+01  0.13431809031E+02 -0.94060239509E+01  0.16654977524E+02  0.00000000000E+00 0.  1.
         22    1    4    4    0    0 -0.98431406208E+01  0.24395957694E+02 -0.74001013542E+01  0.27327855188E+02  0.00000000000E+00 0.  1.
<mgrwt>
<rscale>  0 0.81502445E+02</rscale>
<asrwt>0</asrwt>
<pdfrwt beam="1">  1        3 0.48746969E-02 0.81502445E+02</pdfrwt>
<pdfrwt beam="2">  1       -3 0.80631911E-02 0.81502445E+02</pdfrwt>
<totfact> 0.48619272E+04</totfact>
</mgrwt>
</event>
<event>
 7    1  0.1312339E-009  0.9007899E+02  0.7818608E-02  0.1302661E+00
          3   -1    0    0  501    0  0.00000000000E+00  0.00000000000E+00  0.18317380173E+02  0.18317658622E+02  0.10100000000E+00 0. -1.
         -3   -1    0    0    0  501 -0.00000000000E+00 -0.00000000000E+00 -0.11074373755E+03  0.11074378361E+03  0.10100000000E+00 0.  1.
         23    2    1    2    0    0  0.00000000000E+00 -0.17763568394E-14 -0.92426357380E+02  0.12906144223E+03  0.90078989405E+02 0.  0.
    9000005    2    3    3    0    0 -0.31959732651E+02  0.62893871225E+01 -0.30470610553E+01  0.33931848975E+02  0.90058254644E+01 0.  0.
         22    1    3    3    0    0  0.31959732651E+02 -0.62893871225E+01 -0.89379296325E+02  0.95129593256E+02  0.00000000000E+00 0.  1.
         22    1    4    4    0    0 -0.30641188989E+01 -0.19810316143E+01  0.43650445149E+00  0.36747580899E+01  0.00000000000E+00 0. -1.
         22    1    4    4    0    0 -0.28895613752E+02  0.82704187368E+01 -0.34835655067E+01  0.30257090885E+02  0.00000000000E+00 0. -1.
<mgrwt>
<rscale>  0 0.90078989E+02</rscale>
<asrwt>0</asrwt>
<pdfrwt beam="1">  1        3 0.28180835E-02 0.90078989E+02</pdfrwt>
<pdfrwt beam="2">  1       -3 0.17037523E-01 0.90078989E+02</pdfrwt>
<totfact> 0.33727690E+04</totfact>
</mgrwt>
</event>
<event>
 7    1  0.1312339E-009  0.9458639E+02  0.7818608E-02  0.1292110E+00
          3   -1    0    0  501    0  0.00000000000E+00  0.00000000000E+00  0.48042869334E+02  0.48042975500E+02  0.10100000000E+00 0. -1.
         -3   -1    0    0    0  501 -0.00000000000E+00 -0.00000000000E+00 -0.46555007888E+02  0.46555117447E+02  0.10100000000E+00 0.  1.
         23    2    1    2    0    0 -0.88817841970E-15  0.00000000000E+00  0.14878614461E+01  0.94598092947E+02  0.94586391502E+02 0.  0.
    9000005    2    3    3    0    0 -0.77579067595E+01 -0.39669049785E+02  0.25107600674E+02  0.47782382877E+02  0.43526857936E+01 0.  0.
         22    1    3    3    0    0  0.77579067595E+01  0.39669049785E+02 -0.23619739228E+02  0.46815710070E+02  0.00000000000E+00 0.  1.
         22    1    4    4    0    0 -0.22000110640E+01 -0.22338504429E+02  0.14326834698E+02  0.26629063470E+02  0.00000000000E+00 0. -1.
         22    1    4    4    0    0 -0.55578956955E+01 -0.17330545356E+02  0.10780765975E+02  0.21153319407E+02  0.00000000000E+00 0. -1.
<mgrwt>
<rscale>  0 0.94586392E+02</rscale>
<asrwt>0</asrwt>
<pdfrwt beam="1">  1        3 0.73912272E-02 0.94586392E+02</pdfrwt>
<pdfrwt beam="2">  1       -3 0.71623255E-02 0.94586392E+02</pdfrwt>
<totfact> 0.31727510E+04</totfact>
</mgrwt>
</event>
<event>
 7    1  0.1312339E-009  0.9023381E+02  0.7818608E-02  0.1302286E+00
          3   -1    0    0  501    0  0.00000000000E+00  0.00000000000E+00  0.13591865777E+03  0.13591869530E+03  0.10100000000E+00 0. -1.
         -3   -1    0    0    0  501 -0.00000000000E+00 -0.00000000000E+00 -0.14975918514E+02  0.14976259091E+02  0.10100000000E+00 0.  1.
         23    2    1    2    0    0  0.17763568394E-14  0.71054273576E-14  0.12094273926E+03  0.15089495439E+03  0.90233813401E+02 0.  0.
    9000005    2    3    3    0    0  0.96445226648E+01  0.38776339466E+02  0.94716094250E+02  0.10309894799E+03  0.78506844236E+01 0.  0.
         22    1    3    3    0    0 -0.96445226648E+01 -0.38776339466E+02  0.26226645010E+02  0.47796006405E+02  0.00000000000E+00 0.  1.
         22    1    4    4    0    0  0.10586524047E+02  0.36067318737E+02  0.90540564814E+02  0.98033258893E+02  0.00000000000E+00 0.  1.
         22    1    4    4    0    0 -0.94200138225E+00  0.27090207290E+01  0.41755294362E+01  0.50656890930E+01  0.00000000000E+00 0.  1.
<mgrwt>
<rscale>  0 0.90233813E+02</rscale>
<asrwt>0</asrwt>
<pdfrwt beam="1">  1        3 0.20910590E-01 0.90233813E+02</pdfrwt>
<pdfrwt beam="2">  1       -3 0.23040167E-02 0.90233813E+02</pdfrwt>
<totfact> 0.32143053E+04</totfact>
</mgrwt>
</event>
<event>
 7    1  0.1312339E-009  0.1130315E+03  0.7818608E-02  0.1255057E+00
          3   -1    0    0  501    0  0.00000000000E+00  0.00000000000E+00  0.75581573290E+02  0.75581640773E+02  0.10100000000E+00 0. -1.
         -3   -1    0    0    0  501 -0.00000000000E+00 -0.00000000000E+00 -0.42259220495E+02  0.42259341191E+02  0.10100000000E+00 0.  1.
         23    2    1    2    0    0  0.00000000000E+00  0.00000000000E+00  0.33322352794E+02  0.11784098196E+03  0.11303149045E+03 0.  0.
    9000005    2    3    3    0    0 -0.47609043594E+02 -0.28626528873E+02  0.26633558491E+02  0.61887079897E+02  0.58792034303E+01 0.  0.
         22    1    3    3    0    0  0.47609043594E+02  0.28626528873E+02  0.66887943030E+01  0.55953902067E+02  0.00000000000E+00 0. -1.
         22    1    4    4    0    0 -0.41520489594E+02 -0.22785545029E+02  0.21523660031E+02  0.52023072377E+02  0.00000000000E+00 0. -1.
         22    1    4    4    0    0 -0.60885539999E+01 -0.58409838438E+01  0.51098984605E+01  0.98640075198E+01  0.00000000000E+00 0. -1.
<mgrwt>
<rscale>  0 0.11303149E+03</rscale>
<asrwt>0</asrwt>
<pdfrwt beam="1">  1        3 0.11627949E-01 0.11303149E+03</pdfrwt>
<pdfrwt beam="2">  1       -3 0.65014330E-02 0.11303149E+03</pdfrwt>
<totfact> 0.18480850E+04</totfact>
</mgrwt>
</event>
<event>
 7    1  0.1312339E-009  0.9085179E+02  0.7818608E-02  0.1300802E+00
         -3   -1    0    0    0  501 -0.00000000000E+00  0.00000000000E+00  0.14003088575E+03  0.14003092218E+03  0.10100000000E+00 0.  1.
          3   -1    0    0  501    0  0.00000000000E+00 -0.00000000000E+00 -0.14735909507E+02  0.14736255630E+02  0.10100000000E+00 0. -1.
         23    2    1    2    0    0  0.00000000000E+00  0.00000000000E+00  0.12529497625E+03  0.15476717781E+03  0.90851792795E+02 0.  0.
    9000005    2    3    3    0    0 -0.23083189744E+02  0.25703079228E+02  0.11187263245E+03  0.11770451137E+03  0.12057536033E+02 0.  0.
         22    1    3    3    0    0  0.23083189744E+02 -0.25703079228E+02  0.13422343799E+02  0.37062666440E+02  0.00000000000E+00 0. -1.
         22    1    4    4    0    0 -0.15767156949E+02  0.24553382790E+02  0.88459487353E+02  0.93148015263E+02  0.00000000000E+00 0.  1.
         22    1    4    4    0    0 -0.73160327957E+01  0.11496964382E+01  0.23413145095E+02  0.24556496106E+02  0.00000000000E+00 0.  1.
<mgrwt>
<rscale>  0 0.90851793E+02</rscale>
<asrwt>0</asrwt>
<pdfrwt beam="2">  1        3 0.22670925E-02 0.90851793E+02</pdfrwt>
<pdfrwt beam="1">  1       -3 0.21543242E-01 0.90851793E+02</pdfrwt>
<totfact> 0.31320054E+04</totfact>
</mgrwt>
</event>
<event>
 7    1  0.1312339E-009  0.9167590E+02  0.7818608E-02  0.1298843E+00
          3   -1    0    0  501    0  0.00000000000E+00  0.00000000000E+00  0.85026933753E+02  0.85026993740E+02  0.10100000000E+00 0. -1.
         -3   -1    0    0    0  501 -0.00000000000E+00 -0.00000000000E+00 -0.24711031806E+02  0.24711238211E+02  0.10100000000E+00 0.  1.
         23    2    1    2    0    0  0.00000000000E+00  0.00000000000E+00  0.60315901947E+02  0.10973823195E+03  0.91675904816E+02 0.  0.
    9000005    2    3    3    0    0  0.12393171945E+02  0.31479274299E+02 -0.59755757634E+01  0.35313132432E+02  0.81715601467E+01 0.  0.
         22    1    3    3    0    0 -0.12393171945E+02 -0.31479274299E+02  0.66291477711E+02  0.74425099518E+02  0.00000000000E+00 0. -1.
         22    1    4    4    0    0  0.49866780193E+01  0.53110249182E+01 -0.32611796157E+01  0.79818065522E+01  0.00000000000E+00 0.  1.
         22    1    4    4    0    0  0.74064939260E+01  0.26168249380E+02 -0.27143961477E+01  0.27331325880E+02  0.00000000000E+00 0.  1.
<mgrwt>
<rscale>  0 0.91675905E+02</rscale>
<asrwt>0</asrwt>
<pdfrwt beam="1">  1        3 0.13081087E-01 0.91675905E+02</pdfrwt>
<pdfrwt beam="2">  1       -3 0.38017178E-02 0.91675905E+02</pdfrwt>
<totfact> 0.33462207E+04</totfact>
</mgrwt>
</event>
<event>
 7    1  0.1312339E-009  0.8607084E+02  0.7818608E-02  0.1312656E+00
          3   -1    0    0  501    0  0.00000000000E+00  0.00000000000E+00  0.24235272061E+02  0.24235482517E+02  0.10100000000E+00 0. -1.
         -3   -1    0    0    0  501 -0.00000000000E+00 -0.00000000000E+00 -0.76418931060E+02  0.76418997804E+02  0.10100000000E+00 0.  1.
         23    2    1    2    0    0  0.00000000000E+00 -0.22898349883E-15 -0.52183659000E+02  0.10065448032E+03  0.86070843740E+02 0.  0.
    9000005    2    3    3    0    0  0.38187717953E+02  0.47777778897E-01 -0.47623667295E+02  0.62195442248E+02  0.11914498086E+02 0.  0.
         22    1    3    3    0    0 -0.38187717953E+02 -0.47777778897E-01 -0.45599917047E+01  0.38459038073E+02  0.00000000000E+00 0. -1.
         22    1    4    4    0    0  0.26998530859E+02  0.53255264257E+01 -0.30640481412E+02  0.41183989625E+02  0.00000000000E+00 0.  1.
         22    1    4    4    0    0  0.11189187094E+02 -0.52777486468E+01 -0.16983185883E+02  0.21011452623E+02  0.00000000000E+00 0.  1.
<mgrwt>
<rscale>  0 0.86070844E+02</rscale>
<asrwt>0</asrwt>
<pdfrwt beam="1">  1        3 0.37285248E-02 0.86070844E+02</pdfrwt>
<pdfrwt beam="2">  1       -3 0.11756780E-01 0.86070844E+02</pdfrwt>
<totfact> 0.40472673E+04</totfact>
</mgrwt>
</event>
<event>
 7    1  0.1312339E-009  0.9232484E+02  0.7818608E-02  0.1297317E+00
         -3   -1    0    0    0  501 -0.00000000000E+00  0.00000000000E+00  0.51155342540E+01  0.51165312179E+01  0.10100000000E+00 0.  1.
          3   -1    0    0  501    0  0.00000000000E+00 -0.00000000000E+00 -0.41652665303E+03  0.41652666528E+03  0.10100000000E+00 0. -1.
         23    2    1    2    0    0  0.66613381478E-15  0.00000000000E+00 -0.41141111878E+03  0.42164319649E+03  0.92324842250E+02 0.  0.
    9000005    2    3    3    0    0  0.19679634285E+01  0.32867993685E+02 -0.35049330548E+03  0.35239611810E+03  0.15915055101E+02 0.  0.
         22    1    3    3    0    0 -0.19679634285E+01 -0.32867993685E+02 -0.60917813302E+02  0.69247078396E+02  0.00000000000E+00 0.  1.
         22    1    4    4    0    0 -0.26238547951E+01  0.29119416796E+02 -0.24536016613E+03  0.24709600598E+03  0.00000000000E+00 0.  1.
         22    1    4    4    0    0  0.45918182235E+01  0.37485768887E+01 -0.10513313934E+03  0.10530011211E+03  0.00000000000E+00 0.  1.
<mgrwt>
<rscale>  0 0.92324842E+02</rscale>
<asrwt>0</asrwt>
<pdfrwt beam="2">  1        3 0.64081075E-01 0.92324842E+02</pdfrwt>
<pdfrwt beam="1">  1       -3 0.78708323E-03 0.92324842E+02</pdfrwt>
<totfact> 0.19319196E+04</totfact>
</mgrwt>
</event>
<event>
 7    1  0.1312339E-009  0.1076130E+03  0.7818608E-02  0.1265055E+00
         -3   -1    0    0    0  501 -0.00000000000E+00  0.00000000000E+00  0.98023945696E+02  0.98023997729E+02  0.10100000000E+00 0.  1.
          3   -1    0    0  501    0  0.00000000000E+00 -0.00000000000E+00 -0.29534894013E+02  0.29535066707E+02  0.10100000000E+00 0. -1.
         23    2    1    2    0    0  0.00000000000E+00  0.00000000000E+00  0.68489051683E+02  0.12755906444E+03  0.10761303229E+03 0.  0.
    9000005    2    3    3    0    0 -0.41255709308E+01 -0.30676448091E+02 -0.17198547346E+02  0.36452371870E+02  0.86556675745E+01 0.  0.
         22    1    3    3    0    0  0.41255709308E+01  0.30676448091E+02  0.85687599028E+02  0.91106692566E+02  0.00000000000E+00 0.  1.
         22    1    4    4    0    0  0.20918103051E+01 -0.16807666730E+02 -0.93553029600E+01  0.19349290032E+02  0.00000000000E+00 0. -1.
         22    1    4    4    0    0 -0.62173812359E+01 -0.13868781361E+02 -0.78432443858E+01  0.17103081839E+02  0.00000000000E+00 0. -1.
<mgrwt>
<rscale>  0 0.10761303E+03</rscale>
<asrwt>0</asrwt>
<pdfrwt beam="2">  1        3 0.45438471E-02 0.10761303E+03</pdfrwt>
<pdfrwt beam="1">  1       -3 0.15080624E-01 0.10761303E+03</pdfrwt>
<totfact> 0.20780038E+04</totfact>
</mgrwt>
</event>
<event>
 7    1  0.1842546E-009  0.9014961E+02  0.7818608E-02  0.1302490E+00
         -3   -1    0    0    0  501 -0.00000000000E+00  0.00000000000E+00  0.18456952748E+03  0.18456955511E+03  0.10100000000E+00 0.  1.
          3   -1    0    0  501    0  0.00000000000E+00 -0.00000000000E+00 -0.11007722291E+02  0.11008185638E+02  0.10100000000E+00 0. -1.
         23    2    1    2    0    0  0.00000000000E+00  0.00000000000E+00  0.17356180519E+03  0.19557774075E+03  0.90149611522E+02 0.  0.
    9000005    2    3    3    0    0 -0.14141417699E+02 -0.21635108279E+02  0.16592059912E+03  0.16862508532E+03  0.15385596546E+02 0.  0.
         22    1    3    3    0    0  0.14141417699E+02  0.21635108279E+02  0.76412060667E+01  0.26952655434E+02  0.00000000000E+00 0. -1.
         22    1    4    4    0    0 -0.38072314211E+01 -0.14222339527E+01  0.70244859026E+01  0.81154890614E+01  0.00000000000E+00 0.  1.
         22    1    4    4    0    0 -0.10334186278E+02 -0.20212874326E+02  0.15889611322E+03  0.16050959626E+03  0.00000000000E+00 0.  1.
<mgrwt>
<rscale>  0 0.90149612E+02</rscale>
<asrwt>0</asrwt>
<pdfrwt beam="2">  1        3 0.16935337E-02 0.90149612E+02</pdfrwt>
<pdfrwt beam="1">  1       -3 0.28395347E-01 0.90149612E+02</pdfrwt>
<totfact> 0.29618112E+04</totfact>
</mgrwt>
</event>
<event>
 7    1  0.1312339E-009  0.9129610E+02  0.7818608E-02  0.1299743E+00
          3   -1    0    0  501    0  0.00000000000E+00  0.00000000000E+00  0.12568710469E+02  0.12569116272E+02  0.10100000000E+00 0. -1.
         -3   -1    0    0    0  501 -0.00000000000E+00 -0.00000000000E+00 -0.16578514407E+03  0.16578517483E+03  0.10100000000E+00 0.  1.
         23    2    1    2    0    0  0.00000000000E+00  0.00000000000E+00 -0.15321643360E+03  0.17835429110E+03  0.91296098663E+02 0.  0.
    9000005    2    3    3    0    0 -0.35517193991E+02  0.27230774549E+02 -0.69813075413E+02  0.83701735366E+02  0.11363487712E+02 0.  0.
         22    1    3    3    0    0  0.35517193991E+02 -0.27230774549E+02 -0.83403358184E+02  0.94652555739E+02  0.00000000000E+00 0.  1.
         22    1    4    4    0    0 -0.27778572554E+02  0.16975680836E+02 -0.42660974521E+02  0.53663596414E+02  0.00000000000E+00 0. -1.
         22    1    4    4    0    0 -0.77386214369E+01  0.10255093713E+02 -0.27152100893E+02  0.30038138952E+02  0.00000000000E+00 0. -1.
<mgrwt>
<rscale>  0 0.91296099E+02</rscale>
<asrwt>0</asrwt>
<pdfrwt beam="1">  1        3 0.19336815E-02 0.91296099E+02</pdfrwt>
<pdfrwt beam="2">  1       -3 0.25505439E-01 0.91296099E+02</pdfrwt>
<totfact> 0.29552224E+04</totfact>
</mgrwt>
</event>
<event>
 7    1  0.1312339E-009  0.9292701E+02  0.7818608E-02  0.1295914E+00
          3   -1    0    0  501    0  0.00000000000E+00  0.00000000000E+00  0.39476233149E+02  0.39476362353E+02  0.10100000000E+00 0. -1.
         -3   -1    0    0    0  501 -0.00000000000E+00 -0.00000000000E+00 -0.54687257886E+02  0.54687351152E+02  0.10100000000E+00 0.  1.
         23    2    1    2    0    0  0.00000000000E+00  0.00000000000E+00 -0.15211024736E+02  0.94163713506E+02  0.92927012583E+02 0.  0.
    9000005    2    3    3    0    0 -0.33647887505E+01  0.41493016962E+02  0.13259986460E+02  0.43729689886E+02  0.18617939200E+01 0.  0.
         22    1    3    3    0    0  0.33647887505E+01 -0.41493016962E+02 -0.28471011196E+02  0.50434023620E+02  0.00000000000E+00 0.  1.
         22    1    4    4    0    0 -0.24054418476E+01  0.36716394762E+02  0.11520810942E+02  0.38556567269E+02  0.00000000000E+00 0.  1.
         22    1    4    4    0    0 -0.95934690294E+00  0.47766222002E+01  0.17391755181E+01  0.51731226166E+01  0.00000000000E+00 0.  1.
<mgrwt>
<rscale>  0 0.92927013E+02</rscale>
<asrwt>0</asrwt>
<pdfrwt beam="1">  1        3 0.60732838E-02 0.92927013E+02</pdfrwt>
<pdfrwt beam="2">  1       -3 0.84134414E-02 0.92927013E+02</pdfrwt>
<totfact> 0.33334454E+04</totfact>
</mgrwt>
</event>
<event>
 7    1  0.1312339E-009  0.9223692E+02  0.7818608E-02  0.1297523E+00
          3   -1    0    0  501    0  0.00000000000E+00  0.00000000000E+00  0.19439056980E+01  0.19465277709E+01  0.10100000000E+00 0. -1.
         -3   -1    0    0    0  501 -0.00000000000E+00 -0.00000000000E+00 -0.10934037988E+04  0.10934038035E+04  0.10100000000E+00 0.  1.
         23    2    1    2    0    0  0.00000000000E+00  0.88817841970E-15 -0.10914598931E+04  0.10953503312E+04  0.92236922584E+02 0.  0.
    9000005    2    3    3    0    0 -0.12029500118E+02 -0.61582766957E+01 -0.10685929481E+04  0.10687885086E+04  0.15341260300E+02 0.  0.
         22    1    3    3    0    0  0.12029500118E+02  0.61582766957E+01 -0.22866945012E+02  0.26561822586E+02  0.00000000000E+00 0. -1.
         22    1    4    4    0    0 -0.56460034661E+01 -0.25352278909E+01 -0.91441151639E+03  0.91443246117E+03  0.00000000000E+00 0.  1.
         22    1    4    4    0    0 -0.63834966516E+01 -0.36230488049E+01 -0.15418143169E+03  0.15435604746E+03  0.00000000000E+00 0.  1.
<mgrwt>
<rscale>  0 0.92236923E+02</rscale>
<asrwt>0</asrwt>
<pdfrwt beam="1">  1        3 0.29926535E-03 0.92236923E+02</pdfrwt>
<pdfrwt beam="2">  1       -3 0.16821568E+00 0.92236923E+02</pdfrwt>
<totfact> 0.87766350E+03</totfact>
</mgrwt>
</event>
<event>
 7    1  0.1312339E-009  0.9244985E+02  0.7818608E-02  0.1297025E+00
          3   -1    0    0  501    0  0.00000000000E+00  0.00000000000E+00  0.63149414827E+03  0.63149415635E+03  0.10100000000E+00 0. -1.
         -3   -1    0    0    0  501 -0.00000000000E+00 -0.00000000000E+00 -0.33828697665E+01  0.33843771742E+01  0.10100000000E+00 0.  1.
         23    2    1    2    0    0  0.35527136788E-14  0.00000000000E+00  0.62811127851E+03  0.63487853352E+03  0.92449846634E+02 0.  0.
    9000005    2    3    3    0    0  0.21922020213E+02  0.29081671341E+02  0.50756951000E+03  0.50895539612E+03  0.90812544980E+01 0.  0.
         22    1    3    3    0    0 -0.21922020213E+02 -0.29081671341E+02  0.12054176851E+03  0.12592313741E+03  0.00000000000E+00 0.  1.
         22    1    4    4    0    0  0.13572053731E+02  0.10492927331E+02  0.23059338230E+03  0.23123064271E+03  0.00000000000E+00 0.  1.
         22    1    4    4    0    0  0.83499664815E+01  0.18588744010E+02  0.27697612769E+03  0.27772475341E+03  0.00000000000E+00 0.  1.
<mgrwt>
<rscale>  0 0.92449847E+02</rscale>
<asrwt>0</asrwt>
<pdfrwt beam="1">  1        3 0.97153080E-01 0.92449847E+02</pdfrwt>
<pdfrwt beam="2">  1       -3 0.52055799E-03 0.92449847E+02</pdfrwt>
<totfact> 0.14514019E+04</totfact>
</mgrwt>
</event>
<event>
 7    1  0.1312339E-009  0.9358221E+02  0.7818608E-02  0.1294402E+00
          3   -1    0    0  501    0  0.00000000000E+00  0.00000000000E+00  0.30352989569E+01  0.30369788866E+01  0.10100000000E+00 0. -1.
         -3   -1    0    0    0  501 -0.00000000000E+00 -0.00000000000E+00 -0.72111398411E+03  0.72111399118E+03  0.10100000000E+00 0.  1.
         23    2    1    2    0    0  0.35527136788E-14  0.00000000000E+00 -0.71807868515E+03  0.72415097007E+03  0.93582206544E+02 0.  0.
    9000005    2    3    3    0    0 -0.10676115607E+02  0.48702369137E+01 -0.70940107971E+03  0.70955646808E+03  0.90989478137E+01 0.  0.
         22    1    3    3    0    0  0.10676115607E+02 -0.48702369137E+01 -0.86776054430E+01  0.14594501988E+02  0.00000000000E+00 0. -1.
         22    1    4    4    0    0 -0.11466965942E+02  0.40853959847E+01 -0.48539156552E+03  0.48554418300E+03  0.00000000000E+00 0. -1.
         22    1    4    4    0    0  0.79085033571E+00  0.78484092896E+00 -0.22400951418E+03  0.22401228508E+03  0.00000000000E+00 0. -1.
<mgrwt>
<rscale>  0 0.93582207E+02</rscale>
<asrwt>0</asrwt>
<pdfrwt beam="1">  1        3 0.46709941E-03 0.93582207E+02</pdfrwt>
<pdfrwt beam="2">  1       -3 0.11094061E+00 0.93582207E+02</pdfrwt>
<totfact> 0.12592722E+04</totfact>
</mgrwt>
</event>
<event>
 7    1  0.1312339E-009  0.9082686E+02  0.7818608E-02  0.1300862E+00
          3   -1    0    0  501    0  0.00000000000E+00  0.00000000000E+00  0.14553837680E+02  0.14554188134E+02  0.10100000000E+00 0. -1.
         -3   -1    0    0    0  501 -0.00000000000E+00 -0.00000000000E+00 -0.14170486809E+03  0.14170490408E+03  0.10100000000E+00 0.  1.
         23    2    1    2    0    0  0.00000000000E+00  0.00000000000E+00 -0.12715103041E+03  0.15625909221E+03  0.90826864782E+02 0.  0.
    9000005    2    3    3    0    0  0.40361870981E+02 -0.20033651307E+02 -0.58197456597E+02  0.73887840221E+02  0.64839158199E+01 0.  0.
         22    1    3    3    0    0 -0.40361870981E+02  0.20033651307E+02 -0.68953573810E+02  0.82371251994E+02  0.00000000000E+00 0.  1.
         22    1    4    4    0    0  0.20456788676E+02 -0.94440124711E+01 -0.23929470491E+02  0.32867752166E+02  0.00000000000E+00 0.  1.
         22    1    4    4    0    0  0.19905082306E+02 -0.10589638836E+02 -0.34267986106E+02  0.41020088055E+02  0.00000000000E+00 0.  1.
<mgrwt>
<rscale>  0 0.90826865E+02</rscale>
<asrwt>0</asrwt>
<pdfrwt beam="1">  1        3 0.22390818E-02 0.90826865E+02</pdfrwt>
<pdfrwt beam="2">  1       -3 0.21800778E-01 0.90826865E+02</pdfrwt>
<totfact> 0.31252799E+04</totfact>
</mgrwt>
</event>
<event>
 7    1  0.1312339E-009  0.8639763E+02  0.7818608E-02  0.1311818E+00
          3   -1    0    0  501    0  0.00000000000E+00  0.00000000000E+00  0.30834115963E+02  0.30834281380E+02  0.10100000000E+00 0. -1.
         -3   -1    0    0    0  501 -0.00000000000E+00 -0.00000000000E+00 -0.60521469485E+02  0.60521553761E+02  0.10100000000E+00 0.  1.
         23    2    1    2    0    0  0.00000000000E+00  0.44408920985E-15 -0.29687353522E+02  0.91355835141E+02  0.86397625287E+02 0.  0.
    9000005    2    3    3    0    0  0.35696766188E+02  0.33978210146E+01  0.75706426924E+01  0.39645463011E+02  0.15120972280E+02 0.  0.
         22    1    3    3    0    0 -0.35696766188E+02 -0.33978210146E+01 -0.37257996215E+02  0.51710372130E+02  0.00000000000E+00 0.  1.
         22    1    4    4    0    0  0.34464625619E+02 -0.70027342474E+00  0.55596985249E+01  0.34917202775E+02  0.00000000000E+00 0.  1.
         22    1    4    4    0    0  0.12321405684E+01  0.40980944394E+01  0.20109441676E+01  0.47282602360E+01  0.00000000000E+00 0.  1.
<mgrwt>
<rscale>  0 0.86397625E+02</rscale>
<asrwt>0</asrwt>
<pdfrwt beam="1">  1        3 0.47437294E-02 0.86397625E+02</pdfrwt>
<pdfrwt beam="2">  1       -3 0.93110145E-02 0.86397625E+02</pdfrwt>
<totfact> 0.40879153E+04</totfact>
</mgrwt>
</event>
<event>
 7    1  0.1312339E-009  0.9038570E+02  0.7818608E-02  0.1301920E+00
         -3   -1    0    0    0  501 -0.00000000000E+00  0.00000000000E+00  0.57589759354E+02  0.57589847920E+02  0.10100000000E+00 0.  1.
          3   -1    0    0  501    0  0.00000000000E+00 -0.00000000000E+00 -0.35464342022E+02  0.35464485842E+02  0.10100000000E+00 0. -1.
         23    2    1    2    0    0  0.00000000000E+00  0.71054273576E-14  0.22125417332E+02  0.93054333762E+02  0.90385700970E+02 0.  0.
    9000005    2    3    3    0    0  0.16979179305E+02 -0.35735415921E+02  0.33001034128E+02  0.52022742011E+02  0.72100590754E+01 0.  0.
         22    1    3    3    0    0 -0.16979179305E+02  0.35735415921E+02 -0.10875616796E+02  0.41031591751E+02  0.00000000000E+00 0. -1.
         22    1    4    4    0    0 -0.58022404340E+00 -0.27036772812E+00  0.58281338977E+00  0.86569630716E+00  0.00000000000E+00 0. -1.
         22    1    4    4    0    0  0.17559403349E+02 -0.35465048193E+02  0.32418220738E+02  0.51157045704E+02  0.00000000000E+00 0. -1.
<mgrwt>
<rscale>  0 0.90385701E+02</rscale>
<asrwt>0</asrwt>
<pdfrwt beam="2">  1        3 0.54560705E-02 0.90385701E+02</pdfrwt>
<pdfrwt beam="1">  1       -3 0.88599809E-02 0.90385701E+02</pdfrwt>
<totfact> 0.36039759E+04</totfact>
</mgrwt>
</event>
<event>
 7    1  0.1312339E-009  0.9848226E+02  0.7818608E-02  0.1283520E+00
         -3   -1    0    0    0  501 -0.00000000000E+00  0.00000000000E+00  0.11921532414E+03  0.11921536692E+03  0.10100000000E+00 0.  1.
          3   -1    0    0  501    0  0.00000000000E+00 -0.00000000000E+00 -0.20338564690E+02  0.20338815468E+02  0.10100000000E+00 0. -1.
         23    2    1    2    0    0  0.00000000000E+00  0.35527136788E-14  0.98876759448E+02  0.13955418239E+03  0.98482263701E+02 0.  0.
    9000005    2    3    3    0    0 -0.81136157038E+01  0.19157536025E+02  0.11257652112E+03  0.11464383482E+03  0.60740273066E+01 0.  0.
         22    1    3    3    0    0  0.81136157038E+01 -0.19157536025E+02 -0.13699761672E+02  0.24910347573E+02  0.00000000000E+00 0. -1.
         22    1    4    4    0    0 -0.77255005738E+01  0.11852691947E+02  0.66306034128E+02  0.67798671280E+02  0.00000000000E+00 0.  1.
         22    1    4    4    0    0 -0.38811512999E+00  0.73048440775E+01  0.46270486993E+02  0.46845163538E+02  0.00000000000E+00 0.  1.
<mgrwt>
<rscale>  0 0.98482264E+02</rscale>
<asrwt>0</asrwt>
<pdfrwt beam="2">  1        3 0.31290325E-02 0.98482264E+02</pdfrwt>
<pdfrwt beam="1">  1       -3 0.18340842E-01 0.98482264E+02</pdfrwt>
<totfact> 0.25902652E+04</totfact>
</mgrwt>
</event>
<event>
 7    1  0.1312339E-009  0.9209102E+02  0.7818608E-02  0.1297866E+00
          3   -1    0    0  501    0  0.00000000000E+00  0.00000000000E+00  0.10309933207E+02  0.10310427912E+02  0.10100000000E+00 0. -1.
         -3   -1    0    0    0  501 -0.00000000000E+00 -0.00000000000E+00 -0.20563983415E+03  0.20563985895E+03  0.10100000000E+00 0.  1.
         23    2    1    2    0    0  0.44408920985E-15  0.00000000000E+00 -0.19532990094E+03  0.21595028686E+03  0.92091021248E+02 0.  0.
    9000005    2    3    3    0    0  0.27989652019E+01 -0.36576366252E+02 -0.16084349483E+03  0.16560173196E+03  0.14409685094E+02 0.  0.
         22    1    3    3    0    0 -0.27989652019E+01  0.36576366252E+02 -0.34486406112E+02  0.50348554904E+02  0.00000000000E+00 0. -1.
         22    1    4    4    0    0  0.22913730914E+01 -0.37505856908E+02 -0.15962164845E+03  0.16398478693E+03  0.00000000000E+00 0. -1.
         22    1    4    4    0    0  0.50759211045E+00  0.92949065629E+00 -0.12218463837E+01  0.16169450257E+01  0.00000000000E+00 0. -1.
<mgrwt>
<rscale>  0 0.92091021E+02</rscale>
<asrwt>0</asrwt>
<pdfrwt beam="1">  1        3 0.15861837E-02 0.92091021E+02</pdfrwt>
<pdfrwt beam="2">  1       -3 0.31636934E-01 0.92091021E+02</pdfrwt>
<totfact> 0.26956052E+04</totfact>
</mgrwt>
</event>
<event>
 7    1  0.1312339E-009  0.9551703E+02  0.7818608E-02  0.1290016E+00
          3   -1    0    0  501    0  0.00000000000E+00  0.00000000000E+00  0.21442215835E+02  0.21442453705E+02  0.10100000000E+00 0. -1.
         -3   -1    0    0    0  501 -0.00000000000E+00 -0.00000000000E+00 -0.10637227771E+03  0.10637232566E+03  0.10100000000E+00 0.  1.
         23    2    1    2    0    0  0.00000000000E+00  0.00000000000E+00 -0.84930061879E+02  0.12781477937E+03  0.95517026829E+02 0.  0.
    9000005    2    3    3    0    0 -0.23710148240E+02 -0.38279209977E+02 -0.60830884105E+02  0.76743854025E+02  0.12718239798E+02 0.  0.
         22    1    3    3    0    0  0.23710148240E+02  0.38279209977E+02 -0.24099177774E+02  0.51070925344E+02  0.00000000000E+00 0. -1.
         22    1    4    4    0    0 -0.34573592120E+01 -0.15075548928E+02 -0.25965983148E+02  0.30223464213E+02  0.00000000000E+00 0. -1.
         22    1    4    4    0    0 -0.20252789028E+02 -0.23203661049E+02 -0.34864900957E+02  0.46520389812E+02  0.00000000000E+00 0. -1.
<mgrwt>
<rscale>  0 0.95517027E+02</rscale>
<asrwt>0</asrwt>
<pdfrwt beam="1">  1        3 0.32988245E-02 0.95517027E+02</pdfrwt>
<pdfrwt beam="2">  1       -3 0.16364987E-01 0.95517027E+02</pdfrwt>
<totfact> 0.28826849E+04</totfact>
</mgrwt>
</event>
<event>
 7    1  0.1312339E-009  0.9170820E+02  0.7818608E-02  0.1298767E+00
         -3   -1    0    0    0  501 -0.00000000000E+00  0.00000000000E+00  0.26654840644E+02  0.26655031997E+02  0.10100000000E+00 0.  1.
          3   -1    0    0  501    0  0.00000000000E+00 -0.00000000000E+00 -0.78881912452E+02  0.78881977112E+02  0.10100000000E+00 0. -1.
         23    2    1    2    0    0  0.00000000000E+00 -0.88817841970E-15 -0.52227071808E+02  0.10553700911E+03  0.91708196264E+02 0.  0.
    9000005    2    3    3    0    0  0.26499204834E+02  0.67176809665E+01 -0.67707693611E+02  0.74120695738E+02  0.12736195204E+02 0.  0.
         22    1    3    3    0    0 -0.26499204834E+02 -0.67176809665E+01  0.15480621803E+02  0.31416313371E+02  0.00000000000E+00 0.  1.
         22    1    4    4    0    0 -0.14084084397E+01  0.43717628873E+00 -0.23117752403E+01  0.27420871982E+01  0.00000000000E+00 0. -1.
         22    1    4    4    0    0  0.27907613274E+02  0.62805046777E+01 -0.65395918370E+02  0.71378608540E+02  0.00000000000E+00 0. -1.
<mgrwt>
<rscale>  0 0.91708196E+02</rscale>
<asrwt>0</asrwt>
<pdfrwt beam="2">  1        3 0.12135698E-01 0.91708196E+02</pdfrwt>
<pdfrwt beam="1">  1       -3 0.41007644E-02 0.91708196E+02</pdfrwt>
<totfact> 0.33727028E+04</totfact>
</mgrwt>
</event>
<event>
 7    1  0.1312339E-009  0.9083120E+02  0.7818608E-02  0.1300851E+00
         -3   -1    0    0    0  501 -0.00000000000E+00  0.00000000000E+00  0.33183502343E+02  0.33183656048E+02  0.10100000000E+00 0.  1.
          3   -1    0    0  501    0  0.00000000000E+00 -0.00000000000E+00 -0.62156355076E+02  0.62156437135E+02  0.10100000000E+00 0. -1.
         23    2    1    2    0    0  0.00000000000E+00  0.00000000000E+00 -0.28972852734E+02  0.95340093183E+02  0.90831201537E+02 0.  0.
    9000005    2    3    3    0    0  0.31231463637E+02 -0.12813933834E+01 -0.47492993676E+02  0.59007712166E+02  0.15788583117E+02 0.  0.
         22    1    3    3    0    0 -0.31231463637E+02  0.12813933834E+01  0.18520140942E+02  0.36332381018E+02  0.00000000000E+00 0.  1.
         22    1    4    4    0    0  0.23562028256E+02  0.19632718190E+00 -0.45022726858E+02  0.50815879935E+02  0.00000000000E+00 0.  1.
         22    1    4    4    0    0  0.76694353814E+01 -0.14777205653E+01 -0.24702668178E+01  0.81918322303E+01  0.00000000000E+00 0.  1.
<mgrwt>
<rscale>  0 0.90831202E+02</rscale>
<asrwt>0</asrwt>
<pdfrwt beam="2">  1        3 0.95625342E-02 0.90831202E+02</pdfrwt>
<pdfrwt beam="1">  1       -3 0.51051724E-02 0.90831202E+02</pdfrwt>
<totfact> 0.35384309E+04</totfact>
</mgrwt>
</event>
<event>
 7    1  0.1312339E-009  0.9170717E+02  0.7818608E-02  0.1298769E+00
         -3   -1    0    0    0  501 -0.00000000000E+00  0.00000000000E+00  0.18597191976E+01  0.18624597966E+01  0.10100000000E+00 0.  1.
          3   -1    0    0  501    0  0.00000000000E+00 -0.00000000000E+00 -0.11297395026E+04  0.11297395071E+04  0.10100000000E+00 0. -1.
         23    2    1    2    0    0 -0.35527136788E-14 -0.88817841970E-15 -0.11278797834E+04  0.11316019669E+04  0.91707173708E+02 0.  0.
    9000005    2    3    3    0    0 -0.28033953344E+02 -0.68124036346E+01 -0.10018163042E+04  0.10022794546E+04  0.97921659070E+01 0.  0.
         22    1    3    3    0    0  0.28033953344E+02  0.68124036346E+01 -0.12606347922E+03  0.12932251226E+03  0.00000000000E+00 0.  1.
         22    1    4    4    0    0 -0.24851326876E+01 -0.40563579080E+01 -0.14646215295E+03  0.14653938778E+03  0.00000000000E+00 0.  1.
         22    1    4    4    0    0 -0.25548820657E+02 -0.27560457267E+01 -0.85535415120E+03  0.85574006685E+03  0.00000000000E+00 0.  1.
<mgrwt>
<rscale>  0 0.91707174E+02</rscale>
<asrwt>0</asrwt>
<pdfrwt beam="2">  1        3 0.17380574E+00 0.91707174E+02</pdfrwt>
<pdfrwt beam="1">  1       -3 0.28632271E-03 0.91707174E+02</pdfrwt>
<totfact> 0.86355730E+03</totfact>
</mgrwt>
</event>
<event>
 7    1  0.1312339E-009  0.9478385E+02  0.7818608E-02  0.1291664E+00
          3   -1    0    0  501    0  0.00000000000E+00  0.00000000000E+00  0.19845359792E+02  0.19845616802E+02  0.10100000000E+00 0. -1.
         -3   -1    0    0    0  501 -0.00000000000E+00 -0.00000000000E+00 -0.11317378312E+03  0.11317382818E+03  0.10100000000E+00 0.  1.
         23    2    1    2    0    0  0.00000000000E+00  0.00000000000E+00 -0.93328423325E+02  0.13301944499E+03  0.94783849595E+02 0.  0.
    9000005    2    3    3    0    0 -0.43030577551E+02  0.49462587138E+01 -0.20085333727E+02  0.47927457975E+02  0.41862294962E+01 0.  0.
         22    1    3    3    0    0  0.43030577551E+02 -0.49462587138E+01 -0.73243089597E+02  0.85091987011E+02  0.00000000000E+00 0.  1.
         22    1    4    4    0    0 -0.39832530311E+01 -0.70992366029E+00 -0.15096084561E+01  0.43184735734E+01  0.00000000000E+00 0.  1.
         22    1    4    4    0    0 -0.39047324520E+02  0.56561823741E+01 -0.18575725271E+02  0.43608984402E+02  0.00000000000E+00 0.  1.
<mgrwt>
<rscale>  0 0.94783850E+02</rscale>
<asrwt>0</asrwt>
<pdfrwt beam="1">  1        3 0.30531556E-02 0.94783850E+02</pdfrwt>
<pdfrwt beam="2">  1       -3 0.17411374E-01 0.94783850E+02</pdfrwt>
<totfact> 0.29134081E+04</totfact>
</mgrwt>
</event>
<event>
 7    1  0.1312339E-009  0.8905936E+02  0.7818608E-02  0.1305146E+00
         -3   -1    0    0    0  501 -0.00000000000E+00  0.00000000000E+00  0.13586453287E+02  0.13586828693E+02  0.10100000000E+00 0.  1.
          3   -1    0    0  501    0  0.00000000000E+00 -0.00000000000E+00 -0.14594386837E+03  0.14594390332E+03  0.10100000000E+00 0. -1.
         23    2    1    2    0    0  0.00000000000E+00  0.00000000000E+00 -0.13235741508E+03  0.15953073201E+03  0.89059357333E+02 0.  0.
    9000005    2    3    3    0    0 -0.43184221517E+02  0.89596566144E+01 -0.73847185599E+02  0.86260005327E+02  0.64984046830E+01 0.  0.
         22    1    3    3    0    0  0.43184221517E+02 -0.89596566144E+01 -0.58510229485E+02  0.73270726685E+02  0.00000000000E+00 0. -1.
         22    1    4    4    0    0 -0.38714332087E+02  0.63708725436E+01 -0.67522499093E+02  0.78094016478E+02  0.00000000000E+00 0. -1.
         22    1    4    4    0    0 -0.44698894292E+01  0.25887840708E+01 -0.63246865065E+01  0.81659888488E+01  0.00000000000E+00 0. -1.
<mgrwt>
<rscale>  0 0.89059357E+02</rscale>
<asrwt>0</asrwt>
<pdfrwt beam="2">  1        3 0.22452933E-01 0.89059357E+02</pdfrwt>
<pdfrwt beam="1">  1       -3 0.20902553E-02 0.89059357E+02</pdfrwt>
<totfact> 0.32745904E+04</totfact>
</mgrwt>
</event>
<event>
 7    1  0.1312339E-009  0.9188225E+02  0.7818608E-02  0.1298357E+00
          3   -1    0    0  501    0  0.00000000000E+00  0.00000000000E+00  0.53563886087E+02  0.53563981309E+02  0.10100000000E+00 0. -1.
         -3   -1    0    0    0  501 -0.00000000000E+00 -0.00000000000E+00 -0.39402972596E+02  0.39403102040E+02  0.10100000000E+00 0.  1.
         23    2    1    2    0    0  0.17763568394E-14  0.00000000000E+00  0.14160913491E+02  0.92967083349E+02  0.91882245921E+02 0.  0.
    9000005    2    3    3    0    0 -0.12107646494E+02  0.17958426683E+02 -0.33699187069E+02  0.40434337198E+02  0.54954729517E+01 0.  0.
         22    1    3    3    0    0  0.12107646494E+02 -0.17958426683E+02  0.47860100560E+02  0.52532746151E+02  0.00000000000E+00 0. -1.
         22    1    4    4    0    0 -0.60921577789E+01  0.12489958799E+02 -0.24424369796E+02  0.28100948331E+02  0.00000000000E+00 0.  1.
         22    1    4    4    0    0 -0.60154887150E+01  0.54684678845E+01 -0.92748172736E+01  0.12333388867E+02  0.00000000000E+00 0.  1.
<mgrwt>
<rscale>  0 0.91882246E+02</rscale>
<asrwt>0</asrwt>
<pdfrwt beam="1">  1        3 0.82406152E-02 0.91882246E+02</pdfrwt>
<pdfrwt beam="2">  1       -3 0.60620131E-02 0.91882246E+02</pdfrwt>
<totfact> 0.34468864E+04</totfact>
</mgrwt>
</event>
<event>
 7    1  0.1312339E-009  0.9138176E+02  0.7818608E-02  0.1299540E+00
          3   -1    0    0  501    0  0.00000000000E+00  0.00000000000E+00  0.45359003679E+03  0.45359004804E+03  0.10100000000E+00 0. -1.
         -3   -1    0    0    0  501 -0.00000000000E+00 -0.00000000000E+00 -0.46019527510E+01  0.46030609514E+01  0.10100000000E+00 0.  1.
         23    2    1    2    0    0  0.00000000000E+00  0.35527136788E-14  0.44898808404E+03  0.45819310899E+03  0.91381757005E+02 0.  0.
    9000005    2    3    3    0    0  0.32295179204E+02 -0.27891708230E+02  0.29521786516E+03  0.29861176233E+03  0.13945275250E+02 0.  0.
         22    1    3    3    0    0 -0.32295179204E+02  0.27891708230E+02  0.15377021888E+03  0.15958134666E+03  0.00000000000E+00 0.  1.
         22    1    4    4    0    0  0.20206971877E+02 -0.24211754019E+02  0.18457969192E+03  0.18725435487E+03  0.00000000000E+00 0.  1.
         22    1    4    4    0    0  0.12088207328E+02 -0.36799542113E+01  0.11063817324E+03  0.11135740746E+03  0.00000000000E+00 0.  1.
<mgrwt>
<rscale>  0 0.91381757E+02</rscale>
<asrwt>0</asrwt>
<pdfrwt beam="1">  1        3 0.69783179E-01 0.91381757E+02</pdfrwt>
<pdfrwt beam="2">  1       -3 0.70807874E-03 0.91381757E+02</pdfrwt>
<totfact> 0.18856434E+04</totfact>
</mgrwt>
</event>
<event>
 7    1  0.1312339E-009  0.9376172E+02  0.7818608E-02  0.1293990E+00
          3   -1    0    0  501    0  0.00000000000E+00  0.00000000000E+00  0.71456713832E+01  0.71463851364E+01  0.10100000000E+00 0.  1.
         -3   -1    0    0    0  501 -0.00000000000E+00 -0.00000000000E+00 -0.30755681489E+03  0.30755683147E+03  0.10100000000E+00 0. -1.
         23    2    1    2    0    0  0.00000000000E+00  0.00000000000E+00 -0.30041114350E+03  0.31470321661E+03  0.93761716077E+02 0.  0.
    9000005    2    3    3    0    0  0.40764875366E+02  0.18107404476E+02 -0.19160704169E+03  0.19711076051E+03  0.12236842790E+02 0.  0.
         22    1    3    3    0    0 -0.40764875366E+02 -0.18107404476E+02 -0.10880410181E+03  0.11759245610E+03  0.00000000000E+00 0.  1.
         22    1    4    4    0    0  0.13509008820E+02  0.42485236558E+01 -0.39525215767E+02  0.41985544584E+02  0.00000000000E+00 0. -1.
         22    1    4    4    0    0  0.27255866546E+02  0.13858880820E+02 -0.15208182593E+03  0.15512521593E+03  0.00000000000E+00 0. -1.
<mgrwt>
<rscale>  0 0.93761716E+02</rscale>
<asrwt>0</asrwt>
<pdfrwt beam="1">  1        3 0.10993905E-02 0.93761716E+02</pdfrwt>
<pdfrwt beam="2">  1       -3 0.47316479E-01 0.93761716E+02</pdfrwt>
<totfact> 0.21764643E+04</totfact>
</mgrwt>
</event>
<event>
 7    1  0.1312339E-009  0.9113009E+02  0.7818608E-02  0.1300138E+00
         -3   -1    0    0    0  501 -0.00000000000E+00  0.00000000000E+00  0.72033275620E+01  0.72040356027E+01  0.10100000000E+00 0.  1.
          3   -1    0    0  501    0  0.00000000000E+00 -0.00000000000E+00 -0.28820929762E+03  0.28820931531E+03  0.10100000000E+00 0. -1.
         23    2    1    2    0    0  0.00000000000E+00  0.00000000000E+00 -0.28100597005E+03  0.29541335092E+03  0.91130086653E+02 0.  0.
    9000005    2    3    3    0    0 -0.82756718057E+01 -0.19587641380E+02 -0.27062001078E+03  0.27174838549E+03  0.12642481633E+02 0.  0.
         22    1    3    3    0    0  0.82756718057E+01  0.19587641380E+02 -0.10385959273E+02  0.23664965427E+02  0.00000000000E+00 0.  1.
         22    1    4    4    0    0 -0.59902804185E+00 -0.14801311504E+01 -0.29299788567E+01  0.33368246760E+01  0.00000000000E+00 0.  1.
         22    1    4    4    0    0 -0.76766437638E+01 -0.18107510229E+02 -0.26769003192E+03  0.26841156081E+03  0.00000000000E+00 0.  1.
<mgrwt>
<rscale>  0 0.91130087E+02</rscale>
<asrwt>0</asrwt>
<pdfrwt beam="2">  1        3 0.44339939E-01 0.91130087E+02</pdfrwt>
<pdfrwt beam="1">  1       -3 0.11082603E-02 0.91130087E+02</pdfrwt>
<totfact> 0.24243168E+04</totfact>
</mgrwt>
</event>
<event>
 7    1  0.1312339E-009  0.9084250E+02  0.7818608E-02  0.1300824E+00
          3   -1    0    0  501    0  0.00000000000E+00  0.00000000000E+00  0.13028719661E+02  0.13029111137E+02  0.10100000000E+00 0. -1.
         -3   -1    0    0    0  501 -0.00000000000E+00 -0.00000000000E+00 -0.15834660690E+03  0.15834663912E+03  0.10100000000E+00 0.  1.
         23    2    1    2    0    0  0.00000000000E+00  0.00000000000E+00 -0.14531788724E+03  0.17137575025E+03  0.90842497883E+02 0.  0.
    9000005    2    3    3    0    0 -0.17249485192E+02  0.13278203707E+02 -0.14759617943E+03  0.14948862965E+03  0.94001478194E+01 0.  0.
         22    1    3    3    0    0  0.17249485192E+02 -0.13278203707E+02  0.22782921847E+01  0.21887120605E+02  0.00000000000E+00 0. -1.
         22    1    4    4    0    0 -0.66985919988E+01  0.89535519287E-01 -0.35400667420E+02  0.36028966196E+02  0.00000000000E+00 0. -1.
         22    1    4    4    0    0 -0.10550893193E+02  0.13188668188E+02 -0.11219551201E+03  0.11345966345E+03  0.00000000000E+00 0. -1.
<mgrwt>
<rscale>  0 0.90842498E+02</rscale>
<asrwt>0</asrwt>
<pdfrwt beam="1">  1        3 0.20044511E-02 0.90842498E+02</pdfrwt>
<pdfrwt beam="2">  1       -3 0.24361048E-01 0.90842498E+02</pdfrwt>
<totfact> 0.30348364E+04</totfact>
</mgrwt>
</event>
<event>
 7    1  0.1312339E-009  0.9191691E+02  0.7818608E-02  0.1298275E+00
         -3   -1    0    0    0  501 -0.00000000000E+00  0.00000000000E+00  0.60168228708E+03  0.60168229556E+03  0.10100000000E+00 0.  1.
          3   -1    0    0  501    0  0.00000000000E+00 -0.00000000000E+00 -0.35097218459E+01  0.35111747942E+01  0.10100000000E+00 0. -1.
         23    2    1    2    0    0 -0.71054273576E-14  0.00000000000E+00  0.59817256524E+03  0.60519347036E+03  0.91916912248E+02 0.  0.
    9000005    2    3    3    0    0 -0.40368971340E+02 -0.19655026311E+02  0.35661838198E+03  0.35950179904E+03  0.69927989776E+01 0.  0.
         22    1    3    3    0    0  0.40368971340E+02  0.19655026311E+02  0.24155418325E+03  0.24569167132E+03  0.00000000000E+00 0. -1.
         22    1    4    4    0    0 -0.26689292337E+02 -0.92744676351E+01  0.22606663875E+03  0.22782550171E+03  0.00000000000E+00 0.  1.
         22    1    4    4    0    0 -0.13679679003E+02 -0.10380558676E+02  0.13055174324E+03  0.13167629733E+03  0.00000000000E+00 0.  1.
<mgrwt>
<rscale>  0 0.91916912E+02</rscale>
<asrwt>0</asrwt>
<pdfrwt beam="2">  1        3 0.54007030E-03 0.91916912E+02</pdfrwt>
<pdfrwt beam="1">  1       -3 0.92566503E-01 0.91916912E+02</pdfrwt>
<totfact> 0.15265669E+04</totfact>
</mgrwt>
</event>
<event>
 7    1  0.1312339E-009  0.9109027E+02  0.7818608E-02  0.1300233E+00
          3   -1    0    0  501    0  0.00000000000E+00  0.00000000000E+00  0.72152802581E+02  0.72152873271E+02  0.10100000000E+00 0. -1.
         -3   -1    0    0    0  501 -0.00000000000E+00 -0.00000000000E+00 -0.28749360248E+02  0.28749537660E+02  0.10100000000E+00 0.  1.
         23    2    1    2    0    0  0.00000000000E+00  0.00000000000E+00  0.43403442333E+02  0.10090241093E+03  0.91090272397E+02 0.  0.
    9000005    2    3    3    0    0  0.76220540300E+01 -0.17357338802E+02  0.67504944904E+02  0.70238827577E+02  0.41475769994E+01 0.  0.
         22    1    3    3    0    0 -0.76220540300E+01  0.17357338802E+02 -0.24101502571E+02  0.30663583354E+02  0.00000000000E+00 0.  1.
         22    1    4    4    0    0  0.47051344995E+01 -0.71372525058E+01  0.24832594908E+02  0.26262833698E+02  0.00000000000E+00 0. -1.
         22    1    4    4    0    0  0.29169195305E+01 -0.10220086297E+02  0.42672349996E+02  0.43975993879E+02  0.00000000000E+00 0. -1.
<mgrwt>
<rscale>  0 0.91090272E+02</rscale>
<asrwt>0</asrwt>
<pdfrwt beam="1">  1        3 0.11100450E-01 0.91090272E+02</pdfrwt>
<pdfrwt beam="2">  1       -3 0.44229976E-02 0.91090272E+02</pdfrwt>
<totfact> 0.34694019E+04</totfact>
</mgrwt>
</event>
<event>
 7    1  0.1312339E-009  0.9137197E+02  0.7818608E-02  0.1299563E+00
         -3   -1    0    0    0  501 -0.00000000000E+00  0.00000000000E+00  0.95005100394E+02  0.95005154081E+02  0.10100000000E+00 0.  1.
          3   -1    0    0  501    0  0.00000000000E+00 -0.00000000000E+00 -0.21969268164E+02  0.21969500328E+02  0.10100000000E+00 0. -1.
         23    2    1    2    0    0  0.00000000000E+00  0.00000000000E+00  0.73035832230E+02  0.11697465441E+03  0.91371970454E+02 0.  0.
    9000005    2    3    3    0    0 -0.21959814055E+02 -0.17468429391E+02  0.82084581041E+02  0.87491450483E+02  0.11379631110E+02 0.  0.
         22    1    3    3    0    0  0.21959814055E+02  0.17468429391E+02 -0.90487488107E+01  0.29483203926E+02  0.00000000000E+00 0. -1.
         22    1    4    4    0    0 -0.11572292316E+02 -0.38770743744E+01  0.23776605965E+02  0.26725954545E+02  0.00000000000E+00 0.  1.
         22    1    4    4    0    0 -0.10387521739E+02 -0.13591355016E+02  0.58307975076E+02  0.60765495938E+02  0.00000000000E+00 0.  1.
<mgrwt>
<rscale>  0 0.91371970E+02</rscale>
<asrwt>0</asrwt>
<pdfrwt beam="2">  1        3 0.33799095E-02 0.91371970E+02</pdfrwt>
<pdfrwt beam="1">  1       -3 0.14616191E-01 0.91371970E+02</pdfrwt>
<totfact> 0.33262120E+04</totfact>
</mgrwt>
</event>
<event>
 7    1  0.1312339E-009  0.9052171E+02  0.7818608E-02  0.1301593E+00
          3   -1    0    0  501    0  0.00000000000E+00  0.00000000000E+00  0.20331476874E+02  0.20331727740E+02  0.10100000000E+00 0. -1.
         -3   -1    0    0    0  501 -0.00000000000E+00 -0.00000000000E+00 -0.10075641985E+03  0.10075647047E+03  0.10100000000E+00 0.  1.
         23    2    1    2    0    0 -0.35527136788E-14 -0.17763568394E-14 -0.80424942973E+02  0.12108819821E+03  0.90521711724E+02 0.  0.
    9000005    2    3    3    0    0 -0.30627444669E+02 -0.85148505953E+01 -0.82977685860E+02  0.89196827216E+02  0.77610944432E+01 0.  0.
         22    1    3    3    0    0  0.30627444669E+02  0.85148505953E+01  0.25527428873E+01  0.31891370994E+02  0.00000000000E+00 0. -1.
         22    1    4    4    0    0 -0.61852947856E+01  0.13333659643E+01 -0.17958184162E+02  0.19040276121E+02  0.00000000000E+00 0. -1.
         22    1    4    4    0    0 -0.24442149884E+02 -0.98482165595E+01 -0.65019501698E+02  0.70156551094E+02  0.00000000000E+00 0. -1.
<mgrwt>
<rscale>  0 0.90521712E+02</rscale>
<asrwt>0</asrwt>
<pdfrwt beam="1">  1        3 0.31279428E-02 0.90521712E+02</pdfrwt>
<pdfrwt beam="2">  1       -3 0.15501011E-01 0.90521712E+02</pdfrwt>
<totfact> 0.33828854E+04</totfact>
</mgrwt>
</event>
<event>
 7    1  0.1312339E-009  0.9032338E+02  0.7818608E-02  0.1302070E+00
         -3   -1    0    0    0  501 -0.00000000000E+00  0.00000000000E+00  0.12266732669E+03  0.12266736827E+03  0.10100000000E+00 0.  1.
          3   -1    0    0  501    0  0.00000000000E+00 -0.00000000000E+00 -0.16626708947E+02  0.16627015710E+02  0.10100000000E+00 0. -1.
         23    2    1    2    0    0  0.00000000000E+00  0.00000000000E+00  0.10604061774E+03  0.13929438398E+03  0.90323379017E+02 0.  0.
    9000005    2    3    3    0    0  0.26699127522E+02 -0.34450996765E+02  0.40596715409E+02  0.60664752534E+02  0.11506707152E+02 0.  0.
         22    1    3    3    0    0 -0.26699127522E+02  0.34450996765E+02  0.65443902335E+02  0.78629631446E+02  0.00000000000E+00 0.  1.
         22    1    4    4    0    0  0.19362448040E+01 -0.26722122840E+01 -0.22875412714E+00  0.33078831422E+01  0.00000000000E+00 0.  1.
         22    1    4    4    0    0  0.24762882718E+02 -0.31778784481E+02  0.40825469536E+02  0.57356869392E+02  0.00000000000E+00 0.  1.
<mgrwt>
<rscale>  0 0.90323379E+02</rscale>
<asrwt>0</asrwt>
<pdfrwt beam="2">  1        3 0.25579821E-02 0.90323379E+02</pdfrwt>
<pdfrwt beam="1">  1       -3 0.18871923E-01 0.90323379E+02</pdfrwt>
<totfact> 0.32800633E+04</totfact>
</mgrwt>
</event>
<event>
 7    1  0.1312339E-009  0.9119879E+02  0.7818608E-02  0.1299974E+00
         -3   -1    0    0    0  501 -0.00000000000E+00  0.00000000000E+00  0.59338480199E+03  0.59338481059E+03  0.10100000000E+00 0.  1.
          3   -1    0    0  501    0  0.00000000000E+00 -0.00000000000E+00 -0.35034059433E+01  0.35048615099E+01  0.10100000000E+00 0. -1.
         23    2    1    2    0    0  0.00000000000E+00  0.00000000000E+00  0.58988139605E+03  0.59688967210E+03  0.91198789753E+02 0.  0.
    9000005    2    3    3    0    0 -0.23109682062E+02  0.35650778591E+02  0.39174659566E+03  0.39425099231E+03  0.12783360692E+02 0.  0.
         22    1    3    3    0    0  0.23109682062E+02 -0.35650778591E+02  0.19813480039E+03  0.20263867979E+03  0.00000000000E+00 0. -1.
         22    1    4    4    0    0 -0.19284277887E+02  0.34151530853E+02  0.32133480721E+03  0.32371942907E+03  0.00000000000E+00 0.  1.
         22    1    4    4    0    0 -0.38254041749E+01  0.14992477387E+01  0.70411788443E+02  0.70531563237E+02  0.00000000000E+00 0.  1.
<mgrwt>
<rscale>  0 0.91198790E+02</rscale>
<asrwt>0</asrwt>
<pdfrwt beam="2">  1        3 0.53909893E-03 0.91198790E+02</pdfrwt>
<pdfrwt beam="1">  1       -3 0.91289951E-01 0.91198790E+02</pdfrwt>
<totfact> 0.15752322E+04</totfact>
</mgrwt>
</event>
<event>
 7    1  0.1312339E-009  0.9121438E+02  0.7818608E-02  0.1299937E+00
         -3   -1    0    0    0  501 -0.00000000000E+00  0.00000000000E+00  0.40180855468E+03  0.40180856738E+03  0.10100000000E+00 0.  1.
          3   -1    0    0  501    0  0.00000000000E+00 -0.00000000000E+00 -0.51761286428E+01  0.51771139380E+01  0.10100000000E+00 0. -1.
         23    2    1    2    0    0  0.00000000000E+00  0.00000000000E+00  0.39663242604E+03  0.40698568132E+03  0.91214381590E+02 0.  0.
    9000005    2    3    3    0    0  0.37343253637E+02  0.26113362671E+02  0.19074767051E+03  0.19611852204E+03  0.11724242830E+01 0.  0.
         22    1    3    3    0    0 -0.37343253637E+02 -0.26113362671E+02  0.20588475553E+03  0.21086715928E+03  0.00000000000E+00 0. -1.
         22    1    4    4    0    0  0.25285644263E+02  0.18018841473E+02  0.13197157758E+03  0.13557484923E+03  0.00000000000E+00 0.  1.
         22    1    4    4    0    0  0.12057609374E+02  0.80945211988E+01  0.58776092927E+02  0.60543672808E+02  0.00000000000E+00 0.  1.
<mgrwt>
<rscale>  0 0.91214382E+02</rscale>
<asrwt>0</asrwt>
<pdfrwt beam="2">  1        3 0.79640413E-03 0.91214382E+02</pdfrwt>
<pdfrwt beam="1">  1       -3 0.61816787E-01 0.91214382E+02</pdfrwt>
<totfact> 0.20368079E+04</totfact>
</mgrwt>
</event>
<event>
 7    1  0.1312339E-009  0.9427012E+02  0.7818608E-02  0.1292828E+00
         -3   -1    0    0    0  501 -0.00000000000E+00  0.00000000000E+00  0.59691749669E+01  0.59700293789E+01  0.10100000000E+00 0.  1.
          3   -1    0    0  501    0  0.00000000000E+00 -0.00000000000E+00 -0.37217035674E+03  0.37217037045E+03  0.10100000000E+00 0. -1.
         23    2    1    2    0    0  0.00000000000E+00  0.00000000000E+00 -0.36620118178E+03  0.37814039983E+03  0.94270124890E+02 0.  0.
    9000005    2    3    3    0    0  0.52262361003E+01 -0.14244405201E+02 -0.36197644368E+03  0.36239031934E+03  0.83415316237E+01 0.  0.
         22    1    3    3    0    0 -0.52262361003E+01  0.14244405201E+02 -0.42247380955E+01  0.15750080485E+02  0.00000000000E+00 0.  1.
         22    1    4    4    0    0  0.35211861942E+01 -0.14370446255E+02 -0.27552471149E+03  0.27592168295E+03  0.00000000000E+00 0. -1.
         22    1    4    4    0    0  0.17050499061E+01  0.12604105399E+00 -0.86451732188E+02  0.86468636394E+02  0.00000000000E+00 0. -1.
<mgrwt>
<rscale>  0 0.94270125E+02</rscale>
<asrwt>0</asrwt>
<pdfrwt beam="2">  1        3 0.57257027E-01 0.94270125E+02</pdfrwt>
<pdfrwt beam="1">  1       -3 0.91840168E-03 0.94270125E+02</pdfrwt>
<totfact> 0.19467785E+04</totfact>
</mgrwt>
</event>
<event>
 7    1  0.1312339E-009  0.9094665E+02  0.7818608E-02  0.1300575E+00
          3   -1    0    0  501    0  0.00000000000E+00  0.00000000000E+00  0.29224048755E+03  0.29224050501E+03  0.10100000000E+00 0. -1.
         -3   -1    0    0    0  501 -0.00000000000E+00 -0.00000000000E+00 -0.70753805601E+01  0.70761014033E+01  0.10100000000E+00 0.  1.
         23    2    1    2    0    0  0.00000000000E+00  0.35527136788E-14  0.28516510699E+03  0.29931660641E+03  0.90946647141E+02 0.  0.
    9000005    2    3    3    0    0  0.32489988379E+02 -0.31037999692E+02  0.12110500620E+03  0.12921465627E+03  0.33238679392E+01 0.  0.
         22    1    3    3    0    0 -0.32489988379E+02  0.31037999692E+02  0.16406010079E+03  0.17010195014E+03  0.00000000000E+00 0. -1.
         22    1    4    4    0    0  0.16951539357E+02 -0.18477491630E+02  0.67364525176E+02  0.71880119892E+02  0.00000000000E+00 0.  1.
         22    1    4    4    0    0  0.15538449021E+02 -0.12560508062E+02  0.53740481024E+02  0.57334536376E+02  0.00000000000E+00 0.  1.
<mgrwt>
<rscale>  0 0.90946647E+02</rscale>
<asrwt>0</asrwt>
<pdfrwt beam="1">  1        3 0.44960131E-01 0.90946647E+02</pdfrwt>
<pdfrwt beam="2">  1       -3 0.10885769E-02 0.90946647E+02</pdfrwt>
<totfact> 0.24221508E+04</totfact>
</mgrwt>
</event>
<event>
 7    1  0.1312339E-009  0.9079800E+02  0.7818608E-02  0.1300931E+00
          3   -1    0    0  501    0  0.00000000000E+00  0.00000000000E+00  0.88633812793E+01  0.88639567183E+01  0.10100000000E+00 0. -1.
         -3   -1    0    0    0  501 -0.00000000000E+00 -0.00000000000E+00 -0.23252942563E+03  0.23252944756E+03  0.10100000000E+00 0.  1.
         23    2    1    2    0    0  0.35527136788E-14  0.00000000000E+00 -0.22366604435E+03  0.24139340428E+03  0.90797996872E+02 0.  0.
    9000005    2    3    3    0    0  0.30718028874E+02  0.25226031589E+02 -0.16778355616E+03  0.17281642233E+03  0.11586377378E+02 0.  0.
         22    1    3    3    0    0 -0.30718028874E+02 -0.25226031589E+02 -0.55882488186E+02  0.68576981951E+02  0.00000000000E+00 0. -1.
         22    1    4    4    0    0 -0.10476862302E+01  0.59345877353E+00 -0.46447722004E+01  0.47983068416E+01  0.00000000000E+00 0. -1.
         22    1    4    4    0    0  0.31765715105E+02  0.24632572815E+02 -0.16313878396E+03  0.16801811549E+03  0.00000000000E+00 0. -1.
<mgrwt>
<rscale>  0 0.90797997E+02</rscale>
<asrwt>0</asrwt>
<pdfrwt beam="1">  1        3 0.13636432E-02 0.90797997E+02</pdfrwt>
<pdfrwt beam="2">  1       -3 0.35773799E-01 0.90797997E+02</pdfrwt>
<totfact> 0.26785407E+04</totfact>
</mgrwt>
</event>
<event>
 7    1  0.1312339E-009  0.9072520E+02  0.7818608E-02  0.1301105E+00
         -3   -1    0    0    0  501 -0.00000000000E+00  0.00000000000E+00  0.22029152099E+03  0.22029154414E+03  0.10100000000E+00 0.  1.
          3   -1    0    0  501    0  0.00000000000E+00 -0.00000000000E+00 -0.93408049862E+01  0.93413510152E+01  0.10100000000E+00 0. -1.
         23    2    1    2    0    0 -0.71054273576E-14  0.00000000000E+00  0.21095071600E+03  0.22963289516E+03  0.90725200227E+02 0.  0.
    9000005    2    3    3    0    0 -0.38317602160E+02 -0.17273213915E+02  0.69485463607E+02  0.82055728260E+02  0.11760541365E+02 0.  0.
         22    1    3    3    0    0  0.38317602160E+02  0.17273213915E+02  0.14146525239E+03  0.14757716690E+03  0.00000000000E+00 0. -1.
         22    1    4    4    0    0 -0.21999059192E+02 -0.37388370289E+01  0.38789716915E+02  0.44750191575E+02  0.00000000000E+00 0. -1.
         22    1    4    4    0    0 -0.16318542968E+02 -0.13534376887E+02  0.30695746692E+02  0.37305536684E+02  0.00000000000E+00 0. -1.
<mgrwt>
<rscale>  0 0.90725200E+02</rscale>
<asrwt>0</asrwt>
<pdfrwt beam="2">  1        3 0.14370908E-02 0.90725200E+02</pdfrwt>
<pdfrwt beam="1">  1       -3 0.33891046E-01 0.90725200E+02</pdfrwt>
<totfact> 0.27396382E+04</totfact>
</mgrwt>
</event>
<event>
 7    1  0.1312339E-009  0.9340990E+02  0.7818608E-02  0.1294798E+00
         -3   -1    0    0    0  501 -0.00000000000E+00  0.00000000000E+00  0.10740348453E+02  0.10740823334E+02  0.10100000000E+00 0.  1.
          3   -1    0    0  501    0  0.00000000000E+00 -0.00000000000E+00 -0.20309388178E+03  0.20309390690E+03  0.10100000000E+00 0. -1.
         23    2    1    2    0    0  0.00000000000E+00  0.00000000000E+00 -0.19235353333E+03  0.21383473023E+03  0.93409903481E+02 0.  0.
    9000005    2    3    3    0    0  0.16036481178E+02 -0.40828531546E+02 -0.65646846271E+02  0.79749972476E+02  0.11243307687E+02 0.  0.
         22    1    3    3    0    0 -0.16036481178E+02  0.40828531546E+02 -0.12670668706E+03  0.13408475776E+03  0.00000000000E+00 0. -1.
         22    1    4    4    0    0  0.15791177036E+02 -0.34255862599E+02 -0.60912313510E+02  0.71645902407E+02  0.00000000000E+00 0. -1.
         22    1    4    4    0    0  0.24530414192E+00 -0.65726689473E+01 -0.47345327614E+01  0.81040700690E+01  0.00000000000E+00 0. -1.
<mgrwt>
<rscale>  0 0.93409903E+02</rscale>
<asrwt>0</asrwt>
<pdfrwt beam="2">  1        3 0.31245248E-01 0.93409903E+02</pdfrwt>
<pdfrwt beam="1">  1       -3 0.16523999E-02 0.93409903E+02</pdfrwt>
<totfact> 0.26038721E+04</totfact>
</mgrwt>
</event>
<event>
 7    1  0.1312339E-009  0.9131445E+02  0.7818608E-02  0.1299699E+00
         -3   -1    0    0    0  501 -0.00000000000E+00  0.00000000000E+00  0.17617185495E+02  0.17617475011E+02  0.10100000000E+00 0.  1.
          3   -1    0    0  501    0  0.00000000000E+00 -0.00000000000E+00 -0.11832535155E+03  0.11832539465E+03  0.10100000000E+00 0. -1.
         23    2    1    2    0    0  0.00000000000E+00 -0.35527136788E-14 -0.10070816605E+03  0.13594286966E+03  0.91314451775E+02 0.  0.
    9000005    2    3    3    0    0 -0.19028106619E+02  0.31492650335E+02 -0.13349312017E+02  0.41151386687E+02  0.12703410105E+02 0.  0.
         22    1    3    3    0    0  0.19028106619E+02 -0.31492650335E+02 -0.87358854035E+02  0.94791482976E+02  0.00000000000E+00 0. -1.
         22    1    4    4    0    0 -0.14635775764E+02  0.25254951377E+02 -0.15732063064E+02  0.33158955193E+02  0.00000000000E+00 0. -1.
         22    1    4    4    0    0 -0.43923308543E+01  0.62376989584E+01  0.23827510469E+01  0.79924314936E+01  0.00000000000E+00 0. -1.
<mgrwt>
<rscale>  0 0.91314452E+02</rscale>
<asrwt>0</asrwt>
<pdfrwt beam="2">  1        3 0.18203925E-01 0.91314452E+02</pdfrwt>
<pdfrwt beam="1">  1       -3 0.27103619E-02 0.91314452E+02</pdfrwt>
<totfact> 0.32057686E+04</totfact>
</mgrwt>
</event>
<event>
 7    1  0.1312339E-009  0.8993948E+02  0.7818608E-02  0.1302998E+00
          3   -1    0    0  501    0  0.00000000000E+00  0.00000000000E+00  0.20460360734E+02  0.20460610019E+02  0.10100000000E+00 0. -1.
         -3   -1    0    0    0  501 -0.00000000000E+00 -0.00000000000E+00 -0.98837919862E+02  0.98837971467E+02  0.10100000000E+00 0.  1.
         23    2    1    2    0    0 -0.35527136788E-14  0.44408920985E-15 -0.78377559128E+02  0.11929858149E+03  0.89939478371E+02 0.  0.
    9000005    2    3    3    0    0  0.24300593495E+02  0.22678219229E+01  0.94924542190E+01  0.28102084261E+02  0.10196008644E+02 0.  0.
         22    1    3    3    0    0 -0.24300593495E+02 -0.22678219229E+01 -0.87870013347E+02  0.91196497225E+02  0.00000000000E+00 0.  1.
         22    1    4    4    0    0  0.14377464525E+02  0.47284606505E+01  0.95166794654E+01  0.17878395184E+02  0.00000000000E+00 0. -1.
         22    1    4    4    0    0  0.99231289694E+01 -0.24606387276E+01 -0.24225246398E-01  0.10223689078E+02  0.00000000000E+00 0. -1.
<mgrwt>
<rscale>  0 0.89939478E+02</rscale>
<asrwt>0</asrwt>
<pdfrwt beam="1">  1        3 0.31477710E-02 0.89939478E+02</pdfrwt>
<pdfrwt beam="2">  1       -3 0.15205857E-01 0.89939478E+02</pdfrwt>
<totfact> 0.34552242E+04</totfact>
</mgrwt>
</event>
<event>
 7    1  0.1312339E-009  0.9338196E+02  0.7818608E-02  0.1294862E+00
          3   -1    0    0  501    0  0.00000000000E+00  0.00000000000E+00  0.10568046678E+03  0.10568051504E+03  0.10100000000E+00 0. -1.
         -3   -1    0    0    0  501 -0.00000000000E+00 -0.00000000000E+00 -0.20628494456E+02  0.20628741710E+02  0.10100000000E+00 0.  1.
         23    2    1    2    0    0 -0.17763568394E-14 -0.71054273576E-14  0.85051972323E+02  0.12630925675E+03  0.93381959420E+02 0.  0.
    9000005    2    3    3    0    0  0.13440564088E+02  0.38716192232E+02  0.17318715731E+02  0.47142430666E+02  0.15584561288E+02 0.  0.
         22    1    3    3    0    0 -0.13440564088E+02 -0.38716192232E+02  0.67733256591E+02  0.79166826086E+02  0.00000000000E+00 0. -1.
         22    1    4    4    0    0 -0.14434900932E+01  0.19064824025E+01 -0.18776569051E+01  0.30403838990E+01  0.00000000000E+00 0.  1.
         22    1    4    4    0    0  0.14884054182E+02  0.36809709830E+02  0.19196372636E+02  0.44102046767E+02  0.00000000000E+00 0.  1.
<mgrwt>
<rscale>  0 0.93381959E+02</rscale>
<asrwt>0</asrwt>
<pdfrwt beam="1">  1        3 0.16258556E-01 0.93381959E+02</pdfrwt>
<pdfrwt beam="2">  1       -3 0.31736373E-02 0.93381959E+02</pdfrwt>
<totfact> 0.30753107E+04</totfact>
</mgrwt>
</event>
<event>
 7    1  0.1312339E-009  0.9292825E+02  0.7818608E-02  0.1295912E+00
          3   -1    0    0  501    0  0.00000000000E+00  0.00000000000E+00  0.17547100992E+03  0.17547103898E+03  0.10100000000E+00 0. -1.
         -3   -1    0    0    0  501 -0.00000000000E+00 -0.00000000000E+00 -0.12303304783E+02  0.12303719339E+02  0.10100000000E+00 0.  1.
         23    2    1    2    0    0  0.00000000000E+00  0.00000000000E+00  0.16316770513E+03  0.18777475832E+03  0.92928251165E+02 0.  0.
    9000005    2    3    3    0    0 -0.29780667278E+02 -0.12990626120E+02  0.14738386742E+03  0.15165310217E+03  0.14866556766E+02 0.  0.
         22    1    3    3    0    0  0.29780667278E+02  0.12990626120E+02  0.15783837711E+02  0.36121656155E+02  0.00000000000E+00 0.  1.
         22    1    4    4    0    0 -0.12970410096E+02  0.92741692033E+00  0.72371063717E+02  0.73530010906E+02  0.00000000000E+00 0. -1.
         22    1    4    4    0    0 -0.16810257182E+02 -0.13918043040E+02  0.75012803705E+02  0.78123091262E+02  0.00000000000E+00 0. -1.
<mgrwt>
<rscale>  0 0.92928251E+02</rscale>
<asrwt>0</asrwt>
<pdfrwt beam="1">  1        3 0.26995572E-01 0.92928251E+02</pdfrwt>
<pdfrwt beam="2">  1       -3 0.18928504E-02 0.92928251E+02</pdfrwt>
<totfact> 0.27680165E+04</totfact>
</mgrwt>
</event>
<event>
 7    1  0.1312339E-009  0.9251035E+02  0.7818608E-02  0.1296884E+00
         -3   -1    0    0    0  501 -0.00000000000E+00  0.00000000000E+00  0.48528002874E+03  0.48528003925E+03  0.10100000000E+00 0. -1.
          3   -1    0    0  501    0  0.00000000000E+00 -0.00000000000E+00 -0.44082904148E+01  0.44094472875E+01  0.10100000000E+00 0.  1.
         23    2    1    2    0    0 -0.35527136788E-14  0.71054273576E-14  0.48087173833E+03  0.48968948654E+03  0.92510348102E+02 0.  0.
    9000005    2    3    3    0    0 -0.20583314363E+02  0.39694673119E+02  0.28739277548E+03  0.29111091526E+03  0.12313313349E+02 0.  0.
         22    1    3    3    0    0  0.20583314363E+02 -0.39694673119E+02  0.19347896285E+03  0.19857857127E+03  0.00000000000E+00 0.  1.
         22    1    4    4    0    0 -0.94258611790E+01  0.30340459036E+02  0.19084297489E+03  0.19346945852E+03  0.00000000000E+00 0. -1.
         22    1    4    4    0    0 -0.11157453184E+02  0.93542140829E+01  0.96549800582E+02  0.97641456744E+02  0.00000000000E+00 0. -1.
<mgrwt>
<rscale>  0 0.92510348E+02</rscale>
<asrwt>0</asrwt>
<pdfrwt beam="2">  1        3 0.67828847E-03 0.92510348E+02</pdfrwt>
<pdfrwt beam="1">  1       -3 0.74658540E-01 0.92510348E+02</pdfrwt>
<totfact> 0.17453048E+04</totfact>
</mgrwt>
</event>
<event>
 7    1  0.1312339E-009  0.9077179E+02  0.7818608E-02  0.1300993E+00
          3   -1    0    0  501    0  0.00000000000E+00  0.00000000000E+00  0.26150913674E+02  0.26151108714E+02  0.10100000000E+00 0. -1.
         -3   -1    0    0    0  501 -0.00000000000E+00 -0.00000000000E+00 -0.78768413925E+02  0.78768478678E+02  0.10100000000E+00 0.  1.
         23    2    1    2    0    0  0.00000000000E+00 -0.35527136788E-14 -0.52617500251E+02  0.10491958739E+03  0.90771793449E+02 0.  0.
    9000005    2    3    3    0    0 -0.26181348558E+02 -0.25058201862E+02 -0.55976260869E+02  0.68523739198E+02  0.15772905880E+02 0.  0.
         22    1    3    3    0    0  0.26181348558E+02  0.25058201862E+02  0.33587606185E+01  0.36395848194E+02  0.00000000000E+00 0. -1.
         22    1    4    4    0    0 -0.68680834946E+00 -0.25574916987E+01 -0.15204325303E+02  0.15433210211E+02  0.00000000000E+00 0.  1.
         22    1    4    4    0    0 -0.25494540209E+02 -0.22500710164E+02 -0.40771935567E+02  0.53090528987E+02  0.00000000000E+00 0.  1.
<mgrwt>
<rscale>  0 0.90771793E+02</rscale>
<asrwt>0</asrwt>
<pdfrwt beam="1">  1        3 0.40232375E-02 0.90771793E+02</pdfrwt>
<pdfrwt beam="2">  1       -3 0.12118237E-01 0.90771793E+02</pdfrwt>
<totfact> 0.34729433E+04</totfact>
</mgrwt>
</event>
<event>
 7    1  0.1312339E-009  0.9057764E+02  0.7818608E-02  0.1301459E+00
          3   -1    0    0  501    0  0.00000000000E+00  0.00000000000E+00  0.32335741881E+02  0.32335899616E+02  0.10100000000E+00 0. -1.
         -3   -1    0    0    0  501 -0.00000000000E+00 -0.00000000000E+00 -0.63430302061E+02  0.63430382472E+02  0.10100000000E+00 0.  1.
         23    2    1    2    0    0  0.00000000000E+00  0.17763568394E-14 -0.31094560180E+02  0.95766282088E+02  0.90577641348E+02 0.  0.
    9000005    2    3    3    0    0  0.90401983060E+01  0.14345152780E+02 -0.59052378421E+02  0.63068450440E+02  0.14245611607E+02 0.  0.
         22    1    3    3    0    0 -0.90401983060E+01 -0.14345152780E+02  0.27957818241E+02  0.32697831648E+02  0.00000000000E+00 0. -1.
         22    1    4    4    0    0  0.12714098940E+02  0.12417871093E+02 -0.43969690381E+02  0.47425578610E+02  0.00000000000E+00 0.  1.
         22    1    4    4    0    0 -0.36739006338E+01  0.19272816867E+01 -0.15082688040E+02  0.15642871830E+02  0.00000000000E+00 0.  1.
<mgrwt>
<rscale>  0 0.90577641E+02</rscale>
<asrwt>0</asrwt>
<pdfrwt beam="1">  1        3 0.49747478E-02 0.90577641E+02</pdfrwt>
<pdfrwt beam="2">  1       -3 0.97585263E-02 0.90577641E+02</pdfrwt>
<totfact> 0.35622189E+04</totfact>
</mgrwt>
</event>
<event>
 7    1  0.1312339E-009  0.1010211E+03  0.7818608E-02  0.1278163E+00
          3   -1    0    0  501    0  0.00000000000E+00  0.00000000000E+00  0.61771816068E+02  0.61771898638E+02  0.10100000000E+00 0. -1.
         -3   -1    0    0    0  501 -0.00000000000E+00 -0.00000000000E+00 -0.41302070204E+02  0.41302193697E+02  0.10100000000E+00 0.  1.
         23    2    1    2    0    0 -0.17763568394E-14  0.00000000000E+00  0.20469745864E+02  0.10307409233E+03  0.10102107708E+03 0.  0.
    9000005    2    3    3    0    0 -0.15558592878E+02  0.32065039109E+02  0.45641700759E+02  0.59440803912E+02  0.13409242191E+02 0.  0.
         22    1    3    3    0    0  0.15558592878E+02 -0.32065039109E+02 -0.25171954895E+02  0.43633288423E+02  0.00000000000E+00 0.  1.
         22    1    4    4    0    0 -0.13780025745E+02  0.14161380482E+02  0.19981212078E+02  0.28101292546E+02  0.00000000000E+00 0.  1.
         22    1    4    4    0    0 -0.17785671336E+01  0.17903658627E+02  0.25660488681E+02  0.31339511365E+02  0.00000000000E+00 0.  1.
<mgrwt>
<rscale>  0 0.10102108E+03</rscale>
<asrwt>0</asrwt>
<pdfrwt beam="1">  1        3 0.95033722E-02 0.10102108E+03</pdfrwt>
<pdfrwt beam="2">  1       -3 0.63541805E-02 0.10102108E+03</pdfrwt>
<totfact> 0.26007946E+04</totfact>
</mgrwt>
</event>
<event>
 7    1  0.1312339E-009  0.9263322E+02  0.7818608E-02  0.1296597E+00
          3   -1    0    0  501    0  0.00000000000E+00  0.00000000000E+00  0.15121862095E+03  0.15121865468E+03  0.10100000000E+00 0. -1.
         -3   -1    0    0    0  501 -0.00000000000E+00 -0.00000000000E+00 -0.14186056405E+02  0.14186415944E+02  0.10100000000E+00 0.  1.
         23    2    1    2    0    0  0.00000000000E+00  0.00000000000E+00  0.13703256455E+03  0.16540507062E+03  0.92633221050E+02 0.  0.
    9000005    2    3    3    0    0 -0.19481845142E+02  0.19254605607E+02  0.62027238492E+01  0.31738585131E+02  0.14784514727E+02 0.  0.
         22    1    3    3    0    0  0.19481845142E+02 -0.19254605607E+02  0.13082984070E+03  0.13366648549E+03  0.00000000000E+00 0. -1.
         22    1    4    4    0    0 -0.12507079573E+02  0.18882482599E+02  0.87833198201E+01  0.24292424655E+02  0.00000000000E+00 0.  1.
         22    1    4    4    0    0 -0.69747655689E+01  0.37212300884E+00 -0.25805959709E+01  0.74461604764E+01  0.00000000000E+00 0.  1.
<mgrwt>
<rscale>  0 0.92633221E+02</rscale>
<asrwt>0</asrwt>
<pdfrwt beam="1">  1        3 0.23264434E-01 0.92633221E+02</pdfrwt>
<pdfrwt beam="2">  1       -3 0.21825005E-02 0.92633221E+02</pdfrwt>
<totfact> 0.29112230E+04</totfact>
</mgrwt>
</event>
<event>
 7    1  0.1312339E-009  0.9228197E+02  0.7818608E-02  0.1297418E+00
          3   -1    0    0  501    0  0.00000000000E+00  0.00000000000E+00  0.13179361162E+03  0.13179365032E+03  0.10100000000E+00 0. -1.
         -3   -1    0    0    0  501 -0.00000000000E+00 -0.00000000000E+00 -0.16153774010E+02  0.16154089754E+02  0.10100000000E+00 0.  1.
         23    2    1    2    0    0  0.35527136788E-14  0.35527136788E-14  0.11563983761E+03  0.14794774007E+03  0.92281968719E+02 0.  0.
    9000005    2    3    3    0    0 -0.29055854730E+02 -0.21112721326E+02  0.13284671922E+02  0.39473920012E+02  0.95769597041E+01 0.  0.
         22    1    3    3    0    0  0.29055854730E+02  0.21112721326E+02  0.10235516568E+03  0.10847382006E+03  0.00000000000E+00 0. -1.
         22    1    4    4    0    0 -0.97750417640E+01 -0.12880575310E+02  0.49144611784E+01  0.16900076641E+02  0.00000000000E+00 0. -1.
         22    1    4    4    0    0 -0.19280812966E+02 -0.82321460170E+01  0.83702107434E+01  0.22573843372E+02  0.00000000000E+00 0. -1.
<mgrwt>
<rscale>  0 0.92281969E+02</rscale>
<asrwt>0</asrwt>
<pdfrwt beam="1">  1        3 0.20275967E-01 0.92281969E+02</pdfrwt>
<pdfrwt beam="2">  1       -3 0.24852233E-02 0.92281969E+02</pdfrwt>
<totfact> 0.30421623E+04</totfact>
</mgrwt>
</event>
<event>
 7    1  0.1312339E-009  0.8913184E+02  0.7818608E-02  0.1304968E+00
          3   -1    0    0  501    0  0.00000000000E+00  0.00000000000E+00  0.23921456047E+03  0.23921458179E+03  0.10100000000E+00 0. -1.
         -3   -1    0    0    0  501 -0.00000000000E+00 -0.00000000000E+00 -0.83023478336E+01  0.83029621551E+01  0.10100000000E+00 0.  1.
         23    2    1    2    0    0  0.00000000000E+00  0.00000000000E+00  0.23091221263E+03  0.24751754394E+03  0.89131838401E+02 0.  0.
    9000005    2    3    3    0    0  0.18196149733E+02 -0.27605053487E+02  0.38982340158E+02  0.52760734586E+02  0.13074151089E+02 0.  0.
         22    1    3    3    0    0 -0.18196149733E+02  0.27605053487E+02  0.19192987247E+03  0.19475680936E+03  0.00000000000E+00 0. -1.
         22    1    4    4    0    0 -0.90231699178E+00 -0.83153558236E+01  0.80846605460E+01  0.11632757823E+02  0.00000000000E+00 0. -1.
         22    1    4    4    0    0  0.19098466724E+02 -0.19289697663E+02  0.30897679612E+02  0.41127976763E+02  0.00000000000E+00 0. -1.
<mgrwt>
<rscale>  0 0.89131838E+02</rscale>
<asrwt>0</asrwt>
<pdfrwt beam="1">  1        3 0.36802290E-01 0.89131838E+02</pdfrwt>
<pdfrwt beam="2">  1       -3 0.12773331E-02 0.89131838E+02</pdfrwt>
<totfact> 0.27859647E+04</totfact>
</mgrwt>
</event>
<event>
 7    1  0.1312339E-009  0.9135848E+02  0.7818608E-02  0.1299595E+00
          3   -1    0    0  501    0  0.00000000000E+00  0.00000000000E+00  0.71206424418E+02  0.71206496047E+02  0.10100000000E+00 0. -1.
         -3   -1    0    0    0  501 -0.00000000000E+00 -0.00000000000E+00 -0.29303263178E+02  0.29303437236E+02  0.10100000000E+00 0.  1.
         23    2    1    2    0    0  0.00000000000E+00 -0.35527136788E-14  0.41903161240E+02  0.10050993328E+03  0.91358479446E+02 0.  0.
    9000005    2    3    3    0    0  0.34484904161E+02 -0.23191797625E+02  0.33250858116E+01  0.43806000477E+02  0.13447728063E+02 0.  0.
         22    1    3    3    0    0 -0.34484904161E+02  0.23191797625E+02  0.38578075428E+02  0.56703932807E+02  0.00000000000E+00 0. -1.
         22    1    4    4    0    0  0.35479432572E+02 -0.22287827527E+02  0.20435103814E+01  0.41948937128E+02  0.00000000000E+00 0. -1.
         22    1    4    4    0    0 -0.99452841093E+00 -0.90397009771E+00  0.12815754303E+01  0.18570633487E+01  0.00000000000E+00 0. -1.
<mgrwt>
<rscale>  0 0.91358479E+02</rscale>
<asrwt>0</asrwt>
<pdfrwt beam="1">  1        3 0.10954853E-01 0.91358479E+02</pdfrwt>
<pdfrwt beam="2">  1       -3 0.45082132E-02 0.91358479E+02</pdfrwt>
<totfact> 0.34445833E+04</totfact>
</mgrwt>
</event>
<event>
 7    1  0.1312339E-009  0.9126126E+02  0.7818608E-02  0.1299826E+00
         -3   -1    0    0    0  501 -0.00000000000E+00  0.00000000000E+00  0.25349027327E+01  0.25369140435E+01  0.10100000000E+00 0.  1.
          3   -1    0    0  501    0  0.00000000000E+00 -0.00000000000E+00 -0.82106640329E+03  0.82106640950E+03  0.10100000000E+00 0. -1.
         23    2    1    2    0    0  0.35527136788E-14 -0.44408920985E-15 -0.81853150056E+03  0.82360332355E+03  0.91261257666E+02 0.  0.
    9000005    2    3    3    0    0  0.18955636689E+02 -0.33057085561E+01 -0.78191109996E+03  0.78223549050E+03  0.11711126305E+02 0.  0.
         22    1    3    3    0    0 -0.18955636689E+02  0.33057085561E+01 -0.36620400601E+02  0.41367833053E+02  0.00000000000E+00 0.  1.
         22    1    4    4    0    0  0.17578825951E+02 -0.27809197687E+01 -0.49379787365E+03  0.49411849658E+03  0.00000000000E+00 0.  1.
         22    1    4    4    0    0  0.13768107381E+01 -0.52478878746E+00 -0.28811322630E+03  0.28811699392E+03  0.00000000000E+00 0.  1.
<mgrwt>
<rscale>  0 0.91261258E+02</rscale>
<asrwt>0</asrwt>
<pdfrwt beam="2">  1        3 0.12631785E+00 0.91261258E+02</pdfrwt>
<pdfrwt beam="1">  1       -3 0.39014089E-03 0.91261258E+02</pdfrwt>
<totfact> 0.12058165E+04</totfact>
</mgrwt>
</event>
<event>
 7    1  0.1312339E-009  0.9188312E+02  0.7818608E-02  0.1298354E+00
         -3   -1    0    0    0  501 -0.00000000000E+00  0.00000000000E+00  0.19165862420E+01  0.19192456390E+01  0.10100000000E+00 0.  1.
          3   -1    0    0  501    0  0.00000000000E+00 -0.00000000000E+00 -0.11004767724E+04  0.11004767771E+04  0.10100000000E+00 0. -1.
         23    2    1    2    0    0 -0.88817841970E-15 -0.35527136788E-14 -0.10985601862E+04  0.11023960227E+04  0.91883122475E+02 0.  0.
    9000005    2    3    3    0    0 -0.67752677129E+01 -0.26533925351E+02 -0.99163275041E+03  0.99201744702E+03  0.36263020302E+01 0.  0.
         22    1    3    3    0    0  0.67752677129E+01  0.26533925351E+02 -0.10692743577E+03  0.11037857568E+03  0.00000000000E+00 0.  1.
         22    1    4    4    0    0 -0.53516747205E+01 -0.23856350813E+02 -0.84644264413E+03  0.84679567529E+03  0.00000000000E+00 0.  1.
         22    1    4    4    0    0 -0.14235929924E+01 -0.26775745380E+01 -0.14519010628E+03  0.14522177173E+03  0.00000000000E+00 0.  1.
<mgrwt>
<rscale>  0 0.91883122E+02</rscale>
<asrwt>0</asrwt>
<pdfrwt beam="2">  1        3 0.16930382E+00 0.91883122E+02</pdfrwt>
<pdfrwt beam="1">  1       -3 0.29506523E-03 0.91883122E+02</pdfrwt>
<totfact> 0.88457975E+03</totfact>
</mgrwt>
</event>
<event>
 7    1  0.1312339E-009  0.6253287E+02  0.7818608E-02  0.1387500E+00
         -3   -1    0    0    0  501 -0.00000000000E+00  0.00000000000E+00  0.85722645318E+02  0.85722704818E+02  0.10100000000E+00 0.  1.
          3   -1    0    0  501    0  0.00000000000E+00 -0.00000000000E+00 -0.11403818353E+02  0.11404265607E+02  0.10100000000E+00 0. -1.
         23    2    1    2    0    0  0.00000000000E+00  0.88817841970E-15  0.74318826965E+02  0.97126970424E+02  0.62532874093E+02 0.  0.
    9000005    2    3    3    0    0  0.29891902755E+02 -0.72481865070E+01  0.41749356131E+02  0.52329286463E+02  0.70202155489E+01 0.  0.
         22    1    3    3    0    0 -0.29891902755E+02  0.72481865070E+01  0.32569470834E+02  0.44797683962E+02  0.00000000000E+00 0. -1.
         22    1    4    4    0    0  0.79782903023E+01 -0.31254007515E+01  0.71138712449E+01  0.11136804303E+02  0.00000000000E+00 0. -1.
         22    1    4    4    0    0  0.21913612453E+02 -0.41227857555E+01  0.34635484886E+02  0.41192482159E+02  0.00000000000E+00 0. -1.
<mgrwt>
<rscale>  0 0.62532874E+02</rscale>
<asrwt>0</asrwt>
<pdfrwt beam="2">  1        3 0.17544726E-02 0.62532874E+02</pdfrwt>
<pdfrwt beam="1">  1       -3 0.13188138E-01 0.62532874E+02</pdfrwt>
<totfact> 0.95021966E+04</totfact>
</mgrwt>
</event>
<event>
 7    1  0.1312339E-009  0.9671121E+02  0.7818608E-02  0.1287368E+00
         -3   -1    0    0    0  501 -0.00000000000E+00  0.00000000000E+00  0.27911698057E+03  0.27911699884E+03  0.10100000000E+00 0.  1.
          3   -1    0    0  501    0  0.00000000000E+00 -0.00000000000E+00 -0.83770404421E+01  0.83776492866E+01  0.10100000000E+00 0. -1.
         23    2    1    2    0    0 -0.71054273576E-14 -0.35527136788E-14  0.27073994013E+03  0.28749464813E+03  0.96711206813E+02 0.  0.
    9000005    2    3    3    0    0  0.32772366821E+02  0.30357663301E+02  0.94205628362E+02  0.10539583161E+03  0.15426119314E+02 0.  0.
         22    1    3    3    0    0 -0.32772366821E+02 -0.30357663301E+02  0.17653431177E+03  0.18209881652E+03  0.00000000000E+00 0. -1.
         22    1    4    4    0    0  0.31923774627E+02  0.23261273897E+02  0.72754695563E+02  0.82785626628E+02  0.00000000000E+00 0. -1.
         22    1    4    4    0    0  0.84859219453E+00  0.70963894038E+01  0.21450932798E+02  0.22610204979E+02  0.00000000000E+00 0. -1.
<mgrwt>
<rscale>  0 0.96711207E+02</rscale>
<asrwt>0</asrwt>
<pdfrwt beam="2">  1        3 0.12888238E-02 0.96711207E+02</pdfrwt>
<pdfrwt beam="1">  1       -3 0.42941117E-01 0.96711207E+02</pdfrwt>
<totfact> 0.20913180E+04</totfact>
</mgrwt>
</event>
<event>
 7    1  0.1783883E-009  0.9058941E+02  0.7818608E-02  0.1301431E+00
          3   -1    0    0  501    0  0.00000000000E+00  0.00000000000E+00  0.28868874744E+03  0.28868876510E+03  0.10100000000E+00 0. -1.
         -3   -1    0    0    0  501 -0.00000000000E+00 -0.00000000000E+00 -0.71062753367E+01  0.71069930464E+01  0.10100000000E+00 0.  1.
         23    2    1    2    0    0  0.88817841970E-15 -0.17763568394E-14  0.28158247210E+03  0.29579575815E+03  0.90589414095E+02 0.  0.
    9000005    2    3    3    0    0  0.48064981351E+01 -0.10535398444E+02  0.28341046914E+03  0.28407233638E+03  0.15540310002E+02 0.  0.
         22    1    3    3    0    0 -0.48064981351E+01  0.10535398444E+02 -0.18279970433E+01  0.11723421765E+02  0.00000000000E+00 0.  1.
         22    1    4    4    0    0  0.99870753569E+01 -0.71722536240E+01  0.14357730378E+03  0.14410282807E+03  0.00000000000E+00 0. -1.
         22    1    4    4    0    0 -0.51805772218E+01 -0.33631448199E+01  0.13983316536E+03  0.13996950831E+03  0.00000000000E+00 0. -1.
<mgrwt>
<rscale>  0 0.90589414E+02</rscale>
<asrwt>0</asrwt>
<pdfrwt beam="1">  1        3 0.44413696E-01 0.90589414E+02</pdfrwt>
<pdfrwt beam="2">  1       -3 0.10933300E-02 0.90589414E+02</pdfrwt>
<totfact> 0.24617767E+04</totfact>
</mgrwt>
</event>
<event>
 7    1  0.1312339E-009  0.9217634E+02  0.7818608E-02  0.1297665E+00
          3   -1    0    0  501    0  0.00000000000E+00  0.00000000000E+00  0.10264942871E+03  0.10264947840E+03  0.10100000000E+00 0. -1.
         -3   -1    0    0    0  501 -0.00000000000E+00 -0.00000000000E+00 -0.20692769460E+02  0.20693015946E+02  0.10100000000E+00 0.  1.
         23    2    1    2    0    0  0.00000000000E+00  0.00000000000E+00  0.81956659247E+02  0.12334249434E+03  0.92176335984E+02 0.  0.
    9000005    2    3    3    0    0  0.27578459978E+02  0.20887889312E+02  0.80278374100E+02  0.88705923845E+02  0.15074753810E+02 0.  0.
         22    1    3    3    0    0 -0.27578459978E+02 -0.20887889312E+02  0.16782851466E+01  0.34636570496E+02  0.00000000000E+00 0.  1.
         22    1    4    4    0    0  0.15244922445E+02  0.20183097101E+02  0.50988715300E+02  0.56917608496E+02  0.00000000000E+00 0.  1.
         22    1    4    4    0    0  0.12333537533E+02  0.70479221141E+00  0.29289658800E+02  0.31788315349E+02  0.00000000000E+00 0.  1.
<mgrwt>
<rscale>  0 0.92176336E+02</rscale>
<asrwt>0</asrwt>
<pdfrwt beam="1">  1        3 0.15792243E-01 0.92176336E+02</pdfrwt>
<pdfrwt beam="2">  1       -3 0.31835258E-02 0.92176336E+02</pdfrwt>
<totfact> 0.32054026E+04</totfact>
</mgrwt>
</event>
<event>
 7    1  0.1312339E-009  0.1189330E+03  0.7818608E-02  0.1244868E+00
         -3   -1    0    0    0  501 -0.00000000000E+00  0.00000000000E+00  0.87093150455E+02  0.87093209019E+02  0.10100000000E+00 0.  1.
          3   -1    0    0  501    0  0.00000000000E+00 -0.00000000000E+00 -0.40603113955E+02  0.40603239574E+02  0.10100000000E+00 0. -1.
         23    2    1    2    0    0  0.00000000000E+00  0.71054273576E-14  0.46490036500E+02  0.12769644859E+03  0.11893300421E+03 0.  0.
    9000005    2    3    3    0    0  0.43969546993E+02  0.39737827426E+02  0.20688777411E+02  0.63058062459E+02  0.59898029207E+01 0.  0.
         22    1    3    3    0    0 -0.43969546993E+02 -0.39737827426E+02  0.25801259089E+02  0.64638386133E+02  0.00000000000E+00 0. -1.
         22    1    4    4    0    0  0.27658706991E+01  0.19448454148E+01  0.26918235088E+01  0.43218489347E+01  0.00000000000E+00 0. -1.
         22    1    4    4    0    0  0.41203676294E+02  0.37792982011E+02  0.17996953902E+02  0.58736213525E+02  0.00000000000E+00 0. -1.
<mgrwt>
<rscale>  0 0.11893300E+03</rscale>
<asrwt>0</asrwt>
<pdfrwt beam="2">  1        3 0.62466472E-02 0.11893300E+03</pdfrwt>
<pdfrwt beam="1">  1       -3 0.13398960E-01 0.11893300E+03</pdfrwt>
<totfact> 0.15717860E+04</totfact>
</mgrwt>
</event>
<event>
 7    1  0.1312339E-009  0.8820211E+02  0.7818608E-02  0.1307265E+00
         -3   -1    0    0    0  501 -0.00000000000E+00  0.00000000000E+00  0.73840932614E+02  0.73841001688E+02  0.10100000000E+00 0.  1.
          3   -1    0    0  501    0  0.00000000000E+00 -0.00000000000E+00 -0.26338911321E+02  0.26339104969E+02  0.10100000000E+00 0. -1.
         23    2    1    2    0    0  0.35527136788E-14  0.00000000000E+00  0.47502021293E+02  0.10018010666E+03  0.88202107361E+02 0.  0.
    9000005    2    3    3    0    0  0.29800310610E+02  0.29258795382E+02  0.78584045240E+01  0.42597540110E+02  0.29428357168E+01 0.  0.
         22    1    3    3    0    0 -0.29800310610E+02 -0.29258795382E+02  0.39643616769E+02  0.57582566547E+02  0.00000000000E+00 0. -1.
         22    1    4    4    0    0  0.13739026090E+02  0.14828055432E+02  0.49378012143E+01  0.20808987160E+02  0.00000000000E+00 0. -1.
         22    1    4    4    0    0  0.16061284520E+02  0.14430739950E+02  0.29206033097E+01  0.21788552950E+02  0.00000000000E+00 0. -1.
<mgrwt>
<rscale>  0 0.88202107E+02</rscale>
<asrwt>0</asrwt>
<pdfrwt beam="2">  1        3 0.40521605E-02 0.88202107E+02</pdfrwt>
<pdfrwt beam="1">  1       -3 0.11360164E-01 0.88202107E+02</pdfrwt>
<totfact> 0.37921924E+04</totfact>
</mgrwt>
</event>
<event>
 7    1  0.1312339E-009  0.9138499E+02  0.7818608E-02  0.1299532E+00
          3   -1    0    0  501    0  0.00000000000E+00  0.00000000000E+00  0.90510609615E+01  0.90516244691E+01  0.10100000000E+00 0. -1.
         -3   -1    0    0    0  501 -0.00000000000E+00 -0.00000000000E+00 -0.23066177144E+03  0.23066179355E+03  0.10100000000E+00 0.  1.
         23    2    1    2    0    0  0.00000000000E+00  0.35527136788E-14 -0.22161071047E+03  0.23971341802E+03  0.91384986626E+02 0.  0.
    9000005    2    3    3    0    0 -0.38691344814E+02 -0.22820284438E+02 -0.11066685421E+03  0.12002079173E+03  0.11834368628E+02 0.  0.
         22    1    3    3    0    0  0.38691344814E+02  0.22820284438E+02 -0.11094385626E+03  0.11969262629E+03  0.00000000000E+00 0.  1.
         22    1    4    4    0    0 -0.21170027071E+01  0.93716319098E+00 -0.25789611487E+01  0.34656912607E+01  0.00000000000E+00 0.  1.
         22    1    4    4    0    0 -0.36574342107E+02 -0.23757447629E+02 -0.10808789306E+03  0.11655510047E+03  0.00000000000E+00 0.  1.
<mgrwt>
<rscale>  0 0.91384987E+02</rscale>
<asrwt>0</asrwt>
<pdfrwt beam="1">  1        3 0.13925161E-02 0.91384987E+02</pdfrwt>
<pdfrwt beam="2">  1       -3 0.35486467E-01 0.91384987E+02</pdfrwt>
<totfact> 0.26401139E+04</totfact>
</mgrwt>
</event>
<event>
 7    1  0.1312339E-009  0.9454543E+02  0.7818608E-02  0.1292203E+00
         -3   -1    0    0    0  501 -0.00000000000E+00  0.00000000000E+00  0.61389478950E+02  0.61389562035E+02  0.10100000000E+00 0.  1.
          3   -1    0    0  501    0  0.00000000000E+00 -0.00000000000E+00 -0.36401980296E+02  0.36402120412E+02  0.10100000000E+00 0. -1.
         23    2    1    2    0    0  0.00000000000E+00  0.00000000000E+00  0.24987498654E+02  0.97791682447E+02  0.94545428587E+02 0.  0.
    9000005    2    3    3    0    0 -0.12033295042E+02  0.36646776637E+02 -0.15286176688E+02  0.42026501975E+02  0.66912811238E+01 0.  0.
         22    1    3    3    0    0  0.12033295042E+02 -0.36646776637E+02  0.40273675342E+02  0.55765180471E+02  0.00000000000E+00 0.  1.
         22    1    4    4    0    0 -0.87567838120E+01  0.20650494395E+02 -0.11741744118E+02  0.25317834355E+02  0.00000000000E+00 0. -1.
         22    1    4    4    0    0 -0.32765112302E+01  0.15996282242E+02 -0.35444325703E+01  0.16708667620E+02  0.00000000000E+00 0. -1.
<mgrwt>
<rscale>  0 0.94545429E+02</rscale>
<asrwt>0</asrwt>
<pdfrwt beam="2">  1        3 0.56003219E-02 0.94545429E+02</pdfrwt>
<pdfrwt beam="1">  1       -3 0.94445522E-02 0.94545429E+02</pdfrwt>
<totfact> 0.31549304E+04</totfact>
</mgrwt>
</event>
<event>
 7    1  0.1312339E-009  0.8989469E+02  0.7818608E-02  0.1303107E+00
          3   -1    0    0  501    0  0.00000000000E+00  0.00000000000E+00  0.10638437832E+02  0.10638917262E+02  0.10100000000E+00 0. -1.
         -3   -1    0    0    0  501 -0.00000000000E+00 -0.00000000000E+00 -0.18989753756E+03  0.18989756442E+03  0.10100000000E+00 0.  1.
         23    2    1    2    0    0  0.00000000000E+00  0.00000000000E+00 -0.17925909973E+03  0.20053648168E+03  0.89894692002E+02 0.  0.
    9000005    2    3    3    0    0  0.22399319691E+02 -0.36715023689E+02 -0.66596207662E+02  0.79943572538E+02  0.10305213635E+02 0.  0.
         22    1    3    3    0    0 -0.22399319691E+02  0.36715023689E+02 -0.11266289207E+03  0.12059290914E+03  0.00000000000E+00 0. -1.
         22    1    4    4    0    0  0.21677284541E+02 -0.27825348903E+02 -0.51861481697E+02  0.62719757577E+02  0.00000000000E+00 0.  1.
         22    1    4    4    0    0  0.72203514958E+00 -0.88896747860E+01 -0.14734725964E+02  0.17223814961E+02  0.00000000000E+00 0.  1.
<mgrwt>
<rscale>  0 0.89894692E+02</rscale>
<asrwt>0</asrwt>
<pdfrwt beam="1">  1        3 0.16367218E-02 0.89894692E+02</pdfrwt>
<pdfrwt beam="2">  1       -3 0.29215042E-01 0.89894692E+02</pdfrwt>
<totfact> 0.29575990E+04</totfact>
</mgrwt>
</event>
<event>
 7    1  0.1312339E-009  0.9099008E+02  0.7818608E-02  0.1300472E+00
          3   -1    0    0  501    0  0.00000000000E+00  0.00000000000E+00  0.22746895810E+02  0.22747120037E+02  0.10100000000E+00 0. -1.
         -3   -1    0    0    0  501 -0.00000000000E+00 -0.00000000000E+00 -0.90991868735E+02  0.90991924790E+02  0.10100000000E+00 0.  1.
         23    2    1    2    0    0  0.00000000000E+00  0.00000000000E+00 -0.68244972925E+02  0.11373904483E+03  0.90990076319E+02 0.  0.
    9000005    2    3    3    0    0  0.26385821094E+02  0.35628866348E+02 -0.30936020280E+02  0.55794367595E+02  0.13796609458E+02 0.  0.
         22    1    3    3    0    0 -0.26385821094E+02 -0.35628866348E+02 -0.37308952646E+02  0.57944677232E+02  0.00000000000E+00 0. -1.
         22    1    4    4    0    0  0.38643432896E+01  0.15601182692E+02 -0.82115171220E+01  0.18048796744E+02  0.00000000000E+00 0.  1.
         22    1    4    4    0    0  0.22521477804E+02  0.20027683656E+02 -0.22724503158E+02  0.37745570851E+02  0.00000000000E+00 0.  1.
<mgrwt>
<rscale>  0 0.90990076E+02</rscale>
<asrwt>0</asrwt>
<pdfrwt beam="1">  1        3 0.34995440E-02 0.90990076E+02</pdfrwt>
<pdfrwt beam="2">  1       -3 0.13998770E-01 0.90990076E+02</pdfrwt>
<totfact> 0.33870178E+04</totfact>
</mgrwt>
</event>
<event>
 7    1  0.1312339E-009  0.9097950E+02  0.7818608E-02  0.1300497E+00
         -3   -1    0    0    0  501 -0.00000000000E+00  0.00000000000E+00  0.78705304343E+03  0.78705304991E+03  0.10100000000E+00 0.  1.
          3   -1    0    0  501    0  0.00000000000E+00 -0.00000000000E+00 -0.26282204965E+01  0.26301604472E+01  0.10100000000E+00 0. -1.
         23    2    1    2    0    0  0.00000000000E+00 -0.35527136788E-14  0.78442482293E+03  0.78968321036E+03  0.90979502563E+02 0.  0.
    9000005    2    3    3    0    0 -0.11684523970E+02  0.26316308339E+02  0.69723700605E+03  0.69786386818E+03  0.67423824160E+01 0.  0.
         22    1    3    3    0    0  0.11684523970E+02 -0.26316308339E+02  0.87187816879E+02  0.91819342173E+02  0.00000000000E+00 0. -1.
         22    1    4    4    0    0 -0.12610369021E+01  0.67360819344E+01  0.11456067341E+03  0.11476546914E+03  0.00000000000E+00 0.  1.
         22    1    4    4    0    0 -0.10423487068E+02  0.19580226404E+02  0.58267633264E+03  0.58309839905E+03  0.00000000000E+00 0.  1.
<mgrwt>
<rscale>  0 0.90979503E+02</rscale>
<asrwt>0</asrwt>
<pdfrwt beam="2">  1        3 0.40449138E-03 0.90979503E+02</pdfrwt>
<pdfrwt beam="1">  1       -3 0.12108522E+00 0.90979503E+02</pdfrwt>
<totfact> 0.12593392E+04</totfact>
</mgrwt>
</event>
<event>
 7    1  0.1312339E-009  0.8799699E+02  0.7818608E-02  0.1307776E+00
          3   -1    0    0  501    0  0.00000000000E+00  0.00000000000E+00  0.18175961481E+02  0.18176242097E+02  0.10100000000E+00 0. -1.
         -3   -1    0    0    0  501 -0.00000000000E+00 -0.00000000000E+00 -0.10650588603E+03  0.10650593392E+03  0.10100000000E+00 0.  1.
         23    2    1    2    0    0  0.00000000000E+00  0.00000000000E+00 -0.88329924545E+02  0.12468217601E+03  0.87996985431E+02 0.  0.
    9000005    2    3    3    0    0  0.42535639598E+01  0.31332368645E+02 -0.35395964429E+01  0.34187922764E+02  0.12509004303E+02 0.  0.
         22    1    3    3    0    0 -0.42535639598E+01 -0.31332368645E+02 -0.84790328102E+02  0.90494253248E+02  0.00000000000E+00 0. -1.
         22    1    4    4    0    0  0.44648049404E+01  0.28524359218E+02  0.95113566587E+00  0.28887336516E+02  0.00000000000E+00 0.  1.
         22    1    4    4    0    0 -0.21124098065E+00  0.28080094270E+01 -0.44907321088E+01  0.53005862475E+01  0.00000000000E+00 0.  1.
<mgrwt>
<rscale>  0 0.87996985E+02</rscale>
<asrwt>0</asrwt>
<pdfrwt beam="1">  1        3 0.27963271E-02 0.87996985E+02</pdfrwt>
<pdfrwt beam="2">  1       -3 0.16385546E-01 0.87996985E+02</pdfrwt>
<totfact> 0.36249480E+04</totfact>
</mgrwt>
</event>
<event>
 7    1  0.1312339E-009  0.9340838E+02  0.7818608E-02  0.1294802E+00
          3   -1    0    0  501    0  0.00000000000E+00  0.00000000000E+00  0.68287564865E+01  0.68295033605E+01  0.10100000000E+00 0.  1.
         -3   -1    0    0    0  501 -0.00000000000E+00 -0.00000000000E+00 -0.31940765439E+03  0.31940767036E+03  0.10100000000E+00 0. -1.
         23    2    1    2    0    0 -0.71054273576E-14  0.00000000000E+00 -0.31257889790E+03  0.32623717372E+03  0.93408383466E+02 0.  0.
    9000005    2    3    3    0    0 -0.45437454723E+02  0.42238286211E+01 -0.19046872189E+03  0.19587882874E+03  0.27889979790E+01 0.  0.
         22    1    3    3    0    0  0.45437454723E+02 -0.42238286211E+01 -0.12211017601E+03  0.13035834498E+03  0.00000000000E+00 0.  1.
         22    1    4    4    0    0 -0.19859001963E+02  0.27010429805E+01 -0.88295940914E+02  0.90541972444E+02  0.00000000000E+00 0. -1.
         22    1    4    4    0    0 -0.25578452760E+02  0.15227856406E+01 -0.10217278097E+03  0.10533685629E+03  0.00000000000E+00 0. -1.
<mgrwt>
<rscale>  0 0.93408383E+02</rscale>
<asrwt>0</asrwt>
<pdfrwt beam="1">  1        3 0.10506368E-02 0.93408383E+02</pdfrwt>
<pdfrwt beam="2">  1       -3 0.49139686E-01 0.93408383E+02</pdfrwt>
<totfact> 0.21590719E+04</totfact>
</mgrwt>
</event>
<event>
 7    1  0.1312339E-009  0.9267101E+02  0.7818608E-02  0.1296509E+00
          3   -1    0    0  501    0  0.00000000000E+00  0.00000000000E+00  0.23798419761E+02  0.23798634081E+02  0.10100000000E+00 0. -1.
         -3   -1    0    0    0  501 -0.00000000000E+00 -0.00000000000E+00 -0.90214548568E+02  0.90214605106E+02  0.10100000000E+00 0.  1.
         23    2    1    2    0    0  0.00000000000E+00  0.00000000000E+00 -0.66416128807E+02  0.11401323919E+03  0.92671012426E+02 0.  0.
    9000005    2    3    3    0    0  0.13404269164E+02  0.15111319420E+02 -0.84304610615E+02  0.87031315834E+02  0.76913040778E+01 0.  0.
         22    1    3    3    0    0 -0.13404269164E+02 -0.15111319420E+02  0.17888481808E+02  0.26981923353E+02  0.00000000000E+00 0. -1.
         22    1    4    4    0    0 -0.16347176216E+00  0.10565142003E+01 -0.14656213890E+02  0.14695153993E+02  0.00000000000E+00 0. -1.
         22    1    4    4    0    0  0.13567740926E+02  0.14054805219E+02 -0.69648396725E+02  0.72336161841E+02  0.00000000000E+00 0. -1.
<mgrwt>
<rscale>  0 0.92671012E+02</rscale>
<asrwt>0</asrwt>
<pdfrwt beam="1">  1        3 0.36613162E-02 0.92671012E+02</pdfrwt>
<pdfrwt beam="2">  1       -3 0.13879182E-01 0.92671012E+02</pdfrwt>
<totfact> 0.32204419E+04</totfact>
</mgrwt>
</event>
<event>
 7    1  0.1312339E-009  0.9565812E+02  0.7818608E-02  0.1289701E+00
         -3   -1    0    0    0  501 -0.00000000000E+00  0.00000000000E+00  0.19162660254E+02  0.19162926421E+02  0.10100000000E+00 0.  1.
          3   -1    0    0  501    0  0.00000000000E+00 -0.00000000000E+00 -0.11937787756E+03  0.11937792028E+03  0.10100000000E+00 0. -1.
         23    2    1    2    0    0  0.35527136788E-14  0.17763568394E-14 -0.10021521730E+03  0.13854084670E+03  0.95658122635E+02 0.  0.
    9000005    2    3    3    0    0  0.31620093996E+02  0.11444565584E+02 -0.98905523891E+02  0.10488785690E+03  0.93995448434E+01 0.  0.
         22    1    3    3    0    0 -0.31620093996E+02 -0.11444565584E+02 -0.13096934102E+01  0.33652989801E+02  0.00000000000E+00 0.  1.
         22    1    4    4    0    0  0.27112415949E+02  0.12577663794E+02 -0.79473535375E+02  0.84907735514E+02  0.00000000000E+00 0.  1.
         22    1    4    4    0    0  0.45076780474E+01 -0.11330982099E+01 -0.19431988516E+02  0.19980121387E+02  0.00000000000E+00 0.  1.
<mgrwt>
<rscale>  0 0.95658123E+02</rscale>
<asrwt>0</asrwt>
<pdfrwt beam="2">  1        3 0.18365851E-01 0.95658123E+02</pdfrwt>
<pdfrwt beam="1">  1       -3 0.29481254E-02 0.95658123E+02</pdfrwt>
<totfact> 0.28102169E+04</totfact>
</mgrwt>
</event>
<event>
 7    1  0.1312339E-009  0.9144509E+02  0.7818608E-02  0.1299389E+00
          3   -1    0    0  501    0  0.00000000000E+00  0.00000000000E+00  0.87049505916E+03  0.87049506502E+03  0.10100000000E+00 0. -1.
         -3   -1    0    0    0  501 -0.00000000000E+00 -0.00000000000E+00 -0.24004977727E+01  0.24026216008E+01  0.10100000000E+00 0.  1.
         23    2    1    2    0    0  0.17763568394E-14  0.71054273576E-14  0.86809456138E+03  0.87289768662E+03  0.91445086235E+02 0.  0.
    9000005    2    3    3    0    0 -0.14312595060E+02 -0.36969567797E+02  0.64605072150E+03  0.64734266860E+03  0.99697805356E+01 0.  0.
         22    1    3    3    0    0  0.14312595060E+02  0.36969567797E+02  0.22204383988E+03  0.22555501801E+03  0.00000000000E+00 0.  1.
         22    1    4    4    0    0 -0.83476636553E+01 -0.20297924386E+02  0.27735253327E+03  0.27821954808E+03  0.00000000000E+00 0. -1.
         22    1    4    4    0    0 -0.59649314047E+01 -0.16671643411E+02  0.36869818823E+03  0.36912312052E+03  0.00000000000E+00 0. -1.
<mgrwt>
<rscale>  0 0.91445086E+02</rscale>
<asrwt>0</asrwt>
<pdfrwt beam="1">  1        3 0.13392274E+00 0.91445086E+02</pdfrwt>
<pdfrwt beam="2">  1       -3 0.36947046E-03 0.91445086E+02</pdfrwt>
<totfact> 0.11366309E+04</totfact>
</mgrwt>
</event>
<event>
 7    1  0.1312339E-009  0.1240305E+03  0.7818608E-02  0.1236592E+00
         -3   -1    0    0    0  501 -0.00000000000E+00  0.00000000000E+00  0.14119827447E+02  0.14120188672E+02  0.10100000000E+00 0.  1.
          3   -1    0    0  501    0  0.00000000000E+00 -0.00000000000E+00 -0.27237142585E+03  0.27237144458E+03  0.10100000000E+00 0. -1.
         23    2    1    2    0    0 -0.35527136788E-14 -0.88817841970E-15 -0.25825159841E+03  0.28649163325E+03  0.12403051175E+03 0.  0.
    9000005    2    3    3    0    0  0.29307987715E+02  0.63433214430E+01 -0.25419144087E+03  0.25623141597E+03  0.11918642799E+02 0.  0.
         22    1    3    3    0    0 -0.29307987715E+02 -0.63433214430E+01 -0.40601575346E+01  0.30260217283E+02  0.00000000000E+00 0.  1.
         22    1    4    4    0    0 -0.68424481323E+00  0.11128980411E+01 -0.43525837769E+01  0.45444161946E+01  0.00000000000E+00 0.  1.
         22    1    4    4    0    0  0.29992232528E+02  0.52304234018E+01 -0.24983885710E+03  0.25168699977E+03  0.00000000000E+00 0.  1.
<mgrwt>
<rscale>  0 0.12403051E+03</rscale>
<asrwt>0</asrwt>
<pdfrwt beam="2">  1        3 0.41903322E-01 0.12403051E+03</pdfrwt>
<pdfrwt beam="1">  1       -3 0.21723106E-02 0.12403051E+03</pdfrwt>
<totfact> 0.10582564E+04</totfact>
</mgrwt>
</event>
<event>
 7    1  0.1312339E-009  0.9091019E+02  0.7818608E-02  0.1300662E+00
          3   -1    0    0  501    0  0.00000000000E+00  0.00000000000E+00  0.13220648765E+03  0.13220652623E+03  0.10100000000E+00 0. -1.
         -3   -1    0    0    0  501 -0.00000000000E+00 -0.00000000000E+00 -0.15628117593E+02  0.15628443956E+02  0.10100000000E+00 0.  1.
         23    2    1    2    0    0  0.00000000000E+00 -0.35527136788E-14  0.11657837006E+03  0.14783497019E+03  0.90910186694E+02 0.  0.
    9000005    2    3    3    0    0  0.16428574422E+02 -0.26092954033E+02  0.11184140298E+03  0.11663915052E+03  0.12060336067E+02 0.  0.
         22    1    3    3    0    0 -0.16428574422E+02  0.26092954033E+02  0.47369670815E+01  0.31195819669E+02  0.00000000000E+00 0.  1.
         22    1    4    4    0    0  0.13712971041E+02 -0.18720483027E+02  0.62357297930E+02  0.66535213719E+02  0.00000000000E+00 0.  1.
         22    1    4    4    0    0  0.27156033809E+01 -0.73724710057E+01  0.49484105046E+02  0.50103936798E+02  0.00000000000E+00 0.  1.
<mgrwt>
<rscale>  0 0.90910187E+02</rscale>
<asrwt>0</asrwt>
<pdfrwt beam="1">  1        3 0.20339487E-01 0.90910187E+02</pdfrwt>
<pdfrwt beam="2">  1       -3 0.24043540E-02 0.90910187E+02</pdfrwt>
<totfact> 0.31690351E+04</totfact>
</mgrwt>
</event>
<event>
 7    1  0.1312339E-009  0.9197763E+02  0.7818608E-02  0.1298132E+00
          3   -1    0    0  501    0  0.00000000000E+00  0.00000000000E+00  0.33904858681E+02  0.33905009116E+02  0.10100000000E+00 0. -1.
         -3   -1    0    0    0  501 -0.00000000000E+00 -0.00000000000E+00 -0.62379252995E+02  0.62379334761E+02  0.10100000000E+00 0.  1.
         23    2    1    2    0    0  0.17763568394E-14  0.00000000000E+00 -0.28474394314E+02  0.96284343877E+02  0.91977626325E+02 0.  0.
    9000005    2    3    3    0    0 -0.84521622463E+01  0.40526049067E+02 -0.32653694636E+02  0.54675856152E+02  0.14470168379E+02 0.  0.
         22    1    3    3    0    0  0.84521622463E+01 -0.40526049067E+02  0.41793003221E+01  0.41608487726E+02  0.00000000000E+00 0. -1.
         22    1    4    4    0    0 -0.10951584058E+02  0.17325796535E+02 -0.16150532591E+02  0.26095212624E+02  0.00000000000E+00 0. -1.
         22    1    4    4    0    0  0.24994218117E+01  0.23200252532E+02 -0.16503162045E+02  0.28580643527E+02  0.00000000000E+00 0. -1.
<mgrwt>
<rscale>  0 0.91977626E+02</rscale>
<asrwt>0</asrwt>
<pdfrwt beam="1">  1        3 0.52161500E-02 0.91977626E+02</pdfrwt>
<pdfrwt beam="2">  1       -3 0.95968260E-02 0.91977626E+02</pdfrwt>
<totfact> 0.34125992E+04</totfact>
</mgrwt>
</event>
<event>
 7    1  0.1312339E-009  0.9264898E+02  0.7818608E-02  0.1296561E+00
          3   -1    0    0  501    0  0.00000000000E+00  0.00000000000E+00  0.11615903756E+02  0.11616342844E+02  0.10100000000E+00 0. -1.
         -3   -1    0    0    0  501 -0.00000000000E+00 -0.00000000000E+00 -0.18473919395E+03  0.18473922156E+03  0.10100000000E+00 0.  1.
         23    2    1    2    0    0  0.00000000000E+00  0.00000000000E+00 -0.17312329019E+03  0.19635556440E+03  0.92648983072E+02 0.  0.
    9000005    2    3    3    0    0  0.28170712332E+02  0.23646895646E+02 -0.28992345961E+02  0.47605795353E+02  0.85434723539E+01 0.  0.
         22    1    3    3    0    0 -0.28170712332E+02 -0.23646895646E+02 -0.14413094423E+03  0.14874976905E+03  0.00000000000E+00 0.  1.
         22    1    4    4    0    0  0.23132055083E+02  0.18337099729E+02 -0.18584455833E+02  0.34881559562E+02  0.00000000000E+00 0.  1.
         22    1    4    4    0    0  0.50386572488E+01  0.53097959169E+01 -0.10407890128E+02  0.12724235791E+02  0.00000000000E+00 0.  1.
<mgrwt>
<rscale>  0 0.92648983E+02</rscale>
<asrwt>0</asrwt>
<pdfrwt beam="1">  1        3 0.17870981E-02 0.92648983E+02</pdfrwt>
<pdfrwt beam="2">  1       -3 0.28421448E-01 0.92648983E+02</pdfrwt>
<totfact> 0.27470668E+04</totfact>
</mgrwt>
</event>
<event>
 7    1  0.1312339E-009  0.8545174E+02  0.7818608E-02  0.1314255E+00
          3   -1    0    0  501    0  0.00000000000E+00  0.00000000000E+00  0.59124880588E+03  0.59124881451E+03  0.10100000000E+00 0. -1.
         -3   -1    0    0    0  501 -0.00000000000E+00 -0.00000000000E+00 -0.30866981922E+01  0.30883501631E+01  0.10100000000E+00 0.  1.
         23    2    1    2    0    0  0.00000000000E+00  0.00000000000E+00  0.58816210769E+03  0.59433716467E+03  0.85451743036E+02 0.  0.
    9000005    2    3    3    0    0 -0.30789064442E+02 -0.26778605760E+01  0.49637081748E+03  0.49748274616E+03  0.12245687273E+02 0.  0.
         22    1    3    3    0    0  0.30789064442E+02  0.26778605760E+01  0.91791290213E+02  0.96854418513E+02  0.00000000000E+00 0.  1.
         22    1    4    4    0    0 -0.12288079594E+02  0.84490828877E+00  0.11742727425E+03  0.11807148474E+03  0.00000000000E+00 0.  1.
         22    1    4    4    0    0 -0.18500984848E+02 -0.35227688648E+01  0.37894354323E+03  0.37941126142E+03  0.00000000000E+00 0.  1.
<mgrwt>
<rscale>  0 0.85451743E+02</rscale>
<asrwt>0</asrwt>
<pdfrwt beam="1">  1        3 0.90961469E-01 0.85451743E+02</pdfrwt>
<pdfrwt beam="2">  1       -3 0.47500445E-03 0.85451743E+02</pdfrwt>
<totfact> 0.18811405E+04</totfact>
</mgrwt>
</event>
<event>
 7    1  0.1312339E-009  0.1041432E+03  0.7818608E-02  0.1271817E+00
          3   -1    0    0  501    0  0.00000000000E+00  0.00000000000E+00  0.39530142662E+03  0.39530143952E+03  0.10100000000E+00 0. -1.
         -3   -1    0    0    0  501 -0.00000000000E+00 -0.00000000000E+00 -0.68588181838E+01  0.68595617848E+01  0.10100000000E+00 0.  1.
         23    2    1    2    0    0  0.00000000000E+00  0.17763568394E-14  0.38844260843E+03  0.40216100130E+03  0.10414322313E+03 0.  0.
    9000005    2    3    3    0    0 -0.49469863876E+02  0.10573882345E+02  0.16464872390E+03  0.17272086277E+03  0.12814824686E+02 0.  0.
         22    1    3    3    0    0  0.49469863876E+02 -0.10573882345E+02  0.22379388453E+03  0.22944013854E+03  0.00000000000E+00 0. -1.
         22    1    4    4    0    0 -0.25217313958E+02  0.77759656569E+00  0.65827134623E+02  0.70496306516E+02  0.00000000000E+00 0. -1.
         22    1    4    4    0    0 -0.24252549918E+02  0.97962857796E+01  0.98821589280E+02  0.10222455625E+03  0.00000000000E+00 0. -1.
<mgrwt>
<rscale>  0 0.10414322E+03</rscale>
<asrwt>0</asrwt>
<pdfrwt beam="1">  1        3 0.60815645E-01 0.10414322E+03</pdfrwt>
<pdfrwt beam="2">  1       -3 0.10552613E-02 0.10414322E+03</pdfrwt>
<totfact> 0.14357814E+04</totfact>
</mgrwt>
</event>
<event>
 7    1  0.1312339E-009  0.9217240E+02  0.7818608E-02  0.1297675E+00
          3   -1    0    0  501    0  0.00000000000E+00  0.00000000000E+00  0.76620921727E+01  0.76627578236E+01  0.10100000000E+00 0. -1.
         -3   -1    0    0    0  501 -0.00000000000E+00 -0.00000000000E+00 -0.27718802447E+03  0.27718804287E+03  0.10100000000E+00 0.  1.
         23    2    1    2    0    0  0.00000000000E+00  0.00000000000E+00 -0.26952593229E+03  0.28485080069E+03  0.92172395409E+02 0.  0.
    9000005    2    3    3    0    0  0.21239882707E+02  0.33802686675E+01 -0.26034644354E+03  0.26146657850E+03  0.11042743145E+02 0.  0.
         22    1    3    3    0    0 -0.21239882707E+02 -0.33802686675E+01 -0.91794887576E+01  0.23384222192E+02  0.00000000000E+00 0. -1.
         22    1    4    4    0    0  0.74481743942E+01 -0.45791103105E+00 -0.42491227463E+02  0.43141504328E+02  0.00000000000E+00 0. -1.
         22    1    4    4    0    0  0.13791708313E+02  0.38381796985E+01 -0.21785521607E+03  0.21832507417E+03  0.00000000000E+00 0. -1.
<mgrwt>
<rscale>  0 0.92172395E+02</rscale>
<asrwt>0</asrwt>
<pdfrwt beam="1">  1        3 0.11788362E-02 0.92172395E+02</pdfrwt>
<pdfrwt beam="2">  1       -3 0.42644356E-01 0.92172395E+02</pdfrwt>
<totfact> 0.23913555E+04</totfact>
</mgrwt>
</event>
<event>
 7    1  0.1312339E-009  0.9396550E+02  0.7818608E-02  0.1293523E+00
          3   -1    0    0  501    0  0.00000000000E+00  0.00000000000E+00  0.16256421322E+02  0.16256735072E+02  0.10100000000E+00 0. -1.
         -3   -1    0    0    0  501 -0.00000000000E+00 -0.00000000000E+00 -0.13578339615E+03  0.13578343371E+03  0.10100000000E+00 0.  1.
         23    2    1    2    0    0 -0.71054273576E-14  0.00000000000E+00 -0.11952697483E+03  0.15204016879E+03  0.93965500121E+02 0.  0.
    9000005    2    3    3    0    0 -0.34180335045E+02 -0.31696402849E+02 -0.69090814868E+02  0.83361471297E+02  0.16238658596E+01 0.  0.
         22    1    3    3    0    0  0.34180335045E+02  0.31696402849E+02 -0.50436159959E+02  0.68678697489E+02  0.00000000000E+00 0. -1.
         22    1    4    4    0    0  0.10903858814E-01 -0.58724163329E-01 -0.75948033832E-01  0.96620522347E-01  0.00000000000E+00 0. -1.
         22    1    4    4    0    0 -0.34191238903E+02 -0.31637678685E+02 -0.69014866835E+02  0.83264850775E+02  0.00000000000E+00 0. -1.
<mgrwt>
<rscale>  0 0.93965500E+02</rscale>
<asrwt>0</asrwt>
<pdfrwt beam="1">  1        3 0.25010150E-02 0.93965500E+02</pdfrwt>
<pdfrwt beam="2">  1       -3 0.20889780E-01 0.93965500E+02</pdfrwt>
<totfact> 0.28733358E+04</totfact>
</mgrwt>
</event>
<event>
 7    1  0.1312339E-009  0.8981045E+02  0.7818608E-02  0.1303311E+00
          3   -1    0    0  501    0  0.00000000000E+00  0.00000000000E+00  0.16598933702E+02  0.16599240978E+02  0.10100000000E+00 0. -1.
         -3   -1    0    0    0  501 -0.00000000000E+00 -0.00000000000E+00 -0.12148099502E+03  0.12148103701E+03  0.10100000000E+00 0.  1.
         23    2    1    2    0    0  0.00000000000E+00  0.00000000000E+00 -0.10488206132E+03  0.13808027799E+03  0.89810446955E+02 0.  0.
    9000005    2    3    3    0    0  0.16167151428E+02 -0.15652385030E+02 -0.11170655310E+03  0.11456543947E+03  0.11853774708E+02 0.  0.
         22    1    3    3    0    0 -0.16167151428E+02  0.15652385030E+02  0.68244917735E+01  0.23514838515E+02  0.00000000000E+00 0. -1.
         22    1    4    4    0    0  0.75487239180E+01 -0.14053848582E+01 -0.21380939419E+02  0.22717898447E+02  0.00000000000E+00 0.  1.
         22    1    4    4    0    0  0.86184275100E+01 -0.14247000172E+02 -0.90325613677E+02  0.91847541027E+02  0.00000000000E+00 0.  1.
<mgrwt>
<rscale>  0 0.89810447E+02</rscale>
<asrwt>0</asrwt>
<pdfrwt beam="1">  1        3 0.25537091E-02 0.89810447E+02</pdfrwt>
<pdfrwt beam="2">  1       -3 0.18689410E-01 0.89810447E+02</pdfrwt>
<totfact> 0.33390103E+04</totfact>
</mgrwt>
</event>
<event>
 7    1  0.1312339E-009  0.8731636E+02  0.7818608E-02  0.1309484E+00
         -3   -1    0    0    0  501 -0.00000000000E+00  0.00000000000E+00  0.50913163508E+03  0.50913164510E+03  0.10100000000E+00 0.  1.
          3   -1    0    0  501    0  0.00000000000E+00 -0.00000000000E+00 -0.37430099679E+01  0.37443723933E+01  0.10100000000E+00 0. -1.
         23    2    1    2    0    0  0.00000000000E+00  0.88817841970E-15  0.50538862511E+03  0.51287601749E+03  0.87316361153E+02 0.  0.
    9000005    2    3    3    0    0 -0.83852095082E+01 -0.55033172749E+01  0.50206536857E+03  0.50230992675E+03  0.12042838388E+02 0.  0.
         22    1    3    3    0    0  0.83852095082E+01  0.55033172749E+01  0.33232565457E+01  0.10566090743E+02  0.00000000000E+00 0. -1.
         22    1    4    4    0    0 -0.48092868825E+01 -0.65080399599E+01  0.14526163556E+03  0.14548686054E+03  0.00000000000E+00 0.  1.
         22    1    4    4    0    0 -0.35759226257E+01  0.10047226850E+01  0.35680373301E+03  0.35682306621E+03  0.00000000000E+00 0.  1.
<mgrwt>
<rscale>  0 0.87316361E+02</rscale>
<asrwt>0</asrwt>
<pdfrwt beam="2">  1        3 0.57595314E-03 0.87316361E+02</pdfrwt>
<pdfrwt beam="1">  1       -3 0.78328065E-01 0.87316361E+02</pdfrwt>
<totfact> 0.19725883E+04</totfact>
</mgrwt>
</event>
<event>
 7    1  0.1312339E-009  0.9211434E+02  0.7818608E-02  0.1297811E+00
          3   -1    0    0  501    0  0.00000000000E+00  0.00000000000E+00  0.30108310481E+01  0.30125246223E+01  0.10100000000E+00 0. -1.
         -3   -1    0    0    0  501 -0.00000000000E+00 -0.00000000000E+00 -0.70434423521E+03  0.70434424245E+03  0.10100000000E+00 0.  1.
         23    2    1    2    0    0  0.00000000000E+00 -0.44408920985E-15 -0.70133340416E+03  0.70735676707E+03  0.92114342703E+02 0.  0.
    9000005    2    3    3    0    0 -0.26594168274E+02  0.14341410485E+01 -0.63812956303E+03  0.63877082041E+03  0.10464952921E+02 0.  0.
         22    1    3    3    0    0  0.26594168274E+02 -0.14341410485E+01 -0.63203841127E+02  0.68585946665E+02  0.00000000000E+00 0. -1.
         22    1    4    4    0    0 -0.18624330652E+02  0.53471164423E+01 -0.48161339782E+03  0.48200303143E+03  0.00000000000E+00 0.  1.
         22    1    4    4    0    0 -0.79698376220E+01 -0.39129753937E+01 -0.15651616521E+03  0.15676778898E+03  0.00000000000E+00 0.  1.
<mgrwt>
<rscale>  0 0.92114343E+02</rscale>
<asrwt>0</asrwt>
<pdfrwt beam="1">  1        3 0.46333617E-03 0.92114343E+02</pdfrwt>
<pdfrwt beam="2">  1       -3 0.10836065E+00 0.92114343E+02</pdfrwt>
<totfact> 0.13397109E+04</totfact>
</mgrwt>
</event>
<event>
 7    1  0.1312339E-009  0.8988529E+02  0.7818608E-02  0.1303130E+00
         -3   -1    0    0    0  501 -0.00000000000E+00  0.00000000000E+00  0.11745925925E+03  0.11745930267E+03  0.10100000000E+00 0.  1.
          3   -1    0    0  501    0  0.00000000000E+00 -0.00000000000E+00 -0.17195907290E+02  0.17196203899E+02  0.10100000000E+00 0. -1.
         23    2    1    2    0    0  0.00000000000E+00  0.00000000000E+00  0.10026335196E+03  0.13465550657E+03  0.89885291921E+02 0.  0.
    9000005    2    3    3    0    0  0.11936504774E+02  0.27465902388E+02  0.99248816631E+02  0.10469077360E+03  0.14593647010E+02 0.  0.
         22    1    3    3    0    0 -0.11936504774E+02 -0.27465902388E+02  0.10145353247E+01  0.29964732973E+02  0.00000000000E+00 0. -1.
         22    1    4    4    0    0  0.14467657985E+02  0.21792415720E+02  0.88402762108E+02  0.92191490165E+02  0.00000000000E+00 0. -1.
         22    1    4    4    0    0 -0.25311532109E+01  0.56734866688E+01  0.10846054523E+02  0.12499283430E+02  0.00000000000E+00 0. -1.
<mgrwt>
<rscale>  0 0.89885292E+02</rscale>
<asrwt>0</asrwt>
<pdfrwt beam="2">  1        3 0.26455503E-02 0.89885292E+02</pdfrwt>
<pdfrwt beam="1">  1       -3 0.18070682E-01 0.89885292E+02</pdfrwt>
<totfact> 0.33544016E+04</totfact>
</mgrwt>
</event>
<event>
 7    1  0.1312339E-009  0.9274264E+02  0.7818608E-02  0.1296343E+00
         -3   -1    0    0    0  501 -0.00000000000E+00  0.00000000000E+00  0.65018846835E+02  0.65018925282E+02  0.10100000000E+00 0.  1.
          3   -1    0    0  501    0  0.00000000000E+00 -0.00000000000E+00 -0.33071765450E+02  0.33071919675E+02  0.10100000000E+00 0. -1.
         23    2    1    2    0    0  0.00000000000E+00  0.00000000000E+00  0.31947081385E+02  0.98090844957E+02  0.92742643133E+02 0.  0.
    9000005    2    3    3    0    0  0.30209668928E+02  0.10480677590E+02 -0.19177693138E+02  0.37789839414E+02  0.61497438439E+01 0.  0.
         22    1    3    3    0    0 -0.30209668928E+02 -0.10480677590E+02  0.51124774523E+02  0.60301005543E+02  0.00000000000E+00 0.  1.
         22    1    4    4    0    0  0.53274217016E+01  0.98337078511E+00 -0.59700112356E+01  0.80616049420E+01  0.00000000000E+00 0. -1.
         22    1    4    4    0    0  0.24882247226E+02  0.94973068050E+01 -0.13207681903E+02  0.29728234472E+02  0.00000000000E+00 0. -1.
<mgrwt>
<rscale>  0 0.92742643E+02</rscale>
<asrwt>0</asrwt>
<pdfrwt beam="2">  1        3 0.50879819E-02 0.92742643E+02</pdfrwt>
<pdfrwt beam="1">  1       -3 0.10002917E-01 0.92742643E+02</pdfrwt>
<totfact> 0.33233308E+04</totfact>
</mgrwt>
</event>
<event>
 7    1  0.1312339E-009  0.9054598E+02  0.7818608E-02  0.1301535E+00
         -3   -1    0    0    0  501 -0.00000000000E+00  0.00000000000E+00  0.54338960782E+02  0.54339054646E+02  0.10100000000E+00 0.  1.
          3   -1    0    0  501    0  0.00000000000E+00 -0.00000000000E+00 -0.37719399437E+02  0.37719534659E+02  0.10100000000E+00 0. -1.
         23    2    1    2    0    0  0.00000000000E+00  0.00000000000E+00  0.16619561345E+02  0.92058589305E+02  0.90545977522E+02 0.  0.
    9000005    2    3    3    0    0 -0.30003088080E+02  0.81042931796E+01 -0.23590779064E+02  0.41237960244E+02  0.13348394885E+02 0.  0.
         22    1    3    3    0    0  0.30003088080E+02 -0.81042931796E+01  0.40210340409E+02  0.50820629060E+02  0.00000000000E+00 0.  1.
         22    1    4    4    0    0 -0.24530609183E+01  0.42516651199E+01 -0.23323825151E+00  0.49141188674E+01  0.00000000000E+00 0. -1.
         22    1    4    4    0    0 -0.27550027162E+02  0.38526280597E+01 -0.23357540812E+02  0.36323841377E+02  0.00000000000E+00 0. -1.
<mgrwt>
<rscale>  0 0.90545978E+02</rscale>
<asrwt>0</asrwt>
<pdfrwt beam="2">  1        3 0.58030022E-02 0.90545978E+02</pdfrwt>
<pdfrwt beam="1">  1       -3 0.83598577E-02 0.90545978E+02</pdfrwt>
<totfact> 0.35944235E+04</totfact>
</mgrwt>
</event>
<event>
 7    1  0.1312339E-009  0.9140901E+02  0.7818608E-02  0.1299475E+00
         -3   -1    0    0    0  501 -0.00000000000E+00  0.00000000000E+00  0.17405737265E+01  0.17435016195E+01  0.10100000000E+00 0.  1.
          3   -1    0    0  501    0  0.00000000000E+00 -0.00000000000E+00 -0.11991111322E+04  0.11991111364E+04  0.10100000000E+00 0. -1.
         23    2    1    2    0    0 -0.35527136788E-14  0.00000000000E+00 -0.11973705585E+04  0.12008546381E+04  0.91409012041E+02 0.  0.
    9000005    2    3    3    0    0 -0.21128681086E+02 -0.23119965578E+02 -0.10316356524E+04  0.10321862858E+04  0.12468170874E+02 0.  0.
         22    1    3    3    0    0  0.21128681086E+02  0.23119965578E+02 -0.16573490608E+03  0.16866835230E+03  0.00000000000E+00 0.  1.
         22    1    4    4    0    0 -0.54240817646E+01 -0.25376475179E+01 -0.92376441989E+02  0.92570337325E+02  0.00000000000E+00 0.  1.
         22    1    4    4    0    0 -0.15704599322E+02 -0.20582318060E+02 -0.93925921040E+03  0.93961594844E+03  0.00000000000E+00 0.  1.
<mgrwt>
<rscale>  0 0.91409012E+02</rscale>
<asrwt>0</asrwt>
<pdfrwt beam="2">  1        3 0.18447820E+00 0.91409012E+02</pdfrwt>
<pdfrwt beam="1">  1       -3 0.26800708E-03 0.91409012E+02</pdfrwt>
<totfact> 0.81316833E+03</totfact>
</mgrwt>
</event>
<event>
 7    1  0.1312339E-009  0.8951359E+02  0.7818608E-02  0.1304034E+00
          3   -1    0    0  501    0  0.00000000000E+00  0.00000000000E+00  0.12363628417E+03  0.12363632543E+03  0.10100000000E+00 0. -1.
         -3   -1    0    0    0  501 -0.00000000000E+00 -0.00000000000E+00 -0.16201924182E+02  0.16202238988E+02  0.10100000000E+00 0.  1.
         23    2    1    2    0    0 -0.71054273576E-14  0.00000000000E+00  0.10743435999E+03  0.13983856441E+03  0.89513587745E+02 0.  0.
    9000005    2    3    3    0    0 -0.36604386977E+02 -0.19913151595E+02  0.34858368518E+02  0.56150516937E+02  0.14190135451E+02 0.  0.
         22    1    3    3    0    0  0.36604386977E+02  0.19913151595E+02  0.72575991473E+02  0.83688047478E+02  0.00000000000E+00 0. -1.
         22    1    4    4    0    0 -0.34705224059E+02 -0.18541212662E+02  0.36186499118E+02  0.53457383610E+02  0.00000000000E+00 0.  1.
         22    1    4    4    0    0 -0.18991629186E+01 -0.13719389324E+01 -0.13281306005E+01  0.26931333271E+01  0.00000000000E+00 0.  1.
<mgrwt>
<rscale>  0 0.89513588E+02</rscale>
<asrwt>0</asrwt>
<pdfrwt beam="1">  1        3 0.19020995E-01 0.89513588E+02</pdfrwt>
<pdfrwt beam="2">  1       -3 0.24926311E-02 0.89513588E+02</pdfrwt>
<totfact> 0.33570468E+04</totfact>
</mgrwt>
</event>
<event>
 7    1  0.1312339E-009  0.9262634E+02  0.7818608E-02  0.1296613E+00
          3   -1    0    0  501    0  0.00000000000E+00  0.00000000000E+00  0.34468203456E+02  0.34468351433E+02  0.10100000000E+00 0. -1.
         -3   -1    0    0    0  501 -0.00000000000E+00 -0.00000000000E+00 -0.62228332216E+02  0.62228414180E+02  0.10100000000E+00 0.  1.
         23    2    1    2    0    0 -0.17763568394E-14  0.00000000000E+00 -0.27760128759E+02  0.96696765613E+02  0.92626344694E+02 0.  0.
    9000005    2    3    3    0    0  0.12165869785E+02 -0.33982341237E+02 -0.43313958932E+02  0.57393718192E+02  0.10729955542E+02 0.  0.
         22    1    3    3    0    0 -0.12165869785E+02  0.33982341237E+02  0.15553830172E+02  0.39303047422E+02  0.00000000000E+00 0. -1.
         22    1    4    4    0    0  0.58845898311E+01 -0.11112567858E+02 -0.22792903637E+02  0.26031404459E+02  0.00000000000E+00 0. -1.
         22    1    4    4    0    0  0.62812799540E+01 -0.22869773379E+02 -0.20521055294E+02  0.31362313733E+02  0.00000000000E+00 0. -1.
<mgrwt>
<rscale>  0 0.92626345E+02</rscale>
<asrwt>0</asrwt>
<pdfrwt beam="1">  1        3 0.53028182E-02 0.92626345E+02</pdfrwt>
<pdfrwt beam="2">  1       -3 0.95736072E-02 0.92626345E+02</pdfrwt>
<totfact> 0.33447522E+04</totfact>
</mgrwt>
</event>
<event>
 7    1  0.1312339E-009  0.9172923E+02  0.7818608E-02  0.1298717E+00
          3   -1    0    0  501    0  0.00000000000E+00  0.00000000000E+00  0.34381466177E+02  0.34381614527E+02  0.10100000000E+00 0. -1.
         -3   -1    0    0    0  501 -0.00000000000E+00 -0.00000000000E+00 -0.61182720433E+02  0.61182803798E+02  0.10100000000E+00 0.  1.
         23    2    1    2    0    0  0.00000000000E+00  0.00000000000E+00 -0.26801254256E+02  0.95564418324E+02  0.91729225550E+02 0.  0.
    9000005    2    3    3    0    0 -0.39747665759E+02 -0.17139315024E+02 -0.24499121455E+02  0.52217759073E+02  0.15901394837E+02 0.  0.
         22    1    3    3    0    0  0.39747665759E+02  0.17139315024E+02 -0.23021328009E+01  0.43346659251E+02  0.00000000000E+00 0. -1.
         22    1    4    4    0    0 -0.20298386070E+02 -0.15206280909E+01 -0.15912681059E+02  0.25836992962E+02  0.00000000000E+00 0.  1.
         22    1    4    4    0    0 -0.19449279689E+02 -0.15618686933E+02 -0.85864403962E+01  0.26380766111E+02  0.00000000000E+00 0.  1.
<mgrwt>
<rscale>  0 0.91729226E+02</rscale>
<asrwt>0</asrwt>
<pdfrwt beam="1">  1        3 0.52894742E-02 0.91729226E+02</pdfrwt>
<pdfrwt beam="2">  1       -3 0.94127440E-02 0.91729226E+02</pdfrwt>
<totfact> 0.34432357E+04</totfact>
</mgrwt>
</event>
<event>
 7    1  0.1312339E-009  0.9207526E+02  0.7818608E-02  0.1297903E+00
          3   -1    0    0  501    0  0.00000000000E+00  0.00000000000E+00  0.33863806611E+02  0.33863957229E+02  0.10100000000E+00 0. -1.
         -3   -1    0    0    0  501 -0.00000000000E+00 -0.00000000000E+00 -0.62587534174E+02  0.62587615668E+02  0.10100000000E+00 0.  1.
         23    2    1    2    0    0  0.00000000000E+00  0.00000000000E+00 -0.28723727563E+02  0.96451572897E+02  0.92075259376E+02 0.  0.
    9000005    2    3    3    0    0 -0.19034773438E+02  0.13831290450E+02 -0.55034682564E+02  0.61154355607E+02  0.12546383125E+02 0.  0.
         22    1    3    3    0    0  0.19034773438E+02 -0.13831290450E+02  0.26310955001E+02  0.35297217290E+02  0.00000000000E+00 0. -1.
         22    1    4    4    0    0 -0.14150808378E+01  0.79502028709E+01 -0.17626680574E+02  0.19388348241E+02  0.00000000000E+00 0.  1.
         22    1    4    4    0    0 -0.17619692600E+02  0.58810875787E+01 -0.37408001990E+02  0.41766007367E+02  0.00000000000E+00 0.  1.
<mgrwt>
<rscale>  0 0.92075259E+02</rscale>
<asrwt>0</asrwt>
<pdfrwt beam="1">  1        3 0.52098342E-02 0.92075259E+02</pdfrwt>
<pdfrwt beam="2">  1       -3 0.96288693E-02 0.92075259E+02</pdfrwt>
<totfact> 0.34015021E+04</totfact>
</mgrwt>
</event>
<event>
 7    1  0.1682985E-009  0.9941112E+02  0.7818608E-02  0.1281539E+00
          3   -1    0    0  501    0  0.00000000000E+00  0.00000000000E+00  0.46266411182E+02  0.46266521424E+02  0.10100000000E+00 0. -1.
         -3   -1    0    0    0  501 -0.00000000000E+00 -0.00000000000E+00 -0.53400126769E+02  0.53400222283E+02  0.10100000000E+00 0.  1.
         23    2    1    2    0    0  0.00000000000E+00  0.17763568394E-14 -0.71337155869E+01  0.99666743707E+02  0.99411115591E+02 0.  0.
    9000005    2    3    3    0    0 -0.31299644060E+02  0.11113962087E+02 -0.39155528020E+02  0.53530160142E+02  0.15137199170E+02 0.  0.
         22    1    3    3    0    0  0.31299644060E+02 -0.11113962087E+02  0.32021812433E+02  0.46136583565E+02  0.00000000000E+00 0. -1.
         22    1    4    4    0    0 -0.31724084901E+02  0.72863488737E+01 -0.36151062488E+02  0.48645737344E+02  0.00000000000E+00 0. -1.
         22    1    4    4    0    0  0.42444084082E+00  0.38276132132E+01 -0.30044655323E+01  0.48844227982E+01  0.00000000000E+00 0. -1.
<mgrwt>
<rscale>  0 0.99411116E+02</rscale>
<asrwt>0</asrwt>
<pdfrwt beam="1">  1        3 0.71179252E-02 0.99411116E+02</pdfrwt>
<pdfrwt beam="2">  1       -3 0.82154200E-02 0.99411116E+02</pdfrwt>
<totfact> 0.27379720E+04</totfact>
</mgrwt>
</event>
<event>
 7    1  0.1312339E-009  0.9095177E+02  0.7818608E-02  0.1300563E+00
          3   -1    0    0  501    0  0.00000000000E+00  0.00000000000E+00  0.16770055011E+01  0.16800441812E+01  0.10100000000E+00 0. -1.
         -3   -1    0    0    0  501 -0.00000000000E+00 -0.00000000000E+00 -0.12320644831E+04  0.12320644872E+04  0.10100000000E+00 0.  1.
         23    2    1    2    0    0  0.00000000000E+00  0.00000000000E+00 -0.12303874776E+04  0.12337445314E+04  0.90951766223E+02 0.  0.
    9000005    2    3    3    0    0  0.13991492418E+02 -0.16270244120E+02 -0.11590359313E+04  0.11592359691E+04  0.18053367978E+01 0.  0.
         22    1    3    3    0    0 -0.13991492418E+02  0.16270244120E+02 -0.71351546246E+02  0.74508562296E+02  0.00000000000E+00 0. -1.
         22    1    4    4    0    0  0.70515643111E+01 -0.89444179831E+01 -0.65524414695E+03  0.65534313095E+03  0.00000000000E+00 0.  1.
         22    1    4    4    0    0  0.69399281067E+01 -0.73258261371E+01 -0.50379178440E+03  0.50389283817E+03  0.00000000000E+00 0.  1.
<mgrwt>
<rscale>  0 0.90951766E+02</rscale>
<asrwt>0</asrwt>
<pdfrwt beam="1">  1        3 0.25823589E-03 0.90951766E+02</pdfrwt>
<pdfrwt beam="2">  1       -3 0.18954789E+00 0.90951766E+02</pdfrwt>
<totfact> 0.79334295E+03</totfact>
</mgrwt>
</event>
<event>
 7    1  0.1312339E-009  0.8261103E+02  0.7818608E-02  0.1321801E+00
         -3   -1    0    0    0  501 -0.00000000000E+00  0.00000000000E+00  0.81209771784E+01  0.81216052189E+01  0.10100000000E+00 0.  1.
          3   -1    0    0  501    0  0.00000000000E+00 -0.00000000000E+00 -0.21008241132E+03  0.21008243560E+03  0.10100000000E+00 0. -1.
         23    2    1    2    0    0  0.00000000000E+00  0.00000000000E+00 -0.20196143415E+03  0.21820404082E+03  0.82611031640E+02 0.  0.
    9000005    2    3    3    0    0 -0.90050631390E+01  0.28146641158E+02 -0.17630381675E+03  0.17906789511E+03  0.10437944672E+02 0.  0.
         22    1    3    3    0    0  0.90050631390E+01 -0.28146641158E+02 -0.25657617400E+02  0.39136145713E+02  0.00000000000E+00 0.  1.
         22    1    4    4    0    0 -0.56657016308E+01  0.12221061168E+02 -0.10879315663E+03  0.10962392732E+03  0.00000000000E+00 0.  1.
         22    1    4    4    0    0 -0.33393615082E+01  0.15925579990E+02 -0.67510660114E+02  0.69443967790E+02  0.00000000000E+00 0.  1.
<mgrwt>
<rscale>  0 0.82611032E+02</rscale>
<asrwt>0</asrwt>
<pdfrwt beam="2">  1        3 0.32320417E-01 0.82611032E+02</pdfrwt>
<pdfrwt beam="1">  1       -3 0.12494314E-02 0.82611032E+02</pdfrwt>
<totfact> 0.35919366E+04</totfact>
</mgrwt>
</event>
<event>
 7    1  0.1312339E-009  0.7965988E+02  0.7818608E-02  0.1330019E+00
          3   -1    0    0  501    0  0.00000000000E+00  0.00000000000E+00  0.16803374889E+02  0.16803678426E+02  0.10100000000E+00 0. -1.
         -3   -1    0    0    0  501 -0.00000000000E+00 -0.00000000000E+00 -0.94409856299E+02  0.94409910324E+02  0.10100000000E+00 0.  1.
         23    2    1    2    0    0  0.00000000000E+00  0.00000000000E+00 -0.77606481410E+02  0.11121358875E+03  0.79659879273E+02 0.  0.
    9000005    2    3    3    0    0  0.19473999189E+01 -0.38519500721E+02 -0.48211952738E+02  0.62720469464E+02  0.11041766195E+02 0.  0.
         22    1    3    3    0    0 -0.19473999189E+01  0.38519500721E+02 -0.29394528672E+02  0.48493119286E+02  0.00000000000E+00 0. -1.
         22    1    4    4    0    0  0.50481599763E+01 -0.24030583606E+02 -0.35688230987E+02  0.43319772605E+02  0.00000000000E+00 0.  1.
         22    1    4    4    0    0 -0.31007600574E+01 -0.14488917115E+02 -0.12523721751E+02  0.19400696858E+02  0.00000000000E+00 0.  1.
<mgrwt>
<rscale>  0 0.79659879E+02</rscale>
<asrwt>0</asrwt>
<pdfrwt beam="1">  1        3 0.25851622E-02 0.79659879E+02</pdfrwt>
<pdfrwt beam="2">  1       -3 0.14524620E-01 0.79659879E+02</pdfrwt>
<totfact> 0.48713564E+04</totfact>
</mgrwt>
</event>
<event>
 7    1  0.1312339E-009  0.9062369E+02  0.7818608E-02  0.1301348E+00
          3   -1    0    0  501    0  0.00000000000E+00  0.00000000000E+00  0.39613922019E+01  0.39626795451E+01  0.10100000000E+00 0. -1.
         -3   -1    0    0    0  501 -0.00000000000E+00 -0.00000000000E+00 -0.51820787021E+03  0.51820788005E+03  0.10100000000E+00 0.  1.
         23    2    1    2    0    0  0.00000000000E+00  0.00000000000E+00 -0.51424647801E+03  0.52217055960E+03  0.90623689876E+02 0.  0.
    9000005    2    3    3    0    0  0.36891220000E+02 -0.12649160495E+01 -0.40709140731E+03  0.40883578425E+03  0.77924614910E+01 0.  0.
         22    1    3    3    0    0 -0.36891220000E+02  0.12649160495E+01 -0.10715507070E+03  0.11333477534E+03  0.00000000000E+00 0. -1.
         22    1    4    4    0    0  0.24849388182E+02  0.26034941821E+01 -0.25638236573E+03  0.25759694822E+03  0.00000000000E+00 0.  1.
         22    1    4    4    0    0  0.12041831818E+02 -0.38684102315E+01 -0.15070904157E+03  0.15123883603E+03  0.00000000000E+00 0.  1.
<mgrwt>
<rscale>  0 0.90623690E+02</rscale>
<asrwt>0</asrwt>
<pdfrwt beam="1">  1        3 0.60954515E-03 0.90623690E+02</pdfrwt>
<pdfrwt beam="2">  1       -3 0.79724334E-01 0.90623690E+02</pdfrwt>
<totfact> 0.17649653E+04</totfact>
</mgrwt>
</event>
<event>
 7    1  0.1312339E-009  0.8313371E+02  0.7818608E-02  0.1320386E+00
         -3   -1    0    0    0  501 -0.00000000000E+00  0.00000000000E+00  0.10729844936E+02  0.10730320282E+02  0.10100000000E+00 0.  1.
          3   -1    0    0  501    0  0.00000000000E+00 -0.00000000000E+00 -0.16102376362E+03  0.16102379530E+03  0.10100000000E+00 0. -1.
         23    2    1    2    0    0  0.00000000000E+00  0.00000000000E+00 -0.15029391869E+03  0.17175411558E+03  0.83133712925E+02 0.  0.
    9000005    2    3    3    0    0  0.25438071714E+02  0.11459503445E+02 -0.18467842534E+02  0.37007946561E+02  0.15814904016E+02 0.  0.
         22    1    3    3    0    0 -0.25438071714E+02 -0.11459503445E+02 -0.13182607615E+03  0.13474616902E+03  0.00000000000E+00 0. -1.
         22    1    4    4    0    0  0.24782046935E+02  0.97138044347E+01 -0.20971020761E+02  0.33886450960E+02  0.00000000000E+00 0.  1.
         22    1    4    4    0    0  0.65602477945E+00  0.17456990102E+01  0.25031782277E+01  0.31214956007E+01  0.00000000000E+00 0.  1.
<mgrwt>
<rscale>  0 0.83133713E+02</rscale>
<asrwt>0</asrwt>
<pdfrwt beam="2">  1        3 0.24772924E-01 0.83133713E+02</pdfrwt>
<pdfrwt beam="1">  1       -3 0.16507845E-02 0.83133713E+02</pdfrwt>
<totfact> 0.38477565E+04</totfact>
</mgrwt>
</event>
<event>
 7    1  0.1312339E-009  0.8596155E+02  0.7818608E-02  0.1312937E+00
          3   -1    0    0  501    0  0.00000000000E+00  0.00000000000E+00  0.10681552590E+02  0.10682030084E+02  0.10100000000E+00 0. -1.
         -3   -1    0    0    0  501 -0.00000000000E+00 -0.00000000000E+00 -0.17294305300E+03  0.17294308250E+03  0.10100000000E+00 0.  1.
         23    2    1    2    0    0  0.00000000000E+00  0.71054273576E-14 -0.16226150041E+03  0.18362511258E+03  0.85961546365E+02 0.  0.
    9000005    2    3    3    0    0  0.58088846091E+01  0.32010864743E+02 -0.24534317886E+02  0.42107568053E+02  0.10614891955E+02 0.  0.
         22    1    3    3    0    0 -0.58088846091E+01 -0.32010864743E+02 -0.13772718253E+03  0.14151754453E+03  0.00000000000E+00 0. -1.
         22    1    4    4    0    0  0.43612349646E+01  0.84040691809E+01 -0.12170339015E+02  0.15419659560E+02  0.00000000000E+00 0.  1.
         22    1    4    4    0    0  0.14476496445E+01  0.23606795562E+02 -0.12363978871E+02  0.26687908493E+02  0.00000000000E+00 0.  1.
<mgrwt>
<rscale>  0 0.85961546E+02</rscale>
<asrwt>0</asrwt>
<pdfrwt beam="1">  1        3 0.16433549E-02 0.85961546E+02</pdfrwt>
<pdfrwt beam="2">  1       -3 0.26606661E-01 0.85961546E+02</pdfrwt>
<totfact> 0.34405098E+04</totfact>
</mgrwt>
</event>
<event>
 7    1  0.1312339E-009  0.9037962E+02  0.7818608E-02  0.1301935E+00
         -3   -1    0    0    0  501 -0.00000000000E+00  0.00000000000E+00  0.88536633682E+02  0.88536691291E+02  0.10100000000E+00 0.  1.
          3   -1    0    0  501    0  0.00000000000E+00 -0.00000000000E+00 -0.23065067812E+02  0.23065288946E+02  0.10100000000E+00 0. -1.
         23    2    1    2    0    0  0.00000000000E+00  0.00000000000E+00  0.65471565870E+02  0.11160198024E+03  0.90379621903E+02 0.  0.
    9000005    2    3    3    0    0 -0.26635740119E+02  0.85754743808E+01  0.75535413987E+02  0.81865093187E+02  0.14604564481E+02 0.  0.
         22    1    3    3    0    0  0.26635740119E+02 -0.85754743808E+01 -0.10063848117E+02  0.29736887050E+02  0.00000000000E+00 0. -1.
         22    1    4    4    0    0 -0.11900254724E+02  0.63765518847E+01  0.54109217801E+02  0.55768126448E+02  0.00000000000E+00 0.  1.
         22    1    4    4    0    0 -0.14735485394E+02  0.21989224962E+01  0.21426196186E+02  0.26096966739E+02  0.00000000000E+00 0.  1.
<mgrwt>
<rscale>  0 0.90379622E+02</rscale>
<asrwt>0</asrwt>
<pdfrwt beam="2">  1        3 0.35484934E-02 0.90379622E+02</pdfrwt>
<pdfrwt beam="1">  1       -3 0.13621042E-01 0.90379622E+02</pdfrwt>
<totfact> 0.34648448E+04</totfact>
</mgrwt>
</event>
<event>
 7    1  0.1312339E-009  0.9176125E+02  0.7818608E-02  0.1298642E+00
         -3   -1    0    0    0  501 -0.00000000000E+00  0.00000000000E+00  0.29859807699E+02  0.29859978513E+02  0.10100000000E+00 0.  1.
          3   -1    0    0  501    0  0.00000000000E+00 -0.00000000000E+00 -0.70496756241E+02  0.70496828592E+02  0.10100000000E+00 0. -1.
         23    2    1    2    0    0  0.00000000000E+00  0.00000000000E+00 -0.40636948542E+02  0.10035680710E+03  0.91761250784E+02 0.  0.
    9000005    2    3    3    0    0  0.20113486949E+02 -0.30984486310E+02  0.64160230620E+01  0.40535632877E+02  0.15407187662E+02 0.  0.
         22    1    3    3    0    0 -0.20113486949E+02  0.30984486310E+02 -0.47052971604E+02  0.59821174228E+02  0.00000000000E+00 0. -1.
         22    1    4    4    0    0  0.11513376448E+02 -0.72993497136E+01 -0.23957297728E+01  0.13841165580E+02  0.00000000000E+00 0.  1.
         22    1    4    4    0    0  0.86001105011E+01 -0.23685136597E+02  0.88117528347E+01  0.26694467297E+02  0.00000000000E+00 0.  1.
<mgrwt>
<rscale>  0 0.91761251E+02</rscale>
<asrwt>0</asrwt>
<pdfrwt beam="2">  1        3 0.10845673E-01 0.91761251E+02</pdfrwt>
<pdfrwt beam="1">  1       -3 0.45938353E-02 0.91761251E+02</pdfrwt>
<totfact> 0.34046097E+04</totfact>
</mgrwt>
</event>
<event>
 7    1  0.1312339E-009  0.9224744E+02  0.7818608E-02  0.1297499E+00
         -3   -1    0    0    0  501 -0.00000000000E+00  0.00000000000E+00  0.14182268545E+01  0.14218186983E+01  0.10100000000E+00 0.  1.
          3   -1    0    0  501    0  0.00000000000E+00 -0.00000000000E+00 -0.14981397082E+04  0.14981397116E+04  0.10100000000E+00 0. -1.
         23    2    1    2    0    0  0.00000000000E+00 -0.22204460493E-15 -0.14967214813E+04  0.14995615303E+04  0.92247441388E+02 0.  0.
    9000005    2    3    3    0    0  0.22235229871E+02 -0.13424247628E+01 -0.14030121234E+04  0.14032409649E+04  0.12082203140E+02 0.  0.
         22    1    3    3    0    0 -0.22235229871E+02  0.13424247628E+01 -0.93709357941E+02  0.96320565392E+02  0.00000000000E+00 0.  1.
         22    1    4    4    0    0  0.45966853226E+01  0.47867078257E+01 -0.33775621321E+03  0.33782140496E+03  0.00000000000E+00 0.  1.
         22    1    4    4    0    0  0.17638544549E+02 -0.61291325885E+01 -0.10652559102E+04  0.10654195599E+04  0.00000000000E+00 0.  1.
<mgrwt>
<rscale>  0 0.92247441E+02</rscale>
<asrwt>0</asrwt>
<pdfrwt beam="2">  1        3 0.23048204E+00 0.92247441E+02</pdfrwt>
<pdfrwt beam="1">  1       -3 0.21846650E-03 0.92247441E+02</pdfrwt>
<totfact> 0.59273247E+03</totfact>
</mgrwt>
</event>
<event>
 7    1  0.1312339E-009  0.1034130E+03  0.7818608E-02  0.1273278E+00
         -3   -1    0    0    0  501 -0.00000000000E+00  0.00000000000E+00  0.38772662309E+01  0.38785814965E+01  0.10100000000E+00 0.  1.
          3   -1    0    0  501    0  0.00000000000E+00 -0.00000000000E+00 -0.68942952139E+03  0.68942952879E+03  0.10100000000E+00 0. -1.
         23    2    1    2    0    0  0.00000000000E+00  0.71054273576E-14 -0.68555225516E+03  0.69330811029E+03  0.10341296453E+03 0.  0.
    9000005    2    3    3    0    0  0.50520828095E+01  0.45063409164E+02 -0.50228967642E+03  0.50451879080E+03  0.13713381924E+02 0.  0.
         22    1    3    3    0    0 -0.50520828095E+01 -0.45063409164E+02 -0.18326257874E+03  0.18878931949E+03  0.00000000000E+00 0.  1.
         22    1    4    4    0    0  0.13179236207E+01  0.39219046772E+02 -0.37686041078E+03  0.37889792789E+03  0.00000000000E+00 0. -1.
         22    1    4    4    0    0  0.37341591888E+01  0.58443623920E+01 -0.12542926564E+03  0.12562086290E+03  0.00000000000E+00 0. -1.
<mgrwt>
<rscale>  0 0.10341296E+03</rscale>
<asrwt>0</asrwt>
<pdfrwt beam="2">  1        3 0.10606608E+00 0.10341296E+03</pdfrwt>
<pdfrwt beam="1">  1       -3 0.59660479E-03 0.10341296E+03</pdfrwt>
<totfact> 0.10010983E+04</totfact>
</mgrwt>
</event>
<event>
 7    1  0.1312339E-009  0.9109399E+02  0.7818608E-02  0.1300224E+00
         -3   -1    0    0    0  501 -0.00000000000E+00  0.00000000000E+00  0.60051271598E+02  0.60051356533E+02  0.10100000000E+00 0.  1.
          3   -1    0    0  501    0  0.00000000000E+00 -0.00000000000E+00 -0.34545773378E+02  0.34545921022E+02  0.10100000000E+00 0. -1.
         23    2    1    2    0    0 -0.71054273576E-14  0.35527136788E-14  0.25505498220E+02  0.94597277556E+02  0.91093987077E+02 0.  0.
    9000005    2    3    3    0    0 -0.41871699747E+02  0.16725152737E+02  0.86869575749E+01  0.46474172054E+02  0.71704576174E+01 0.  0.
         22    1    3    3    0    0  0.41871699747E+02 -0.16725152737E+02  0.16818540645E+02  0.48123105502E+02  0.00000000000E+00 0. -1.
         22    1    4    4    0    0 -0.11479257313E+02  0.68181372524E+01  0.11298951623E-01  0.13351422086E+02  0.00000000000E+00 0. -1.
         22    1    4    4    0    0 -0.30392442433E+02  0.99070154841E+01  0.86756586232E+01  0.33122749968E+02  0.00000000000E+00 0. -1.
<mgrwt>
<rscale>  0 0.91093987E+02</rscale>
<asrwt>0</asrwt>
<pdfrwt beam="2">  1        3 0.53147523E-02 0.91093987E+02</pdfrwt>
<pdfrwt beam="1">  1       -3 0.92386750E-02 0.91093987E+02</pdfrwt>
<totfact> 0.35165045E+04</totfact>
</mgrwt>
</event>
<event>
 7    1  0.1312339E-009  0.9192612E+02  0.7818608E-02  0.1298253E+00
          3   -1    0    0  501    0  0.00000000000E+00  0.00000000000E+00  0.30205968939E+03  0.30205970628E+03  0.10100000000E+00 0. -1.
         -3   -1    0    0    0  501 -0.00000000000E+00 -0.00000000000E+00 -0.69936099994E+01  0.69943392700E+01  0.10100000000E+00 0.  1.
         23    2    1    2    0    0  0.00000000000E+00  0.00000000000E+00  0.29506607939E+03  0.30905404555E+03  0.91926121757E+02 0.  0.
    9000005    2    3    3    0    0  0.20744893685E+02 -0.83381267464E+01  0.28184209513E+03  0.28307811955E+03  0.14084751004E+02 0.  0.
         22    1    3    3    0    0 -0.20744893685E+02  0.83381267464E+01  0.13223984267E+02  0.25975925999E+02  0.00000000000E+00 0.  1.
         22    1    4    4    0    0  0.91311658837E+01 -0.76214751918E+01  0.77738131928E+02  0.78642750652E+02  0.00000000000E+00 0. -1.
         22    1    4    4    0    0  0.11613727801E+02 -0.71665155460E+00  0.20410396320E+03  0.20443536890E+03  0.00000000000E+00 0. -1.
<mgrwt>
<rscale>  0 0.91926122E+02</rscale>
<asrwt>0</asrwt>
<pdfrwt beam="1">  1        3 0.46470785E-01 0.91926122E+02</pdfrwt>
<pdfrwt beam="2">  1       -3 0.10759973E-02 0.91926122E+02</pdfrwt>
<totfact> 0.23169770E+04</totfact>
</mgrwt>
</event>
<event>
 6    1  0.1312339E-009  0.2708699E+03  0.7818608E-02  0.1100783E+00
         -3   -1    0    0    0  501 -0.00000000000E+00  0.00000000000E+00  0.34843142552E+03  0.34843144016E+03  0.10100000000E+00 0.  1.
          3   -1    0    0  501    0  0.00000000000E+00 -0.00000000000E+00 -0.52643355472E+02  0.52643452360E+02  0.10100000000E+00 0. -1.
    9000005    2    1    2    0    0  0.14221980266E+02  0.11858647361E+03  0.54327788945E+02  0.13169025339E+03  0.11215959241E+02 0.  0.
         22    1    1    2    0    0 -0.14221980266E+02 -0.11858647361E+03  0.24146028111E+03  0.26938463913E+03  0.00000000000E+00 0.  1.
         22    1    3    3    0    0  0.14700458319E+02  0.11444999801E+03  0.54295424678E+02  0.12752607051E+03  0.00000000000E+00 0. -1.
         22    1    3    3    0    0 -0.47847805328E+00  0.41364756030E+01  0.32364267188E-01  0.41641828859E+01  0.00000000000E+00 0. -1.
<mgrwt>
<rscale>  0 0.27086987E+03</rscale>
<asrwt>0</asrwt>
<pdfrwt beam="2">  1        3 0.80989864E-02 0.27086987E+03</pdfrwt>
<pdfrwt beam="1">  1       -3 0.53604843E-01 0.27086987E+03</pdfrwt>
<totfact> 0.92078301E+02</totfact>
</mgrwt>
</event>
<event>
 7    1  0.1312339E-009  0.9072749E+02  0.7818608E-02  0.1301099E+00
         -3   -1    0    0    0  501 -0.00000000000E+00  0.00000000000E+00  0.68245440490E+01  0.68252913840E+01  0.10100000000E+00 0.  1.
          3   -1    0    0  501    0  0.00000000000E+00 -0.00000000000E+00 -0.30152218719E+03  0.30152220411E+03  0.10100000000E+00 0. -1.
         23    2    1    2    0    0 -0.88817841970E-15  0.17763568394E-14 -0.29469764314E+03  0.30834749549E+03  0.90727488128E+02 0.  0.
    9000005    2    3    3    0    0  0.57048012673E+01 -0.13546250291E+02 -0.29305547196E+03  0.29355755362E+03  0.88590059867E+01 0.  0.
         22    1    3    3    0    0 -0.57048012673E+01  0.13546250291E+02 -0.16421711856E+01  0.14789941875E+02  0.00000000000E+00 0.  1.
         22    1    4    4    0    0  0.38748258786E+01 -0.11504008548E+02 -0.27727521029E+03  0.27754080553E+03  0.00000000000E+00 0. -1.
         22    1    4    4    0    0  0.18299753888E+01 -0.20422417432E+01 -0.15780261664E+02  0.16016748092E+02  0.00000000000E+00 0. -1.
<mgrwt>
<rscale>  0 0.90727488E+02</rscale>
<asrwt>0</asrwt>
<pdfrwt beam="2">  1        3 0.46388077E-01 0.90727488E+02</pdfrwt>
<pdfrwt beam="1">  1       -3 0.10499889E-02 0.90727488E+02</pdfrwt>
<totfact> 0.24027988E+04</totfact>
</mgrwt>
</event>
<event>
 7    1  0.1312339E-009  0.9043052E+02  0.7818608E-02  0.1301812E+00
         -3   -1    0    0    0  501 -0.00000000000E+00  0.00000000000E+00  0.18945608090E+03  0.18945610783E+03  0.10100000000E+00 0.  1.
          3   -1    0    0  501    0  0.00000000000E+00 -0.00000000000E+00 -0.10790732141E+02  0.10791204805E+02  0.10100000000E+00 0. -1.
         23    2    1    2    0    0 -0.35527136788E-14  0.00000000000E+00  0.17866534876E+03  0.20024731263E+03  0.90430522321E+02 0.  0.
    9000005    2    3    3    0    0  0.28819178571E+02 -0.21693624894E+02  0.30747329691E+02  0.47994566249E+02  0.75446465643E+01 0.  0.
         22    1    3    3    0    0 -0.28819178571E+02  0.21693624894E+02  0.14791801907E+03  0.15225274638E+03  0.00000000000E+00 0.  1.
         22    1    4    4    0    0  0.20924927079E+02 -0.16840729352E+02  0.26732025603E+02  0.37895434173E+02  0.00000000000E+00 0. -1.
         22    1    4    4    0    0  0.78942514919E+01 -0.48528955424E+01  0.40153040877E+01  0.10099132076E+02  0.00000000000E+00 0. -1.
<mgrwt>
<rscale>  0 0.90430522E+02</rscale>
<asrwt>0</asrwt>
<pdfrwt beam="2">  1        3 0.16601511E-02 0.90430522E+02</pdfrwt>
<pdfrwt beam="1">  1       -3 0.29147127E-01 0.90430522E+02</pdfrwt>
<totfact> 0.29122211E+04</totfact>
</mgrwt>
</event>
<event>
 7    1  0.1312339E-009  0.8883276E+02  0.7818608E-02  0.1305703E+00
         -3   -1    0    0    0  501 -0.00000000000E+00  0.00000000000E+00  0.14063798533E+02  0.14064161197E+02  0.10100000000E+00 0.  1.
          3   -1    0    0  501    0  0.00000000000E+00 -0.00000000000E+00 -0.14027392613E+03  0.14027396249E+03  0.10100000000E+00 0. -1.
         23    2    1    2    0    0  0.35527136788E-14  0.00000000000E+00 -0.12621012760E+03  0.15433812369E+03  0.88832764876E+02 0.  0.
    9000005    2    3    3    0    0 -0.20807651854E+02  0.76874901435E+01 -0.12977980044E+03  0.13187040363E+03  0.74128855006E+01 0.  0.
         22    1    3    3    0    0  0.20807651854E+02 -0.76874901435E+01  0.35696728416E+01  0.22467720057E+02  0.00000000000E+00 0.  1.
         22    1    4    4    0    0 -0.58274899294E+01  0.55827074200E+01 -0.37456633594E+02  0.38316127952E+02  0.00000000000E+00 0. -1.
         22    1    4    4    0    0 -0.14980161925E+02  0.21047827236E+01 -0.92323166846E+02  0.93554275680E+02  0.00000000000E+00 0. -1.
<mgrwt>
<rscale>  0 0.88832765E+02</rscale>
<asrwt>0</asrwt>
<pdfrwt beam="2">  1        3 0.21580634E-01 0.88832765E+02</pdfrwt>
<pdfrwt beam="1">  1       -3 0.21636921E-02 0.88832765E+02</pdfrwt>
<totfact> 0.33304649E+04</totfact>
</mgrwt>
</event>
<event>
 7    1  0.1312339E-009  0.8509085E+02  0.7818608E-02  0.1315195E+00
          3   -1    0    0  501    0  0.00000000000E+00  0.00000000000E+00  0.32105237272E+02  0.32105396140E+02  0.10100000000E+00 0. -1.
         -3   -1    0    0    0  501 -0.00000000000E+00 -0.00000000000E+00 -0.56380270512E+02  0.56380360978E+02  0.10100000000E+00 0.  1.
         23    2    1    2    0    0  0.00000000000E+00  0.00000000000E+00 -0.24275033240E+02  0.88485757118E+02  0.85090845418E+02 0.  0.
    9000005    2    3    3    0    0 -0.12090150218E+02 -0.37105197062E+02  0.14854054618E+01  0.41725008798E+02  0.14690219486E+02 0.  0.
         22    1    3    3    0    0  0.12090150218E+02  0.37105197062E+02 -0.25760438701E+02  0.46760748319E+02  0.00000000000E+00 0.  1.
         22    1    4    4    0    0 -0.86690073144E+01 -0.10351248397E+02  0.52602194970E+01  0.14490339553E+02  0.00000000000E+00 0. -1.
         22    1    4    4    0    0 -0.34211429038E+01 -0.26753948665E+02 -0.37748140352E+01  0.27234669246E+02  0.00000000000E+00 0. -1.
<mgrwt>
<rscale>  0 0.85090845E+02</rscale>
<asrwt>0</asrwt>
<pdfrwt beam="1">  1        3 0.49392865E-02 0.85090845E+02</pdfrwt>
<pdfrwt beam="2">  1       -3 0.86739069E-02 0.85090845E+02</pdfrwt>
<totfact> 0.42868150E+04</totfact>
</mgrwt>
</event>
<event>
 7    1  0.1312339E-009  0.8964337E+02  0.7818608E-02  0.1303718E+00
         -3   -1    0    0    0  501 -0.00000000000E+00  0.00000000000E+00  0.22083231378E+03  0.22083233688E+03  0.10100000000E+00 0.  1.
          3   -1    0    0  501    0  0.00000000000E+00 -0.00000000000E+00 -0.90970219963E+01  0.90975826570E+01  0.10100000000E+00 0. -1.
         23    2    1    2    0    0  0.00000000000E+00  0.00000000000E+00  0.21173529178E+03  0.22992991953E+03  0.89643371813E+02 0.  0.
    9000005    2    3    3    0    0 -0.29701361207E+02  0.25243600468E+02  0.58940576263E+02  0.72241507426E+02  0.15014447802E+02 0.  0.
         22    1    3    3    0    0  0.29701361207E+02 -0.25243600468E+02  0.15279471552E+03  0.15768841211E+03  0.00000000000E+00 0.  1.
         22    1    4    4    0    0 -0.93007759935E+01  0.12932146246E+02  0.13285071842E+02  0.20742178633E+02  0.00000000000E+00 0. -1.
         22    1    4    4    0    0 -0.20400585213E+02  0.12311454221E+02  0.45655504421E+02  0.51499328792E+02  0.00000000000E+00 0. -1.
<mgrwt>
<rscale>  0 0.89643372E+02</rscale>
<asrwt>0</asrwt>
<pdfrwt beam="2">  1        3 0.13995867E-02 0.89643372E+02</pdfrwt>
<pdfrwt beam="1">  1       -3 0.33974248E-01 0.89643372E+02</pdfrwt>
<totfact> 0.28278713E+04</totfact>
</mgrwt>
</event>
<event>
 7    1  0.1312339E-009  0.8878993E+02  0.7818608E-02  0.1305809E+00
         -3   -1    0    0    0  501 -0.00000000000E+00  0.00000000000E+00  0.14305274596E+02  0.14305631138E+02  0.10100000000E+00 0.  1.
          3   -1    0    0  501    0  0.00000000000E+00 -0.00000000000E+00 -0.13777317526E+03  0.13777321228E+03  0.10100000000E+00 0. -1.
         23    2    1    2    0    0  0.00000000000E+00  0.00000000000E+00 -0.12346790066E+03  0.15207884342E+03  0.88789932544E+02 0.  0.
    9000005    2    3    3    0    0  0.30257285844E+02 -0.17056337442E+02 -0.20019120570E+02  0.42954730151E+02  0.15424709407E+02 0.  0.
         22    1    3    3    0    0 -0.30257285844E+02  0.17056337442E+02 -0.10344878009E+03  0.10912411327E+03  0.00000000000E+00 0. -1.
         22    1    4    4    0    0  0.25938725124E+02 -0.15043354758E+02 -0.22588486898E+02  0.37541440087E+02  0.00000000000E+00 0.  1.
         22    1    4    4    0    0  0.43185607208E+01 -0.20129826841E+01  0.25693663286E+01  0.54132900639E+01  0.00000000000E+00 0.  1.
<mgrwt>
<rscale>  0 0.88789933E+02</rscale>
<asrwt>0</asrwt>
<pdfrwt beam="2">  1        3 0.21195902E-01 0.88789933E+02</pdfrwt>
<pdfrwt beam="1">  1       -3 0.22008418E-02 0.88789933E+02</pdfrwt>
<totfact> 0.33495112E+04</totfact>
</mgrwt>
</event>
<event>
 7    1  0.1312339E-009  0.9148295E+02  0.7818608E-02  0.1299300E+00
         -3   -1    0    0    0  501 -0.00000000000E+00  0.00000000000E+00  0.34765614751E+02  0.34765761461E+02  0.10100000000E+00 0.  1.
          3   -1    0    0  501    0  0.00000000000E+00 -0.00000000000E+00 -0.60182209606E+02  0.60182294357E+02  0.10100000000E+00 0. -1.
         23    2    1    2    0    0  0.00000000000E+00  0.00000000000E+00 -0.25416594856E+02  0.94948055818E+02  0.91482949284E+02 0.  0.
    9000005    2    3    3    0    0 -0.28408631848E+02 -0.32392866573E+02 -0.27155877433E+02  0.51827605077E+02  0.96078509814E+01 0.  0.
         22    1    3    3    0    0  0.28408631848E+02  0.32392866573E+02  0.17392825776E+01  0.43120450742E+02  0.00000000000E+00 0.  1.
         22    1    4    4    0    0 -0.74441368046E+01 -0.37677179756E+01 -0.28376794168E+01  0.88126781391E+01  0.00000000000E+00 0.  1.
         22    1    4    4    0    0 -0.20964495043E+02 -0.28625148598E+02 -0.24318198017E+02  0.43014926937E+02  0.00000000000E+00 0.  1.
<mgrwt>
<rscale>  0 0.91482949E+02</rscale>
<asrwt>0</asrwt>
<pdfrwt beam="2">  1        3 0.92588193E-02 0.91482949E+02</pdfrwt>
<pdfrwt beam="1">  1       -3 0.53485739E-02 0.91482949E+02</pdfrwt>
<totfact> 0.34731347E+04</totfact>
</mgrwt>
</event>
<event>
 7    1  0.1312339E-009  0.9162839E+02  0.7818608E-02  0.1298956E+00
          3   -1    0    0  501    0  0.00000000000E+00  0.00000000000E+00  0.33194078461E+02  0.33194232118E+02  0.10100000000E+00 0. -1.
         -3   -1    0    0    0  501 -0.00000000000E+00 -0.00000000000E+00 -0.63232036326E+02  0.63232116989E+02  0.10100000000E+00 0.  1.
         23    2    1    2    0    0  0.00000000000E+00  0.35527136788E-14 -0.30037957865E+02  0.96426349107E+02  0.91628390194E+02 0.  0.
    9000005    2    3    3    0    0 -0.30825870722E+02  0.17061813929E+02  0.14607976243E+02  0.39552811916E+02  0.10473402515E+02 0.  0.
         22    1    3    3    0    0  0.30825870722E+02 -0.17061813929E+02 -0.44645934108E+02  0.56873537191E+02  0.00000000000E+00 0.  1.
         22    1    4    4    0    0 -0.16053353178E+02  0.14729436810E+02  0.81239857176E+01  0.23252217119E+02  0.00000000000E+00 0.  1.
         22    1    4    4    0    0 -0.14772517543E+02  0.23323771188E+01  0.64839905254E+01  0.16300594797E+02  0.00000000000E+00 0.  1.
<mgrwt>
<rscale>  0 0.91628390E+02</rscale>
<asrwt>0</asrwt>
<pdfrwt beam="1">  1        3 0.51067993E-02 0.91628390E+02</pdfrwt>
<pdfrwt beam="2">  1       -3 0.97280236E-02 0.91628390E+02</pdfrwt>
<totfact> 0.34471594E+04</totfact>
</mgrwt>
</event>
<event>
 7    1  0.1312339E-009  0.9049423E+02  0.7818608E-02  0.1301659E+00
          3   -1    0    0  501    0  0.00000000000E+00  0.00000000000E+00  0.16393745690E+03  0.16393748801E+03  0.10100000000E+00 0. -1.
         -3   -1    0    0    0  501 -0.00000000000E+00 -0.00000000000E+00 -0.12488072146E+02  0.12488480569E+02  0.10100000000E+00 0.  1.
         23    2    1    2    0    0  0.00000000000E+00  0.00000000000E+00  0.15144938476E+03  0.17642596858E+03  0.90494233228E+02 0.  0.
    9000005    2    3    3    0    0 -0.24177525233E+02 -0.13002163634E+02  0.14480723283E+03  0.14818190429E+03  0.15334050153E+02 0.  0.
         22    1    3    3    0    0  0.24177525233E+02  0.13002163634E+02  0.66421519279E+01  0.28244064293E+02  0.00000000000E+00 0.  1.
         22    1    4    4    0    0 -0.88785966093E+01  0.21159923818E+01  0.29282892622E+02  0.30672376854E+02  0.00000000000E+00 0.  1.
         22    1    4    4    0    0 -0.15298928624E+02 -0.15118156016E+02  0.11552434021E+03  0.11750952744E+03  0.00000000000E+00 0.  1.
<mgrwt>
<rscale>  0 0.90494233E+02</rscale>
<asrwt>0</asrwt>
<pdfrwt beam="1">  1        3 0.25221181E-01 0.90494233E+02</pdfrwt>
<pdfrwt beam="2">  1       -3 0.19212757E-02 0.90494233E+02</pdfrwt>
<totfact> 0.30373936E+04</totfact>
</mgrwt>
</event>
<event>
 7    1  0.1312339E-009  0.9306475E+02  0.7818608E-02  0.1295595E+00
          3   -1    0    0  501    0  0.00000000000E+00  0.00000000000E+00  0.25115806910E+03  0.25115808941E+03  0.10100000000E+00 0. -1.
         -3   -1    0    0    0  501 -0.00000000000E+00 -0.00000000000E+00 -0.86207967526E+01  0.86213883829E+01  0.10100000000E+00 0.  1.
         23    2    1    2    0    0  0.00000000000E+00  0.88817841970E-15  0.24253727235E+03  0.25977947779E+03  0.93064754894E+02 0.  0.
    9000005    2    3    3    0    0 -0.43384679229E+02 -0.47640657959E+01  0.16504022883E+03  0.17083725796E+03  0.64934474485E+01 0.  0.
         22    1    3    3    0    0  0.43384679229E+02  0.47640657959E+01  0.77497043516E+02  0.88942219831E+02  0.00000000000E+00 0.  1.
         22    1    4    4    0    0 -0.24147233933E+02 -0.58566704444E+01  0.91138986657E+02  0.94465360764E+02  0.00000000000E+00 0. -1.
         22    1    4    4    0    0 -0.19237445296E+02  0.10926046486E+01  0.73901242173E+02  0.76371897195E+02  0.00000000000E+00 0. -1.
<mgrwt>
<rscale>  0 0.93064755E+02</rscale>
<asrwt>0</asrwt>
<pdfrwt beam="1">  1        3 0.38639754E-01 0.93064755E+02</pdfrwt>
<pdfrwt beam="2">  1       -3 0.13263234E-02 0.93064755E+02</pdfrwt>
<totfact> 0.24295601E+04</totfact>
</mgrwt>
</event>
<event>
 7    1  0.1312339E-009  0.8912642E+02  0.7818608E-02  0.1304981E+00
         -3   -1    0    0    0  501 -0.00000000000E+00  0.00000000000E+00  0.58476669194E+03  0.58476670066E+03  0.10100000000E+00 0.  1.
          3   -1    0    0  501    0  0.00000000000E+00 -0.00000000000E+00 -0.33952609262E+01  0.33967628349E+01  0.10100000000E+00 0. -1.
         23    2    1    2    0    0 -0.35527136788E-14  0.35527136788E-14  0.58137143101E+03  0.58816346349E+03  0.89126421413E+02 0.  0.
    9000005    2    3    3    0    0  0.24451405699E+02 -0.29065338763E+02  0.44030596539E+03  0.44207400203E+03  0.10835818420E+02 0.  0.
         22    1    3    3    0    0 -0.24451405699E+02  0.29065338763E+02  0.14106546562E+03  0.14608946146E+03  0.00000000000E+00 0. -1.
         22    1    4    4    0    0  0.43326512751E+01 -0.58432811580E+01  0.45875896720E+02  0.46449044141E+02  0.00000000000E+00 0. -1.
         22    1    4    4    0    0  0.20118754424E+02 -0.23222057605E+02  0.39443006867E+03  0.39562495789E+03  0.00000000000E+00 0. -1.
<mgrwt>
<rscale>  0 0.89126421E+02</rscale>
<asrwt>0</asrwt>
<pdfrwt beam="2">  1        3 0.52246441E-03 0.89126421E+02</pdfrwt>
<pdfrwt beam="1">  1       -3 0.89964158E-01 0.89126421E+02</pdfrwt>
<totfact> 0.16930820E+04</totfact>
</mgrwt>
</event>
<event>
 7    1  0.1312339E-009  0.9005605E+02  0.7818608E-02  0.1302716E+00
         -3   -1    0    0    0  501 -0.00000000000E+00  0.00000000000E+00  0.21028478179E+02  0.21028720730E+02  0.10100000000E+00 0.  1.
          3   -1    0    0  501    0  0.00000000000E+00 -0.00000000000E+00 -0.96417135402E+02  0.96417188302E+02  0.10100000000E+00 0. -1.
         23    2    1    2    0    0  0.00000000000E+00  0.00000000000E+00 -0.75388657223E+02  0.11744590903E+03  0.90056048717E+02 0.  0.
    9000005    2    3    3    0    0 -0.76401146004E+01  0.31001749992E+02 -0.77903957738E+02  0.85417693497E+02  0.14410963793E+02 0.  0.
         22    1    3    3    0    0  0.76401146004E+01 -0.31001749992E+02  0.25153005153E+01  0.32028215535E+02  0.00000000000E+00 0.  1.
         22    1    4    4    0    0 -0.10693076590E+02  0.26287858475E+02 -0.71348719624E+02  0.76785631352E+02  0.00000000000E+00 0. -1.
         22    1    4    4    0    0  0.30529619897E+01  0.47138915168E+01 -0.65552381143E+01  0.86320621451E+01  0.00000000000E+00 0. -1.
<mgrwt>
<rscale>  0 0.90056049E+02</rscale>
<asrwt>0</asrwt>
<pdfrwt beam="2">  1        3 0.14833428E-01 0.90056049E+02</pdfrwt>
<pdfrwt beam="1">  1       -3 0.32351733E-02 0.90056049E+02</pdfrwt>
<totfact> 0.34561545E+04</totfact>
</mgrwt>
</event>
<event>
 7    1  0.1312339E-009  0.9067457E+02  0.7818608E-02  0.1301226E+00
         -3   -1    0    0    0  501 -0.00000000000E+00  0.00000000000E+00  0.17833513091E+02  0.17833799095E+02  0.10100000000E+00 0.  1.
          3   -1    0    0  501    0  0.00000000000E+00 -0.00000000000E+00 -0.11525758058E+03  0.11525762484E+03  0.10100000000E+00 0. -1.
         23    2    1    2    0    0  0.00000000000E+00 -0.35527136788E-14 -0.97424067492E+02  0.13309142393E+03  0.90674573047E+02 0.  0.
    9000005    2    3    3    0    0  0.24418791454E+02  0.25404613557E+02 -0.90413859937E+02  0.97163513109E+02  0.49406927489E+01 0.  0.
         22    1    3    3    0    0 -0.24418791454E+02 -0.25404613557E+02 -0.70102075550E+01  0.35927910822E+02  0.00000000000E+00 0. -1.
         22    1    4    4    0    0  0.19388831601E+01  0.34697259898E+01 -0.72800616992E+01  0.82944297391E+01  0.00000000000E+00 0. -1.
         22    1    4    4    0    0  0.22479908294E+02  0.21934887567E+02 -0.83133798238E+02  0.88869083370E+02  0.00000000000E+00 0. -1.
<mgrwt>
<rscale>  0 0.90674573E+02</rscale>
<asrwt>0</asrwt>
<pdfrwt beam="2">  1        3 0.17731960E-01 0.90674573E+02</pdfrwt>
<pdfrwt beam="1">  1       -3 0.27436429E-02 0.90674573E+02</pdfrwt>
<totfact> 0.32861734E+04</totfact>
</mgrwt>
</event>
<event>
 7    1  0.1312339E-009  0.9217537E+02  0.7818608E-02  0.1297668E+00
          3   -1    0    0  501    0  0.00000000000E+00  0.00000000000E+00  0.17165942345E+03  0.17165945316E+03  0.10100000000E+00 0. -1.
         -3   -1    0    0    0  501 -0.00000000000E+00 -0.00000000000E+00 -0.12373535777E+02  0.12373947981E+02  0.10100000000E+00 0.  1.
         23    2    1    2    0    0  0.00000000000E+00  0.00000000000E+00  0.15928588767E+03  0.18403340114E+03  0.92175369405E+02 0.  0.
    9000005    2    3    3    0    0 -0.23839886524E+01 -0.45988244239E+02  0.78009492644E+02  0.90617907788E+02  0.23499487720E+01 0.  0.
         22    1    3    3    0    0  0.23839886524E+01  0.45988244239E+02  0.81276395029E+02  0.93415493356E+02  0.00000000000E+00 0. -1.
         22    1    4    4    0    0  0.31248232440E+00 -0.86551291134E+01  0.13667784457E+02  0.16180767508E+02  0.00000000000E+00 0. -1.
         22    1    4    4    0    0 -0.26964709768E+01 -0.37333115126E+02  0.64341708187E+02  0.74437140280E+02  0.00000000000E+00 0. -1.
<mgrwt>
<rscale>  0 0.92175369E+02</rscale>
<asrwt>0</asrwt>
<pdfrwt beam="1">  1        3 0.26409176E-01 0.92175369E+02</pdfrwt>
<pdfrwt beam="2">  1       -3 0.19036549E-02 0.92175369E+02</pdfrwt>
<totfact> 0.28492882E+04</totfact>
</mgrwt>
</event>
<event>
 7    1  0.1312339E-009  0.9154534E+02  0.7818608E-02  0.1299152E+00
         -3   -1    0    0    0  501 -0.00000000000E+00  0.00000000000E+00  0.38695436462E+03  0.38695437780E+03  0.10100000000E+00 0.  1.
          3   -1    0    0  501    0  0.00000000000E+00 -0.00000000000E+00 -0.54139453383E+01  0.54148873604E+01  0.10100000000E+00 0. -1.
         23    2    1    2    0    0  0.71054273576E-14  0.00000000000E+00  0.38154041928E+03  0.39236926516E+03  0.91545336843E+02 0.  0.
    9000005    2    3    3    0    0  0.40689331568E+02 -0.16217999635E+02  0.14864995894E+03  0.15539540219E+03  0.11501109163E+02 0.  0.
         22    1    3    3    0    0 -0.40689331568E+02  0.16217999635E+02  0.23289046034E+03  0.23697386298E+03  0.00000000000E+00 0. -1.
         22    1    4    4    0    0  0.41332679830E+02 -0.15447808633E+02  0.14286427739E+03  0.14952333252E+03  0.00000000000E+00 0. -1.
         22    1    4    4    0    0 -0.64334826291E+00 -0.77019100189E+00  0.57856815489E+01  0.58720696651E+01  0.00000000000E+00 0. -1.
<mgrwt>
<rscale>  0 0.91545337E+02</rscale>
<asrwt>0</asrwt>
<pdfrwt beam="2">  1        3 0.83298800E-03 0.91545337E+02</pdfrwt>
<pdfrwt beam="1">  1       -3 0.59531524E-01 0.91545337E+02</pdfrwt>
<totfact> 0.20609160E+04</totfact>
</mgrwt>
</event>
<event>
 7    1  0.1312339E-009  0.9027005E+02  0.7818608E-02  0.1302199E+00
          3   -1    0    0  501    0  0.00000000000E+00  0.00000000000E+00  0.37703123958E+02  0.37703259239E+02  0.10100000000E+00 0. -1.
         -3   -1    0    0    0  501 -0.00000000000E+00 -0.00000000000E+00 -0.54031590286E+02  0.54031684684E+02  0.10100000000E+00 0.  1.
         23    2    1    2    0    0  0.00000000000E+00  0.44408920985E-15 -0.16328466327E+02  0.91734943923E+02  0.90270045552E+02 0.  0.
    9000005    2    3    3    0    0 -0.28244508665E+02 -0.32168306234E+01 -0.42621000389E+02  0.53012887981E+02  0.13627778579E+02 0.  0.
         22    1    3    3    0    0  0.28244508665E+02  0.32168306234E+01  0.26292534061E+02  0.38722055942E+02  0.00000000000E+00 0. -1.
         22    1    4    4    0    0 -0.88772531816E+01  0.47554492486E+01 -0.18537281773E+02  0.21096225661E+02  0.00000000000E+00 0. -1.
         22    1    4    4    0    0 -0.19367255483E+02 -0.79722798720E+01 -0.24083718616E+02  0.31916662320E+02  0.00000000000E+00 0. -1.
<mgrwt>
<rscale>  0 0.90270046E+02</rscale>
<asrwt>0</asrwt>
<pdfrwt beam="1">  1        3 0.58004983E-02 0.90270046E+02</pdfrwt>
<pdfrwt beam="2">  1       -3 0.83125700E-02 0.90270046E+02</pdfrwt>
<totfact> 0.36269044E+04</totfact>
</mgrwt>
</event>
<event>
 7    1  0.1312339E-009  0.9064506E+02  0.7818608E-02  0.1301297E+00
         -3   -1    0    0    0  501 -0.00000000000E+00  0.00000000000E+00  0.28484284933E+03  0.28484286723E+03  0.10100000000E+00 0.  1.
          3   -1    0    0  501    0  0.00000000000E+00 -0.00000000000E+00 -0.72110842357E+01  0.72117915149E+01  0.10100000000E+00 0. -1.
         23    2    1    2    0    0  0.17763568394E-14  0.71054273576E-14  0.27763176509E+03  0.29205465875E+03  0.90645058932E+02 0.  0.
    9000005    2    3    3    0    0 -0.14760041001E+02 -0.41405918164E+02  0.16740610436E+03  0.17338703404E+03  0.10293246731E+02 0.  0.
         22    1    3    3    0    0  0.14760041001E+02  0.41405918164E+02  0.11022566074E+03  0.11866762471E+03  0.00000000000E+00 0. -1.
         22    1    4    4    0    0  0.73566981681E+00 -0.16921687380E+00  0.70441124499E+01  0.70844452596E+01  0.00000000000E+00 0.  1.
         22    1    4    4    0    0 -0.15495710818E+02 -0.41236701290E+02  0.16036199191E+03  0.16630258878E+03  0.00000000000E+00 0.  1.
<mgrwt>
<rscale>  0 0.90645059E+02</rscale>
<asrwt>0</asrwt>
<pdfrwt beam="2">  1        3 0.11094534E-02 0.90645059E+02</pdfrwt>
<pdfrwt beam="1">  1       -3 0.43822032E-01 0.90645059E+02</pdfrwt>
<totfact> 0.24719517E+04</totfact>
</mgrwt>
</event>
<event>
 7    1  0.1312339E-009  0.9101237E+02  0.7818608E-02  0.1300418E+00
          3   -1    0    0  501    0  0.00000000000E+00  0.00000000000E+00  0.92949802006E+02  0.92949856879E+02  0.10100000000E+00 0. -1.
         -3   -1    0    0    0  501 -0.00000000000E+00 -0.00000000000E+00 -0.22278653910E+02  0.22278882850E+02  0.10100000000E+00 0.  1.
         23    2    1    2    0    0  0.17763568394E-14  0.00000000000E+00  0.70671148096E+02  0.11522873973E+03  0.91012368865E+02 0.  0.
    9000005    2    3    3    0    0  0.15882334143E+02 -0.63349058062E+01 -0.15849304407E+02  0.27034815501E+02  0.13685803944E+02 0.  0.
         22    1    3    3    0    0 -0.15882334143E+02  0.63349058062E+01  0.86520452503E+02  0.88193924228E+02  0.00000000000E+00 0. -1.
         22    1    4    4    0    0  0.92740984650E+01 -0.87164090506E+01 -0.41464213151E+01  0.13385719958E+02  0.00000000000E+00 0.  1.
         22    1    4    4    0    0  0.66082356783E+01  0.23815032445E+01 -0.11702883092E+02  0.13649095543E+02  0.00000000000E+00 0.  1.
<mgrwt>
<rscale>  0 0.91012369E+02</rscale>
<asrwt>0</asrwt>
<pdfrwt beam="1">  1        3 0.14299991E-01 0.91012369E+02</pdfrwt>
<pdfrwt beam="2">  1       -3 0.34275071E-02 0.91012369E+02</pdfrwt>
<totfact> 0.33741152E+04</totfact>
</mgrwt>
</event>
<event>
 7    1  0.1312339E-009  0.8920414E+02  0.7818608E-02  0.1304791E+00
         -3   -1    0    0    0  501 -0.00000000000E+00  0.00000000000E+00  0.34745813387E+02  0.34745960182E+02  0.10100000000E+00 0.  1.
          3   -1    0    0  501    0  0.00000000000E+00 -0.00000000000E+00 -0.57253916010E+02  0.57254005096E+02  0.10100000000E+00 0. -1.
         23    2    1    2    0    0  0.00000000000E+00 -0.35527136788E-14 -0.22508102623E+02  0.91999965277E+02  0.89204141873E+02 0.  0.
    9000005    2    3    3    0    0  0.15274506146E+02  0.30157781530E+02  0.16757654832E+02  0.40186819905E+02  0.13833263310E+02 0.  0.
         22    1    3    3    0    0 -0.15274506146E+02 -0.30157781530E+02 -0.39265757455E+02  0.51813145372E+02  0.00000000000E+00 0. -1.
         22    1    4    4    0    0  0.12834065550E+02  0.24428593357E+02  0.19071130186E+02  0.33543664357E+02  0.00000000000E+00 0.  1.
         22    1    4    4    0    0  0.24404405963E+01  0.57291881729E+01 -0.23134753536E+01  0.66431555480E+01  0.00000000000E+00 0.  1.
<mgrwt>
<rscale>  0 0.89204142E+02</rscale>
<asrwt>0</asrwt>
<pdfrwt beam="2">  1        3 0.88083129E-02 0.89204142E+02</pdfrwt>
<pdfrwt beam="1">  1       -3 0.53455279E-02 0.89204142E+02</pdfrwt>
<totfact> 0.37435247E+04</totfact>
</mgrwt>
</event>
<event>
 7    1  0.1312339E-009  0.9114777E+02  0.7818608E-02  0.1300096E+00
         -3   -1    0    0    0  501 -0.00000000000E+00  0.00000000000E+00  0.72940460482E+01  0.72947452836E+01  0.10100000000E+00 0.  1.
          3   -1    0    0  501    0  0.00000000000E+00 -0.00000000000E+00 -0.28473557660E+03  0.28473559452E+03  0.10100000000E+00 0. -1.
         23    2    1    2    0    0  0.00000000000E+00  0.17763568394E-14 -0.27744153055E+03  0.29203033980E+03  0.91147772803E+02 0.  0.
    9000005    2    3    3    0    0  0.39303163357E+02 -0.14629734991E+02 -0.91071411481E+02  0.10100000431E+03  0.12175018878E+02 0.  0.
         22    1    3    3    0    0 -0.39303163357E+02  0.14629734991E+02 -0.18637011907E+03  0.19103033549E+03  0.00000000000E+00 0. -1.
         22    1    4    4    0    0  0.14831599053E+02 -0.11958307385E+02 -0.39551552903E+02  0.43901056741E+02  0.00000000000E+00 0.  1.
         22    1    4    4    0    0  0.24471564304E+02 -0.26714276056E+01 -0.51519858579E+02  0.57098947564E+02  0.00000000000E+00 0.  1.
<mgrwt>
<rscale>  0 0.91147773E+02</rscale>
<asrwt>0</asrwt>
<pdfrwt beam="2">  1        3 0.43805520E-01 0.91147773E+02</pdfrwt>
<pdfrwt beam="1">  1       -3 0.11222163E-02 0.91147773E+02</pdfrwt>
<totfact> 0.24363742E+04</totfact>
</mgrwt>
</event>
<event>
 7    1  0.1312339E-009  0.9202906E+02  0.7818608E-02  0.1298011E+00
         -3   -1    0    0    0  501 -0.00000000000E+00  0.00000000000E+00  0.76630956996E+03  0.76630957662E+03  0.10100000000E+00 0.  1.
          3   -1    0    0  501    0  0.00000000000E+00 -0.00000000000E+00 -0.27621011823E+01  0.27639471669E+01  0.10100000000E+00 0. -1.
         23    2    1    2    0    0  0.00000000000E+00  0.00000000000E+00  0.76354746878E+03  0.76907352379E+03  0.92029060121E+02 0.  0.
    9000005    2    3    3    0    0 -0.13461531914E+02  0.27648514944E+02  0.66700245521E+03  0.66774932695E+03  0.71578739096E+01 0.  0.
         22    1    3    3    0    0  0.13461531914E+02 -0.27648514944E+02  0.96545013566E+02  0.10132419684E+03  0.00000000000E+00 0. -1.
         22    1    4    4    0    0 -0.45784597411E+01  0.16655594179E+02  0.33239877518E+03  0.33284728759E+03  0.00000000000E+00 0.  1.
         22    1    4    4    0    0 -0.88830721727E+01  0.10992920765E+02  0.33460368003E+03  0.33490203936E+03  0.00000000000E+00 0.  1.
<mgrwt>
<rscale>  0 0.92029060E+02</rscale>
<asrwt>0</asrwt>
<pdfrwt beam="2">  1        3 0.42508092E-03 0.92029060E+02</pdfrwt>
<pdfrwt beam="1">  1       -3 0.11789399E+00 0.92029060E+02</pdfrwt>
<totfact> 0.12505360E+04</totfact>
</mgrwt>
</event>
<event>
 7    1  0.1312339E-009  0.9134497E+02  0.7818608E-02  0.1299627E+00
         -3   -1    0    0    0  501 -0.00000000000E+00  0.00000000000E+00  0.39499536020E+02  0.39499665147E+02  0.10100000000E+00 0.  1.
          3   -1    0    0  501    0  0.00000000000E+00 -0.00000000000E+00 -0.52809877431E+02  0.52809974013E+02  0.10100000000E+00 0. -1.
         23    2    1    2    0    0  0.00000000000E+00  0.00000000000E+00 -0.13310341411E+02  0.92309639160E+02  0.91344974100E+02 0.  0.
    9000005    2    3    3    0    0  0.21070826124E+02  0.16880025057E+02  0.30415319357E+02  0.40920453829E+02  0.45251442548E+01 0.  0.
         22    1    3    3    0    0 -0.21070826124E+02 -0.16880025057E+02 -0.43725660768E+02  0.51389185331E+02  0.00000000000E+00 0. -1.
         22    1    4    4    0    0  0.15452755345E+02  0.14605074665E+02  0.22595636805E+02  0.31026740988E+02  0.00000000000E+00 0. -1.
         22    1    4    4    0    0  0.56180707785E+01  0.22749503911E+01  0.78196825519E+01  0.98937128404E+01  0.00000000000E+00 0. -1.
<mgrwt>
<rscale>  0 0.91344974E+02</rscale>
<asrwt>0</asrwt>
<pdfrwt beam="2">  1        3 0.81246139E-02 0.91344974E+02</pdfrwt>
<pdfrwt beam="1">  1       -3 0.60768691E-02 0.91344974E+02</pdfrwt>
<totfact> 0.35075194E+04</totfact>
</mgrwt>
</event>
<event>
 7    1  0.1312339E-009  0.9127393E+02  0.7818608E-02  0.1299796E+00
          3   -1    0    0  501    0  0.00000000000E+00  0.00000000000E+00  0.39266109587E+01  0.39279097012E+01  0.10100000000E+00 0. -1.
         -3   -1    0    0    0  501 -0.00000000000E+00 -0.00000000000E+00 -0.53032581482E+03  0.53032582444E+03  0.10100000000E+00 0.  1.
         23    2    1    2    0    0 -0.17763568394E-14  0.00000000000E+00 -0.52639920386E+03  0.53425373414E+03  0.91273931742E+02 0.  0.
    9000005    2    3    3    0    0  0.12225108059E+02 -0.15122087879E+02 -0.50452791466E+03  0.50498798453E+03  0.92906964742E+01 0.  0.
         22    1    3    3    0    0 -0.12225108059E+02  0.15122087879E+02 -0.21871289208E+02  0.29265749615E+02  0.00000000000E+00 0. -1.
         22    1    4    4    0    0  0.98128711265E+01 -0.53073333584E+01 -0.22328828198E+03  0.22356680679E+03  0.00000000000E+00 0. -1.
         22    1    4    4    0    0  0.24122369321E+01 -0.98147545208E+01 -0.28123963267E+03  0.28142117774E+03  0.00000000000E+00 0. -1.
<mgrwt>
<rscale>  0 0.91273932E+02</rscale>
<asrwt>0</asrwt>
<pdfrwt beam="1">  1        3 0.60419506E-03 0.91273932E+02</pdfrwt>
<pdfrwt beam="2">  1       -3 0.81588631E-01 0.91273932E+02</pdfrwt>
<totfact> 0.17041030E+04</totfact>
</mgrwt>
</event>
<event>
 7    1  0.1312339E-009  0.9191372E+02  0.7818608E-02  0.1298282E+00
         -3   -1    0    0    0  501 -0.00000000000E+00  0.00000000000E+00  0.29854699281E+02  0.29854870124E+02  0.10100000000E+00 0.  1.
          3   -1    0    0  501    0  0.00000000000E+00 -0.00000000000E+00 -0.70743327814E+02  0.70743399913E+02  0.10100000000E+00 0. -1.
         23    2    1    2    0    0 -0.71054273576E-14  0.00000000000E+00 -0.40888628534E+02  0.10059827004E+03  0.91913720364E+02 0.  0.
    9000005    2    3    3    0    0  0.32426539990E+02 -0.18646616272E+02  0.70445115892E+01  0.39797260866E+02  0.11619812166E+02 0.  0.
         22    1    3    3    0    0 -0.32426539990E+02  0.18646616272E+02 -0.47933140123E+02  0.60801009171E+02  0.00000000000E+00 0. -1.
         22    1    4    4    0    0  0.26393898311E+02 -0.18094771921E+02  0.22649927866E+01  0.32080973041E+02  0.00000000000E+00 0.  1.
         22    1    4    4    0    0  0.60326416796E+01 -0.55184435114E+00  0.47795188026E+01  0.77162878255E+01  0.00000000000E+00 0.  1.
<mgrwt>
<rscale>  0 0.91913720E+02</rscale>
<asrwt>0</asrwt>
<pdfrwt beam="2">  1        3 0.10883608E-01 0.91913720E+02</pdfrwt>
<pdfrwt beam="1">  1       -3 0.45930493E-02 0.91913720E+02</pdfrwt>
<totfact> 0.33874763E+04</totfact>
</mgrwt>
</event>
<event>
 7    1  0.1525136E-009  0.9016659E+02  0.7818608E-02  0.1302449E+00
         -3   -1    0    0    0  501 -0.00000000000E+00  0.00000000000E+00  0.82745505137E+02  0.82745566778E+02  0.10100000000E+00 0.  1.
          3   -1    0    0  501    0  0.00000000000E+00 -0.00000000000E+00 -0.24563134906E+02  0.24563342554E+02  0.10100000000E+00 0. -1.
         23    2    1    2    0    0 -0.36082248300E-15  0.00000000000E+00  0.58182370231E+02  0.10730890933E+03  0.90166589246E+02 0.  0.
    9000005    2    3    3    0    0 -0.23077350090E+00  0.42951589597E+02  0.20422346751E+02  0.50118773132E+02  0.15809075499E+02 0.  0.
         22    1    3    3    0    0  0.23077350090E+00 -0.42951589597E+02  0.37760023480E+02  0.57190136199E+02  0.00000000000E+00 0.  1.
         22    1    4    4    0    0  0.43685398690E+01  0.43341161127E+01  0.61281703248E+01  0.86846516680E+01  0.00000000000E+00 0.  1.
         22    1    4    4    0    0 -0.45993133699E+01  0.38617473485E+02  0.14294176427E+02  0.41434121464E+02  0.00000000000E+00 0.  1.
<mgrwt>
<rscale>  0 0.90166589E+02</rscale>
<asrwt>0</asrwt>
<pdfrwt beam="2">  1        3 0.37789645E-02 0.90166589E+02</pdfrwt>
<pdfrwt beam="1">  1       -3 0.12730098E-01 0.90166589E+02</pdfrwt>
<totfact> 0.35187274E+04</totfact>
</mgrwt>
</event>
<event>
 7    1  0.1312339E-009  0.9137858E+02  0.7818608E-02  0.1299547E+00
          3   -1    0    0  501    0  0.00000000000E+00  0.00000000000E+00  0.33817094993E+02  0.33817245819E+02  0.10100000000E+00 0. -1.
         -3   -1    0    0    0  501 -0.00000000000E+00 -0.00000000000E+00 -0.61729139440E+02  0.61729222067E+02  0.10100000000E+00 0.  1.
         23    2    1    2    0    0  0.00000000000E+00  0.00000000000E+00 -0.27912044448E+02  0.95546467886E+02  0.91378582284E+02 0.  0.
    9000005    2    3    3    0    0  0.27564878932E+02 -0.34969429836E+02 -0.60837188928E+01  0.45956555907E+02  0.96078000480E+01 0.  0.
         22    1    3    3    0    0 -0.27564878932E+02  0.34969429836E+02 -0.21828325555E+02  0.49589911979E+02  0.00000000000E+00 0.  1.
         22    1    4    4    0    0  0.11964386791E+01 -0.29791663601E+01  0.19105864024E+01  0.37359387194E+01  0.00000000000E+00 0.  1.
         22    1    4    4    0    0  0.26368440253E+02 -0.31990263475E+02 -0.79943052952E+01  0.42220617188E+02  0.00000000000E+00 0.  1.
<mgrwt>
<rscale>  0 0.91378582E+02</rscale>
<asrwt>0</asrwt>
<pdfrwt beam="1">  1        3 0.52026480E-02 0.91378582E+02</pdfrwt>
<pdfrwt beam="2">  1       -3 0.94968086E-02 0.91378582E+02</pdfrwt>
<totfact> 0.34795422E+04</totfact>
</mgrwt>
</event>
<event>
 7    1  0.1312339E-009  0.9042799E+02  0.7818608E-02  0.1301819E+00
          3   -1    0    0  501    0  0.00000000000E+00  0.00000000000E+00  0.78140306651E+02  0.78140371925E+02  0.10100000000E+00 0. -1.
         -3   -1    0    0    0  501 -0.00000000000E+00 -0.00000000000E+00 -0.26161810698E+02  0.26162005657E+02  0.10100000000E+00 0.  1.
         23    2    1    2    0    0  0.00000000000E+00  0.17763568394E-14  0.51978495953E+02  0.10430237758E+03  0.90427993054E+02 0.  0.
    9000005    2    3    3    0    0  0.28935244988E+02  0.14631097002E+02 -0.76817111700E+01  0.36400553483E+02  0.14651764583E+02 0.  0.
         22    1    3    3    0    0 -0.28935244988E+02 -0.14631097002E+02  0.59660207123E+02  0.67901824099E+02  0.00000000000E+00 0. -1.
         22    1    4    4    0    0  0.18154426805E+00  0.14896632234E+01 -0.43612539845E+01  0.46122219328E+01  0.00000000000E+00 0.  1.
         22    1    4    4    0    0  0.28753700720E+02  0.13141433779E+02 -0.33204571856E+01  0.31788331551E+02  0.00000000000E+00 0.  1.
<mgrwt>
<rscale>  0 0.90427993E+02</rscale>
<asrwt>0</asrwt>
<pdfrwt beam="1">  1        3 0.12021605E-01 0.90427993E+02</pdfrwt>
<pdfrwt beam="2">  1       -3 0.40249141E-02 0.90427993E+02</pdfrwt>
<totfact> 0.35133178E+04</totfact>
</mgrwt>
</event>
<event>
 7    1  0.1312339E-009  0.8915852E+02  0.7818608E-02  0.1304902E+00
         -3   -1    0    0    0  501 -0.00000000000E+00  0.00000000000E+00  0.12555036616E+02  0.12555442861E+02  0.10100000000E+00 0.  1.
          3   -1    0    0  501    0  0.00000000000E+00 -0.00000000000E+00 -0.15828492664E+03  0.15828495886E+03  0.10100000000E+00 0. -1.
         23    2    1    2    0    0  0.00000000000E+00 -0.35527136788E-14 -0.14572989002E+03  0.17084040173E+03  0.89158521831E+02 0.  0.
    9000005    2    3    3    0    0  0.99459708321E+01 -0.28224357818E+02 -0.10981798728E+02  0.32809300816E+02  0.77661835355E+01 0.  0.
         22    1    3    3    0    0 -0.99459708321E+01  0.28224357818E+02 -0.13474809130E+03  0.13803110091E+03  0.00000000000E+00 0. -1.
         22    1    4    4    0    0  0.43817851533E+01 -0.21290057638E+02 -0.57125548077E+01  0.22474427196E+02  0.00000000000E+00 0.  1.
         22    1    4    4    0    0  0.55641856788E+01 -0.69343001807E+01 -0.52692439202E+01  0.10334873621E+02  0.00000000000E+00 0.  1.
<mgrwt>
<rscale>  0 0.89158522E+02</rscale>
<asrwt>0</asrwt>
<pdfrwt beam="2">  1        3 0.24351559E-01 0.89158522E+02</pdfrwt>
<pdfrwt beam="1">  1       -3 0.19315779E-02 0.89158522E+02</pdfrwt>
<totfact> 0.31949874E+04</totfact>
</mgrwt>
</event>
<event>
 7    1  0.1312339E-009  0.9959359E+02  0.7818608E-02  0.1281153E+00
          3   -1    0    0  501    0  0.00000000000E+00  0.00000000000E+00  0.28040223359E+03  0.28040225178E+03  0.10100000000E+00 0. -1.
         -3   -1    0    0    0  501 -0.00000000000E+00 -0.00000000000E+00 -0.88431343260E+01  0.88437110823E+01  0.10100000000E+00 0.  1.
         23    2    1    2    0    0  0.00000000000E+00  0.00000000000E+00  0.27155909927E+03  0.28924596286E+03  0.99593587339E+02 0.  0.
    9000005    2    3    3    0    0 -0.16211833190E+02  0.29573182393E+02  0.24094441277E+03  0.24369757451E+03  0.14032146148E+02 0.  0.
         22    1    3    3    0    0  0.16211833190E+02 -0.29573182393E+02  0.30614686494E+02  0.45548388351E+02  0.00000000000E+00 0.  1.
         22    1    4    4    0    0 -0.17718437945E+02  0.25120615258E+02  0.22448833471E+03  0.22658331972E+03  0.00000000000E+00 0.  1.
         22    1    4    4    0    0  0.15066047550E+01  0.44525671354E+01  0.16456078064E+02  0.17114254796E+02  0.00000000000E+00 0.  1.
<mgrwt>
<rscale>  0 0.99593587E+02</rscale>
<asrwt>0</asrwt>
<pdfrwt beam="1">  1        3 0.43138854E-01 0.99593587E+02</pdfrwt>
<pdfrwt beam="2">  1       -3 0.13605279E-02 0.99593587E+02</pdfrwt>
<totfact> 0.19264001E+04</totfact>
</mgrwt>
</event>
<event>
 7    1  0.1312339E-009  0.9113671E+02  0.7818608E-02  0.1300122E+00
         -3   -1    0    0    0  501 -0.00000000000E+00  0.00000000000E+00  0.40511162226E+01  0.40523750627E+01  0.10100000000E+00 0.  1.
          3   -1    0    0  501    0  0.00000000000E+00 -0.00000000000E+00 -0.51248776370E+03  0.51248777366E+03  0.10100000000E+00 0. -1.
         23    2    1    2    0    0  0.35527136788E-14  0.00000000000E+00 -0.50843664748E+03  0.51654014872E+03  0.91136714537E+02 0.  0.
    9000005    2    3    3    0    0 -0.27851592434E+02 -0.83380050823E+01 -0.45091771641E+03  0.45209124677E+03  0.14644961972E+02 0.  0.
         22    1    3    3    0    0  0.27851592434E+02  0.83380050823E+01 -0.57518931076E+02  0.64448901945E+02  0.00000000000E+00 0. -1.
         22    1    4    4    0    0 -0.36099016369E+01  0.23737180211E+01 -0.13320444874E+03  0.13327449527E+03  0.00000000000E+00 0.  1.
         22    1    4    4    0    0 -0.24241690797E+02 -0.10711723103E+02 -0.31771326767E+03  0.31881675150E+03  0.00000000000E+00 0.  1.
<mgrwt>
<rscale>  0 0.91136715E+02</rscale>
<asrwt>0</asrwt>
<pdfrwt beam="2">  1        3 0.78844318E-01 0.91136715E+02</pdfrwt>
<pdfrwt beam="1">  1       -3 0.62334665E-03 0.91136715E+02</pdfrwt>
<totfact> 0.17539489E+04</totfact>
</mgrwt>
</event>
<event>
 7    1  0.1312339E-009  0.9589361E+02  0.7818608E-02  0.1289176E+00
         -3   -1    0    0    0  501 -0.00000000000E+00  0.00000000000E+00  0.99838155940E+02  0.99838207028E+02  0.10100000000E+00 0.  1.
          3   -1    0    0  501    0  0.00000000000E+00 -0.00000000000E+00 -0.23026061550E+02  0.23026283059E+02  0.10100000000E+00 0. -1.
         23    2    1    2    0    0  0.00000000000E+00  0.00000000000E+00  0.76812094390E+02  0.12286449009E+03  0.95893613342E+02 0.  0.
    9000005    2    3    3    0    0  0.66941369248E+01  0.45981959189E+02  0.50848870960E+02  0.69636292570E+02  0.10220250731E+02 0.  0.
         22    1    3    3    0    0 -0.66941369248E+01 -0.45981959189E+02  0.25963223430E+02  0.53228197517E+02  0.00000000000E+00 0. -1.
         22    1    4    4    0    0  0.93493571726E+01  0.38075616525E+02  0.42855374035E+02  0.58083957656E+02  0.00000000000E+00 0.  1.
         22    1    4    4    0    0 -0.26552202477E+01  0.79063426641E+01  0.79934969253E+01  0.11552334915E+02  0.00000000000E+00 0.  1.
<mgrwt>
<rscale>  0 0.95893613E+02</rscale>
<asrwt>0</asrwt>
<pdfrwt beam="2">  1        3 0.35424920E-02 0.95893613E+02</pdfrwt>
<pdfrwt beam="1">  1       -3 0.15359737E-01 0.95893613E+02</pdfrwt>
<totfact> 0.28805590E+04</totfact>
</mgrwt>
</event>
<event>
 7    1  0.1312339E-009  0.9235180E+02  0.7818608E-02  0.1297254E+00
          3   -1    0    0  501    0  0.00000000000E+00  0.00000000000E+00  0.39471159703E+02  0.39471288924E+02  0.10100000000E+00 0. -1.
         -3   -1    0    0    0  501 -0.00000000000E+00 -0.00000000000E+00 -0.54019271344E+02  0.54019365764E+02  0.10100000000E+00 0.  1.
         23    2    1    2    0    0 -0.71054273576E-14 -0.11102230246E-15 -0.14548111641E+02  0.93490654688E+02  0.92351799991E+02 0.  0.
    9000005    2    3    3    0    0 -0.36833201930E+02  0.58454017539E+00 -0.33531743712E+02  0.52049072452E+02  0.15089786449E+02 0.  0.
         22    1    3    3    0    0  0.36833201930E+02 -0.58454017539E+00  0.18983632071E+02  0.41441582236E+02  0.00000000000E+00 0. -1.
         22    1    4    4    0    0 -0.10114921043E+02 -0.60671432538E+01 -0.13917421782E+02  0.18243258592E+02  0.00000000000E+00 0.  1.
         22    1    4    4    0    0 -0.26718280887E+02  0.66516834292E+01 -0.19614321930E+02  0.33805813860E+02  0.00000000000E+00 0.  1.
<mgrwt>
<rscale>  0 0.92351800E+02</rscale>
<asrwt>0</asrwt>
<pdfrwt beam="1">  1        3 0.60725033E-02 0.92351800E+02</pdfrwt>
<pdfrwt beam="2">  1       -3 0.83106744E-02 0.92351800E+02</pdfrwt>
<totfact> 0.33954264E+04</totfact>
</mgrwt>
</event>
<event>
 7    1  0.1312339E-009  0.8630731E+02  0.7818608E-02  0.1312049E+00
         -3   -1    0    0    0  501 -0.00000000000E+00  0.00000000000E+00  0.37861458581E+03  0.37861459928E+03  0.10100000000E+00 0.  1.
          3   -1    0    0  501    0  0.00000000000E+00 -0.00000000000E+00 -0.49180258671E+01  0.49190628609E+01  0.10100000000E+00 0. -1.
         23    2    1    2    0    0  0.71054273576E-14 -0.35527136788E-14  0.37369655994E+03  0.38353366214E+03  0.86307306082E+02 0.  0.
    9000005    2    3    3    0    0 -0.35267381571E+02  0.22032474567E+02  0.14574848150E+03  0.15182361789E+03  0.88641386126E+01 0.  0.
         22    1    3    3    0    0  0.35267381571E+02 -0.22032474567E+02  0.22794807845E+03  0.23171004425E+03  0.00000000000E+00 0.  1.
         22    1    4    4    0    0 -0.21812736439E+02  0.17582688565E+02  0.10534374302E+03  0.10900573655E+03  0.00000000000E+00 0.  1.
         22    1    4    4    0    0 -0.13454645132E+02  0.44497860021E+01  0.40404738477E+02  0.42817881340E+02  0.00000000000E+00 0.  1.
<mgrwt>
<rscale>  0 0.86307306E+02</rscale>
<asrwt>0</asrwt>
<pdfrwt beam="2">  1        3 0.75670006E-03 0.86307306E+02</pdfrwt>
<pdfrwt beam="1">  1       -3 0.58248487E-01 0.86307306E+02</pdfrwt>
<totfact> 0.24432305E+04</totfact>
</mgrwt>
</event>
<event>
 7    1  0.1312339E-009  0.9210571E+02  0.7818608E-02  0.1297831E+00
          3   -1    0    0  501    0  0.00000000000E+00  0.00000000000E+00  0.86259205830E+02  0.86259264960E+02  0.10100000000E+00 0. -1.
         -3   -1    0    0    0  501 -0.00000000000E+00 -0.00000000000E+00 -0.24586946166E+02  0.24587153613E+02  0.10100000000E+00 0.  1.
         23    2    1    2    0    0  0.00000000000E+00 -0.35527136788E-14  0.61672259664E+02  0.11084641857E+03  0.92105705026E+02 0.  0.
    9000005    2    3    3    0    0  0.41688228092E+02 -0.17597569748E+02  0.28600844782E+02  0.54799105481E+02  0.11719676478E+02 0.  0.
         22    1    3    3    0    0 -0.41688228092E+02  0.17597569748E+02  0.33071414882E+02  0.56047313092E+02  0.00000000000E+00 0.  1.
         22    1    4    4    0    0  0.41780987618E+02 -0.18038623398E+02  0.29183722493E+02  0.54062302198E+02  0.00000000000E+00 0.  1.
         22    1    4    4    0    0 -0.92759525410E-01  0.44105365060E+00 -0.58287771057E+00  0.73680328293E+00  0.00000000000E+00 0.  1.
<mgrwt>
<rscale>  0 0.92105705E+02</rscale>
<asrwt>0</asrwt>
<pdfrwt beam="1">  1        3 0.13270667E-01 0.92105705E+02</pdfrwt>
<pdfrwt beam="2">  1       -3 0.37826276E-02 0.92105705E+02</pdfrwt>
<totfact> 0.32961673E+04</totfact>
</mgrwt>
</event>
<event>
 7    1  0.1312339E-009  0.9456242E+02  0.7818608E-02  0.1292165E+00
         -3   -1    0    0    0  501 -0.00000000000E+00  0.00000000000E+00  0.18436272459E+03  0.18436275226E+03  0.10100000000E+00 0.  1.
          3   -1    0    0  501    0  0.00000000000E+00 -0.00000000000E+00 -0.12125382484E+02  0.12125803123E+02  0.10100000000E+00 0. -1.
         23    2    1    2    0    0  0.00000000000E+00  0.00000000000E+00  0.17223734211E+03  0.19648855538E+03  0.94562415257E+02 0.  0.
    9000005    2    3    3    0    0 -0.34201669034E+02  0.28239857292E+02  0.11902276269E+03  0.12721348651E+03  0.70433945589E+01 0.  0.
         22    1    3    3    0    0  0.34201669034E+02 -0.28239857292E+02  0.53214579421E+02  0.69275068875E+02  0.00000000000E+00 0. -1.
         22    1    4    4    0    0 -0.17748540160E+02  0.17412272414E+02  0.74173618985E+02  0.78229940955E+02  0.00000000000E+00 0.  1.
         22    1    4    4    0    0 -0.16453128874E+02  0.10827584878E+02  0.44849143703E+02  0.48983545553E+02  0.00000000000E+00 0.  1.
<mgrwt>
<rscale>  0 0.94562415E+02</rscale>
<asrwt>0</asrwt>
<pdfrwt beam="2">  1        3 0.18654781E-02 0.94562415E+02</pdfrwt>
<pdfrwt beam="1">  1       -3 0.28363528E-01 0.94562415E+02</pdfrwt>
<totfact> 0.25983822E+04</totfact>
</mgrwt>
</event>
<event>
 7    1  0.1312339E-009  0.8928733E+02  0.7818608E-02  0.1304587E+00
         -3   -1    0    0    0  501 -0.00000000000E+00  0.00000000000E+00  0.22609534955E+02  0.22609760545E+02  0.10100000000E+00 0.  1.
          3   -1    0    0  501    0  0.00000000000E+00 -0.00000000000E+00 -0.88150476879E+02  0.88150534740E+02  0.10100000000E+00 0. -1.
         23    2    1    2    0    0  0.00000000000E+00  0.17763568394E-14 -0.65540941924E+02  0.11076029528E+03  0.89287333611E+02 0.  0.
    9000005    2    3    3    0    0  0.39754760496E+02 -0.12243768322E+02 -0.14185017156E+02  0.44671099091E+02  0.79963452555E+01 0.  0.
         22    1    3    3    0    0 -0.39754760496E+02  0.12243768322E+02 -0.51355924767E+02  0.66089196194E+02  0.00000000000E+00 0. -1.
         22    1    4    4    0    0  0.92544634346E+01 -0.21884919944E+01  0.12879527363E+00  0.95105824687E+01  0.00000000000E+00 0. -1.
         22    1    4    4    0    0  0.30500297061E+02 -0.10055276328E+02 -0.14313812430E+02  0.35160516622E+02  0.00000000000E+00 0. -1.
<mgrwt>
<rscale>  0 0.89287334E+02</rscale>
<asrwt>0</asrwt>
<pdfrwt beam="2">  1        3 0.13561633E-01 0.89287334E+02</pdfrwt>
<pdfrwt beam="1">  1       -3 0.34784119E-02 0.89287334E+02</pdfrwt>
<totfact> 0.35870118E+04</totfact>
</mgrwt>
</event>
<event>
 7    1  0.1312339E-009  0.9291022E+02  0.7818608E-02  0.1295953E+00
         -3   -1    0    0    0  501 -0.00000000000E+00  0.00000000000E+00  0.28356977739E+02  0.28357157606E+02  0.10100000000E+00 0.  1.
          3   -1    0    0  501    0  0.00000000000E+00 -0.00000000000E+00 -0.76103474156E+02  0.76103541177E+02  0.10100000000E+00 0. -1.
         23    2    1    2    0    0  0.00000000000E+00  0.00000000000E+00 -0.47746496417E+02  0.10446069878E+03  0.92910223712E+02 0.  0.
    9000005    2    3    3    0    0  0.35680838661E+02  0.37795227149E+00 -0.56799466076E+02  0.67647367568E+02  0.87591036614E+01 0.  0.
         22    1    3    3    0    0 -0.35680838661E+02 -0.37795227149E+00  0.90529696590E+01  0.36813331215E+02  0.00000000000E+00 0.  1.
         22    1    4    4    0    0  0.31873717056E+02 -0.80428566700E+00 -0.44684658819E+02  0.54893528290E+02  0.00000000000E+00 0. -1.
         22    1    4    4    0    0  0.38071216052E+01  0.11822379385E+01 -0.12114807257E+02  0.12753839278E+02  0.00000000000E+00 0. -1.
<mgrwt>
<rscale>  0 0.92910224E+02</rscale>
<asrwt>0</asrwt>
<pdfrwt beam="2">  1        3 0.11708246E-01 0.92910224E+02</pdfrwt>
<pdfrwt beam="1">  1       -3 0.43626310E-02 0.92910224E+02</pdfrwt>
<totfact> 0.32623806E+04</totfact>
</mgrwt>
</event>
<event>
 7    1  0.1312339E-009  0.6598620E+02  0.7818608E-02  0.1374300E+00
         -3   -1    0    0    0  501 -0.00000000000E+00  0.00000000000E+00  0.70824960884E+03  0.70824961604E+03  0.10100000000E+00 0.  1.
          3   -1    0    0  501    0  0.00000000000E+00 -0.00000000000E+00 -0.15352840735E+01  0.15386026734E+01  0.10100000000E+00 0. -1.
         23    2    1    2    0    0  0.00000000000E+00  0.00000000000E+00  0.70671432477E+03  0.70978821872E+03  0.65986200045E+02 0.  0.
    9000005    2    3    3    0    0 -0.19921957284E+02  0.31116116596E+01  0.62874011766E+03  0.62924913825E+03  0.15289732405E+02 0.  0.
         22    1    3    3    0    0  0.19921957284E+02 -0.31116116596E+01  0.77974207105E+02  0.80539080469E+02  0.00000000000E+00 0. -1.
         22    1    4    4    0    0 -0.19967711027E+02  0.65867330745E+01  0.58214524556E+03  0.58252483335E+03  0.00000000000E+00 0. -1.
         22    1    4    4    0    0  0.45753743026E-01 -0.34751214149E+01  0.46594872104E+02  0.46724304903E+02  0.00000000000E+00 0. -1.
<mgrwt>
<rscale>  0 0.65986200E+02</rscale>
<asrwt>0</asrwt>
<pdfrwt beam="2">  1        3 0.23645349E-03 0.65986200E+02</pdfrwt>
<pdfrwt beam="1">  1       -3 0.10896168E+00 0.65986200E+02</pdfrwt>
<totfact> 0.31927244E+04</totfact>
</mgrwt>
</event>
<event>
 7    1  0.1312339E-009  0.9198580E+02  0.7818608E-02  0.1298113E+00
         -3   -1    0    0    0  501 -0.00000000000E+00  0.00000000000E+00  0.79151191850E+02  0.79151256290E+02  0.10100000000E+00 0.  1.
          3   -1    0    0  501    0  0.00000000000E+00 -0.00000000000E+00 -0.26725223621E+02  0.26725414470E+02  0.10100000000E+00 0. -1.
         23    2    1    2    0    0  0.00000000000E+00  0.00000000000E+00  0.52425968229E+02  0.10587667076E+03  0.91985799266E+02 0.  0.
    9000005    2    3    3    0    0  0.10168121192E+02  0.43768313183E+01  0.77420960278E+02  0.78539937809E+02  0.72089804885E+01 0.  0.
         22    1    3    3    0    0 -0.10168121192E+02 -0.43768313183E+01 -0.24994992049E+02  0.27336732952E+02  0.00000000000E+00 0. -1.
         22    1    4    4    0    0  0.26133516513E+01  0.48646787437E+01  0.27593138437E+02  0.28140291309E+02  0.00000000000E+00 0. -1.
         22    1    4    4    0    0  0.75547695405E+01 -0.48784742545E+00  0.49827821841E+02  0.50399646500E+02  0.00000000000E+00 0. -1.
<mgrwt>
<rscale>  0 0.91985799E+02</rscale>
<asrwt>0</asrwt>
<pdfrwt beam="2">  1        3 0.41115926E-02 0.91985799E+02</pdfrwt>
<pdfrwt beam="1">  1       -3 0.12177126E-01 0.91985799E+02</pdfrwt>
<totfact> 0.33427753E+04</totfact>
</mgrwt>
</event>
<event>
 7    1  0.1312339E-009  0.9257973E+02  0.7818608E-02  0.1296722E+00
          3   -1    0    0  501    0  0.00000000000E+00  0.00000000000E+00  0.10926556283E+03  0.10926560951E+03  0.10100000000E+00 0. -1.
         -3   -1    0    0    0  501 -0.00000000000E+00 -0.00000000000E+00 -0.19610312378E+02  0.19610572469E+02  0.10100000000E+00 0.  1.
         23    2    1    2    0    0  0.00000000000E+00  0.00000000000E+00  0.89655250455E+02  0.12887618198E+03  0.92579729684E+02 0.  0.
    9000005    2    3    3    0    0 -0.28771070429E+02  0.19318277362E+02  0.86848646551E+02  0.94107699714E+02  0.10611380862E+02 0.  0.
         22    1    3    3    0    0  0.28771070429E+02 -0.19318277362E+02  0.28066039042E+01  0.34768482269E+02  0.00000000000E+00 0.  1.
         22    1    4    4    0    0 -0.83324144239E+01  0.12461059815E+01  0.14282119276E+02  0.16581943229E+02  0.00000000000E+00 0.  1.
         22    1    4    4    0    0 -0.20438656005E+02  0.18072171380E+02  0.72566527276E+02  0.77525756485E+02  0.00000000000E+00 0.  1.
<mgrwt>
<rscale>  0 0.92579730E+02</rscale>
<asrwt>0</asrwt>
<pdfrwt beam="1">  1        3 0.16810110E-01 0.92579730E+02</pdfrwt>
<pdfrwt beam="2">  1       -3 0.30169947E-02 0.92579730E+02</pdfrwt>
<totfact> 0.31321550E+04</totfact>
</mgrwt>
</event>
<event>
 7    1  0.1312339E-009  0.9203175E+02  0.7818608E-02  0.1298005E+00
          3   -1    0    0  501    0  0.00000000000E+00  0.00000000000E+00  0.99374363497E+02  0.99374414823E+02  0.10100000000E+00 0. -1.
         -3   -1    0    0    0  501 -0.00000000000E+00 -0.00000000000E+00 -0.21307740926E+02  0.21307980297E+02  0.10100000000E+00 0.  1.
         23    2    1    2    0    0  0.00000000000E+00  0.17763568394E-14  0.78066622571E+02  0.12068239512E+03  0.92031749588E+02 0.  0.
    9000005    2    3    3    0    0 -0.42533458911E+02  0.14670362741E+02  0.49189480006E+02  0.67220221271E+02  0.86393596184E+01 0.  0.
         22    1    3    3    0    0  0.42533458911E+02 -0.14670362741E+02  0.28877142565E+02  0.53462173849E+02  0.00000000000E+00 0. -1.
         22    1    4    4    0    0 -0.79709021975E+01  0.25432823797E+01  0.47142180697E+01  0.96035107702E+01  0.00000000000E+00 0.  1.
         22    1    4    4    0    0 -0.34562556714E+02  0.12127080361E+02  0.44475261936E+02  0.57616710501E+02  0.00000000000E+00 0.  1.
<mgrwt>
<rscale>  0 0.92031750E+02</rscale>
<asrwt>0</asrwt>
<pdfrwt beam="1">  1        3 0.15288386E-01 0.92031750E+02</pdfrwt>
<pdfrwt beam="2">  1       -3 0.32781364E-02 0.92031750E+02</pdfrwt>
<totfact> 0.32367026E+04</totfact>
</mgrwt>
</event>
<event>
 7    1  0.1312339E-009  0.9314543E+02  0.7818608E-02  0.1295409E+00
         -3   -1    0    0    0  501 -0.00000000000E+00  0.00000000000E+00  0.71850944815E+02  0.71851015802E+02  0.10100000000E+00 0. -1.
          3   -1    0    0  501    0  0.00000000000E+00 -0.00000000000E+00 -0.30187569430E+02  0.30187738390E+02  0.10100000000E+00 0.  1.
         23    2    1    2    0    0  0.00000000000E+00  0.00000000000E+00  0.41663375384E+02  0.10203875419E+03  0.93145426665E+02 0.  0.
    9000005    2    3    3    0    0 -0.37750669333E+01 -0.41717996744E+02  0.42879140305E+02  0.60132663142E+02  0.47617350447E+01 0.  0.
         22    1    3    3    0    0  0.37750669333E+01  0.41717996744E+02 -0.12157649201E+01  0.41906091050E+02  0.00000000000E+00 0.  1.
         22    1    4    4    0    0 -0.38349734265E+01 -0.23982679602E+02  0.22381890611E+02  0.33027639476E+02  0.00000000000E+00 0. -1.
         22    1    4    4    0    0  0.59906493236E-01 -0.17735317143E+02  0.20497249694E+02  0.27105023666E+02  0.00000000000E+00 0. -1.
<mgrwt>
<rscale>  0 0.93145427E+02</rscale>
<asrwt>0</asrwt>
<pdfrwt beam="2">  1        3 0.46442599E-02 0.93145427E+02</pdfrwt>
<pdfrwt beam="1">  1       -3 0.11054010E-01 0.93145427E+02</pdfrwt>
<totfact> 0.32566880E+04</totfact>
</mgrwt>
</event>
<event>
 7    1  0.1312339E-009  0.9616608E+02  0.7818608E-02  0.1288571E+00
          3   -1    0    0  501    0  0.00000000000E+00  0.00000000000E+00  0.35594915313E+03  0.35594916746E+03  0.10100000000E+00 0. -1.
         -3   -1    0    0    0  501 -0.00000000000E+00 -0.00000000000E+00 -0.64948423085E+01  0.64956275765E+01  0.10100000000E+00 0.  1.
         23    2    1    2    0    0 -0.22204460493E-15  0.35527136788E-14  0.34945431082E+03  0.36244479503E+03  0.96166075602E+02 0.  0.
    9000005    2    3    3    0    0 -0.14284356211E+01 -0.22785290881E+02  0.33399019344E+03  0.33487037146E+03  0.82162315804E+01 0.  0.
         22    1    3    3    0    0  0.14284356211E+01  0.22785290881E+02  0.15464117377E+02  0.27574423568E+02  0.00000000000E+00 0.  1.
         22    1    4    4    0    0 -0.45709572237E+01 -0.88022427577E+01  0.14209333166E+03  0.14243906777E+03  0.00000000000E+00 0. -1.
         22    1    4    4    0    0  0.31425216026E+01 -0.13983048123E+02  0.19189686178E+03  0.19243130369E+03  0.00000000000E+00 0. -1.
<mgrwt>
<rscale>  0 0.96166076E+02</rscale>
<asrwt>0</asrwt>
<pdfrwt beam="1">  1        3 0.54761476E-01 0.96166076E+02</pdfrwt>
<pdfrwt beam="2">  1       -3 0.99926790E-03 0.96166076E+02</pdfrwt>
<totfact> 0.18890711E+04</totfact>
</mgrwt>
</event>
<event>
 7    1  0.1312339E-009  0.9106305E+02  0.7818608E-02  0.1300298E+00
         -3   -1    0    0    0  501 -0.00000000000E+00  0.00000000000E+00  0.13466010249E+03  0.13466014036E+03  0.10100000000E+00 0.  1.
          3   -1    0    0  501    0  0.00000000000E+00 -0.00000000000E+00 -0.15394996842E+02  0.15395328148E+02  0.10100000000E+00 0. -1.
         23    2    1    2    0    0  0.00000000000E+00 -0.71054273576E-14  0.11926510565E+03  0.15005546851E+03  0.91063045226E+02 0.  0.
    9000005    2    3    3    0    0  0.21072044031E+02  0.40272968772E+02  0.59915204668E+02  0.75300175728E+02  0.37870385351E+01 0.  0.
         22    1    3    3    0    0 -0.21072044031E+02 -0.40272968772E+02  0.59349900977E+02  0.74755292785E+02  0.00000000000E+00 0.  1.
         22    1    4    4    0    0  0.14929658215E+02  0.29935666798E+02  0.41448375438E+02  0.53263558532E+02  0.00000000000E+00 0. -1.
         22    1    4    4    0    0  0.61423858158E+01  0.10337301974E+02  0.18466829230E+02  0.22036617195E+02  0.00000000000E+00 0. -1.
<mgrwt>
<rscale>  0 0.91063045E+02</rscale>
<asrwt>0</asrwt>
<pdfrwt beam="2">  1        3 0.23684894E-02 0.91063045E+02</pdfrwt>
<pdfrwt beam="1">  1       -3 0.20716968E-01 0.91063045E+02</pdfrwt>
<totfact> 0.31410923E+04</totfact>
</mgrwt>
</event>
<event>
 7    1  0.1312339E-009  0.7337357E+02  0.7818608E-02  0.1348983E+00
          3   -1    0    0  501    0  0.00000000000E+00  0.00000000000E+00  0.28149859353E+02  0.28150040544E+02  0.10100000000E+00 0. -1.
         -3   -1    0    0    0  501 -0.00000000000E+00 -0.00000000000E+00 -0.47812296428E+02  0.47812403106E+02  0.10100000000E+00 0.  1.
         23    2    1    2    0    0  0.00000000000E+00  0.00000000000E+00 -0.19662437075E+02  0.75962443649E+02  0.73373574354E+02 0.  0.
    9000005    2    3    3    0    0  0.12281519658E+02 -0.54124273956E+00  0.25463846872E+02  0.29191617575E+02  0.72535763790E+01 0.  0.
         22    1    3    3    0    0 -0.12281519658E+02  0.54124273956E+00 -0.45126283947E+02  0.46770826075E+02  0.00000000000E+00 0.  1.
         22    1    4    4    0    0  0.32128905676E+01 -0.12643572825E+01  0.14691397594E+02  0.15091667515E+02  0.00000000000E+00 0. -1.
         22    1    4    4    0    0  0.90686290903E+01  0.72311454296E+00  0.10772449279E+02  0.14099950059E+02  0.00000000000E+00 0. -1.
<mgrwt>
<rscale>  0 0.73373574E+02</rscale>
<asrwt>0</asrwt>
<pdfrwt beam="1">  1        3 0.43307697E-02 0.73373574E+02</pdfrwt>
<pdfrwt beam="2">  1       -3 0.73557601E-02 0.73373574E+02</pdfrwt>
<totfact> 0.65591500E+04</totfact>
</mgrwt>
</event>
<event>
 7    1  0.1312339E-009  0.9467276E+02  0.7818608E-02  0.1291915E+00
         -3   -1    0    0    0  501 -0.00000000000E+00  0.00000000000E+00  0.12775216099E+02  0.12775615342E+02  0.10100000000E+00 0. -1.
          3   -1    0    0  501    0  0.00000000000E+00 -0.00000000000E+00 -0.17539369370E+03  0.17539372278E+03  0.10100000000E+00 0.  1.
         23    2    1    2    0    0 -0.35527136788E-14  0.00000000000E+00 -0.16261847760E+03  0.18816933812E+03  0.94672755067E+02 0.  0.
    9000005    2    3    3    0    0  0.26416541339E+02 -0.11099518498E+02 -0.15547142902E+03  0.15863777415E+03  0.13173654683E+02 0.  0.
         22    1    3    3    0    0 -0.26416541339E+02  0.11099518498E+02 -0.71470485776E+01  0.29531563971E+02  0.00000000000E+00 0. -1.
         22    1    4    4    0    0  0.16367579878E+02 -0.36581334015E+01 -0.11672245376E+03  0.11792120599E+03  0.00000000000E+00 0. -1.
         22    1    4    4    0    0  0.10048961461E+02 -0.74413850969E+01 -0.38748975268E+02  0.40716568162E+02  0.00000000000E+00 0. -1.
<mgrwt>
<rscale>  0 0.94672755E+02</rscale>
<asrwt>0</asrwt>
<pdfrwt beam="2">  1        3 0.26983676E-01 0.94672755E+02</pdfrwt>
<pdfrwt beam="1">  1       -3 0.19654509E-02 0.94672755E+02</pdfrwt>
<totfact> 0.26299384E+04</totfact>
</mgrwt>
</event>
<event>
 7    1  0.1312339E-009  0.8134098E+02  0.7818608E-02  0.1325288E+00
         -3   -1    0    0    0  501 -0.00000000000E+00  0.00000000000E+00  0.23914709508E+02  0.23914922785E+02  0.10100000000E+00 0.  1.
          3   -1    0    0  501    0  0.00000000000E+00 -0.00000000000E+00 -0.69165599424E+02  0.69165673168E+02  0.10100000000E+00 0. -1.
         23    2    1    2    0    0  0.35527136788E-14  0.00000000000E+00 -0.45250889917E+02  0.93080595953E+02  0.81340975558E+02 0.  0.
    9000005    2    3    3    0    0 -0.28051262648E+02 -0.15191912892E+02  0.52488161808E+01  0.33348796470E+02  0.81807457611E+01 0.  0.
         22    1    3    3    0    0  0.28051262648E+02  0.15191912892E+02 -0.50499706098E+02  0.59731799483E+02  0.00000000000E+00 0. -1.
         22    1    4    4    0    0 -0.11213389561E+02 -0.95202696178E+01  0.51373633902E+01  0.15581018633E+02  0.00000000000E+00 0. -1.
         22    1    4    4    0    0 -0.16837873087E+02 -0.56716432746E+01  0.11145279060E+00  0.17767777837E+02  0.00000000000E+00 0. -1.
<mgrwt>
<rscale>  0 0.81340976E+02</rscale>
<asrwt>0</asrwt>
<pdfrwt beam="2">  1        3 0.10640883E-01 0.81340976E+02</pdfrwt>
<pdfrwt beam="1">  1       -3 0.36792082E-02 0.81340976E+02</pdfrwt>
<totfact> 0.47907180E+04</totfact>
</mgrwt>
</event>
<event>
 7    1  0.1312339E-009  0.9115707E+02  0.7818608E-02  0.1300074E+00
         -3   -1    0    0    0  501 -0.00000000000E+00  0.00000000000E+00  0.13958425176E+02  0.13958790577E+02  0.10100000000E+00 0.  1.
          3   -1    0    0  501    0  0.00000000000E+00 -0.00000000000E+00 -0.14882555753E+03  0.14882559180E+03  0.10100000000E+00 0. -1.
         23    2    1    2    0    0  0.00000000000E+00  0.00000000000E+00 -0.13486713236E+03  0.16278438238E+03  0.91157071899E+02 0.  0.
    9000005    2    3    3    0    0  0.78065542641E+01 -0.27622827358E+02 -0.74182002088E+01  0.32142914285E+02  0.12416696970E+02 0.  0.
         22    1    3    3    0    0 -0.78065542641E+01  0.27622827358E+02 -0.12744893215E+03  0.13064146810E+03  0.00000000000E+00 0. -1.
         22    1    4    4    0    0 -0.43819585917E+00 -0.20104351021E+02 -0.44231671097E+01  0.20589836154E+02  0.00000000000E+00 0. -1.
         22    1    4    4    0    0  0.82447501232E+01 -0.75184763379E+01 -0.29950330991E+01  0.11553078131E+02  0.00000000000E+00 0. -1.
<mgrwt>
<rscale>  0 0.91157072E+02</rscale>
<asrwt>0</asrwt>
<pdfrwt beam="2">  1        3 0.22896269E-01 0.91157072E+02</pdfrwt>
<pdfrwt beam="1">  1       -3 0.21474809E-02 0.91157072E+02</pdfrwt>
<totfact> 0.30560739E+04</totfact>
</mgrwt>
</event>
<event>
 7    1  0.1312339E-009  0.9142282E+02  0.7818608E-02  0.1299442E+00
         -3   -1    0    0    0  501 -0.00000000000E+00  0.00000000000E+00  0.23041221267E+01  0.23063347057E+01  0.10100000000E+00 0.  1.
          3   -1    0    0  501    0  0.00000000000E+00 -0.00000000000E+00 -0.90642994575E+03  0.90642995138E+03  0.10100000000E+00 0. -1.
         23    2    1    2    0    0  0.00000000000E+00  0.35527136788E-14 -0.90412582363E+03  0.90873628609E+03  0.91422823742E+02 0.  0.
    9000005    2    3    3    0    0  0.16962322173E+02  0.25284344290E+02 -0.78798072377E+03  0.78866671184E+03  0.12431527936E+02 0.  0.
         22    1    3    3    0    0 -0.16962322173E+02 -0.25284344290E+02 -0.11614509986E+03  0.12006957425E+03  0.00000000000E+00 0.  1.
         22    1    4    4    0    0  0.11946989472E+02  0.25008908555E+02 -0.63756366271E+03  0.63816580923E+03  0.00000000000E+00 0.  1.
         22    1    4    4    0    0  0.50153327009E+01  0.27543573451E+00 -0.15041706106E+03  0.15050090261E+03  0.00000000000E+00 0.  1.
<mgrwt>
<rscale>  0 0.91422824E+02</rscale>
<asrwt>0</asrwt>
<pdfrwt beam="2">  1        3 0.13945065E+00 0.91422824E+02</pdfrwt>
<pdfrwt beam="1">  1       -3 0.35465168E-03 0.91422824E+02</pdfrwt>
<totfact> 0.10945513E+04</totfact>
</mgrwt>
</event>
<event>
 7    1  0.1312339E-009  0.9076835E+02  0.7818608E-02  0.1301002E+00
         -3   -1    0    0    0  501 -0.00000000000E+00  0.00000000000E+00  0.37296899156E+01  0.37310572049E+01  0.10100000000E+00 0.  1.
          3   -1    0    0  501    0  0.00000000000E+00 -0.00000000000E+00 -0.55214802277E+03  0.55214803200E+03  0.10100000000E+00 0. -1.
         23    2    1    2    0    0  0.00000000000E+00  0.00000000000E+00 -0.54841833285E+03  0.55587908921E+03  0.90768353587E+02 0.  0.
    9000005    2    3    3    0    0  0.94844289278E+01 -0.22510818810E+02 -0.50766240518E+03  0.50836343920E+03  0.10750689517E+02 0.  0.
         22    1    3    3    0    0 -0.94844289278E+01  0.22510818810E+02 -0.40755927669E+02  0.47515650008E+02  0.00000000000E+00 0.  1.
         22    1    4    4    0    0  0.43475356978E+01 -0.98312598175E+00 -0.10273720488E+03  0.10283385080E+03  0.00000000000E+00 0.  1.
         22    1    4    4    0    0  0.51368932300E+01 -0.21527692828E+02 -0.40492520030E+03  0.40552958840E+03  0.00000000000E+00 0.  1.
<mgrwt>
<rscale>  0 0.90768354E+02</rscale>
<asrwt>0</asrwt>
<pdfrwt beam="2">  1        3 0.84945890E-01 0.90768354E+02</pdfrwt>
<pdfrwt beam="1">  1       -3 0.57390477E-03 0.90768354E+02</pdfrwt>
<totfact> 0.16836601E+04</totfact>
</mgrwt>
</event>
<event>
 6    1  0.1312339E-009  0.4095339E+02  0.7818608E-02  0.1501310E+00
          3   -1    0    0  501    0  0.00000000000E+00  0.00000000000E+00  0.11013663782E+03  0.11013668413E+03  0.10100000000E+00 0. -1.
         -3   -1    0    0    0  501 -0.00000000000E+00 -0.00000000000E+00 -0.38063262451E+01  0.38076660154E+01  0.10100000000E+00 0.  1.
    9000005    2    1    2    0    0 -0.17965965710E+02  0.30440242774E+00  0.43303549386E+02  0.48406259414E+02  0.12045745155E+02 0.  0.
         22    1    1    2    0    0  0.17965965710E+02 -0.30440242774E+00  0.63026762187E+02  0.65538090730E+02  0.00000000000E+00 0. -1.
         22    1    3    3    0    0 -0.10872307959E+02  0.59588934541E+01  0.22027698711E+02  0.25277163647E+02  0.00000000000E+00 0.  1.
         22    1    3    3    0    0 -0.70936577512E+01 -0.56544910263E+01  0.21275850675E+02  0.23129095767E+02  0.00000000000E+00 0.  1.
<mgrwt>
<rscale>  0 0.40953385E+02</rscale>
<asrwt>0</asrwt>
<pdfrwt beam="1">  1        3 0.16944207E-01 0.40953385E+02</pdfrwt>
<pdfrwt beam="2">  1       -3 0.58569521E-03 0.40953385E+02</pdfrwt>
<totfact> 0.26481387E+05</totfact>
</mgrwt>
</event>
<event>
 7    1  0.1312339E-009  0.8791605E+02  0.7818608E-02  0.1307978E+00
         -3   -1    0    0    0  501 -0.00000000000E+00  0.00000000000E+00  0.50543711140E+02  0.50543812053E+02  0.10100000000E+00 0.  1.
          3   -1    0    0  501    0  0.00000000000E+00 -0.00000000000E+00 -0.38230229268E+02  0.38230362683E+02  0.10100000000E+00 0. -1.
         23    2    1    2    0    0 -0.17763568394E-14  0.17763568394E-14  0.12313481873E+02  0.88774174736E+02  0.87916052369E+02 0.  0.
    9000005    2    3    3    0    0 -0.10505505085E+02  0.12483322239E+02  0.46885531960E+02  0.50545577869E+02  0.95080683484E+01 0.  0.
         22    1    3    3    0    0  0.10505505085E+02 -0.12483322239E+02 -0.34572050087E+02  0.38228596867E+02  0.00000000000E+00 0. -1.
         22    1    4    4    0    0  0.15394492903E+01  0.62538254512E-01  0.29995488661E+01  0.33721074347E+01  0.00000000000E+00 0. -1.
         22    1    4    4    0    0 -0.12044954375E+02  0.12420783985E+02  0.43885983094E+02  0.47173470434E+02  0.00000000000E+00 0. -1.
<mgrwt>
<rscale>  0 0.87916052E+02</rscale>
<asrwt>0</asrwt>
<pdfrwt beam="2">  1        3 0.58815918E-02 0.87916052E+02</pdfrwt>
<pdfrwt beam="1">  1       -3 0.77759736E-02 0.87916052E+02</pdfrwt>
<totfact> 0.39217870E+04</totfact>
</mgrwt>
</event>
<event>
 7    1  0.1312339E-009  0.9922233E+02  0.7818608E-02  0.1281940E+00
         -3   -1    0    0    0  501 -0.00000000000E+00  0.00000000000E+00  0.33431518915E+02  0.33431671481E+02  0.10100000000E+00 0.  1.
          3   -1    0    0  501    0  0.00000000000E+00 -0.00000000000E+00 -0.73620823404E+02  0.73620892684E+02  0.10100000000E+00 0. -1.
         23    2    1    2    0    0  0.44408920985E-15  0.71054273576E-14 -0.40189304488E+02  0.10705256417E+03  0.99222332663E+02 0.  0.
    9000005    2    3    3    0    0  0.30270210052E+01 -0.47269996209E+02 -0.32968621862E+02  0.59138540588E+02  0.12915941996E+02 0.  0.
         22    1    3    3    0    0 -0.30270210052E+01  0.47269996209E+02 -0.72206826265E+01  0.47914023577E+02  0.00000000000E+00 0.  1.
         22    1    4    4    0    0 -0.42445451425E+01 -0.30320701438E+02 -0.21673975186E+02  0.37511628857E+02  0.00000000000E+00 0.  1.
         22    1    4    4    0    0  0.72715661478E+01 -0.16949294771E+02 -0.11294646676E+02  0.21626911730E+02  0.00000000000E+00 0.  1.
<mgrwt>
<rscale>  0 0.99222333E+02</rscale>
<asrwt>0</asrwt>
<pdfrwt beam="2">  1        3 0.11326298E-01 0.99222333E+02</pdfrwt>
<pdfrwt beam="1">  1       -3 0.51433277E-02 0.99222333E+02</pdfrwt>
<totfact> 0.27099337E+04</totfact>
</mgrwt>
</event>
<event>
 7    1  0.1312339E-009  0.9210482E+02  0.7818608E-02  0.1297833E+00
          3   -1    0    0  501    0  0.00000000000E+00  0.00000000000E+00  0.26812696356E+03  0.26812698258E+03  0.10100000000E+00 0. -1.
         -3   -1    0    0    0  501 -0.00000000000E+00 -0.00000000000E+00 -0.79094359748E+01  0.79100808112E+01  0.10100000000E+00 0.  1.
         23    2    1    2    0    0  0.17763568394E-14  0.00000000000E+00  0.26021752758E+03  0.27603706339E+03  0.92104824545E+02 0.  0.
    9000005    2    3    3    0    0 -0.15338445052E+02 -0.38087787582E+02  0.19216573564E+03  0.19655754499E+03  0.46098890189E+01 0.  0.
         22    1    3    3    0    0  0.15338445052E+02  0.38087787582E+02  0.68051791940E+02  0.79479518405E+02  0.00000000000E+00 0.  1.
         22    1    4    4    0    0 -0.90263666745E+01 -0.16502882639E+02  0.90519638843E+02  0.92453369041E+02  0.00000000000E+00 0. -1.
         22    1    4    4    0    0 -0.63120783780E+01 -0.21584904943E+02  0.10164609680E+03  0.10410417595E+03  0.00000000000E+00 0. -1.
<mgrwt>
<rscale>  0 0.92104825E+02</rscale>
<asrwt>0</asrwt>
<pdfrwt beam="1">  1        3 0.41250357E-01 0.92104825E+02</pdfrwt>
<pdfrwt beam="2">  1       -3 0.12168872E-02 0.92104825E+02</pdfrwt>
<totfact> 0.24316941E+04</totfact>
</mgrwt>
</event>
<event>
 7    1  0.1312339E-009  0.8644782E+02  0.7818608E-02  0.1311689E+00
          3   -1    0    0  501    0  0.00000000000E+00  0.00000000000E+00  0.36595925548E+03  0.36595926942E+03  0.10100000000E+00 0. -1.
         -3   -1    0    0    0  501 -0.00000000000E+00 -0.00000000000E+00 -0.51047168018E+01  0.51057158780E+01  0.10100000000E+00 0.  1.
         23    2    1    2    0    0  0.17763568394E-14  0.00000000000E+00  0.36085453868E+03  0.37106498529E+03  0.86447817946E+02 0.  0.
    9000005    2    3    3    0    0  0.14762457111E+02 -0.28124797003E+02  0.30499218459E+03  0.30680351199E+03  0.99613234574E+01 0.  0.
         22    1    3    3    0    0 -0.14762457111E+02  0.28124797003E+02  0.55862354086E+02  0.64261473299E+02  0.00000000000E+00 0.  1.
         22    1    4    4    0    0  0.13421793244E+02 -0.18710792781E+02  0.18336886361E+03  0.18480903236E+03  0.00000000000E+00 0. -1.
         22    1    4    4    0    0  0.13406638677E+01 -0.94140042222E+01  0.12162332098E+03  0.12199447963E+03  0.00000000000E+00 0. -1.
<mgrwt>
<rscale>  0 0.86447818E+02</rscale>
<asrwt>0</asrwt>
<pdfrwt beam="1">  1        3 0.56301527E-01 0.86447818E+02</pdfrwt>
<pdfrwt beam="2">  1       -3 0.78541863E-03 0.86447818E+02</pdfrwt>
<totfact> 0.24801324E+04</totfact>
</mgrwt>
</event>
<event>
 7    1  0.1312339E-009  0.1044816E+03  0.7818608E-02  0.1271144E+00
          3   -1    0    0  501    0  0.00000000000E+00  0.00000000000E+00  0.25491434027E+03  0.25491436028E+03  0.10100000000E+00 0. -1.
         -3   -1    0    0    0  501 -0.00000000000E+00 -0.00000000000E+00 -0.10705699135E+02  0.10706175553E+02  0.10100000000E+00 0.  1.
         23    2    1    2    0    0  0.00000000000E+00  0.00000000000E+00  0.24420864114E+03  0.26562053583E+03  0.10448161872E+03 0.  0.
    9000005    2    3    3    0    0 -0.55043127505E+01 -0.37933279175E+02  0.21199456239E+03  0.21555080449E+03  0.71570736043E+01 0.  0.
         22    1    3    3    0    0  0.55043127505E+01  0.37933279175E+02  0.32214078745E+02  0.50069731347E+02  0.00000000000E+00 0.  1.
         22    1    4    4    0    0 -0.26637316533E+01 -0.29039137673E+02  0.14445847633E+03  0.14737237993E+03  0.00000000000E+00 0.  1.
         22    1    4    4    0    0 -0.28405810972E+01 -0.88941415025E+01  0.67536086065E+02  0.68178424556E+02  0.00000000000E+00 0.  1.
<mgrwt>
<rscale>  0 0.10448162E+03</rscale>
<asrwt>0</asrwt>
<pdfrwt beam="1">  1        3 0.39217625E-01 0.10448162E+03</pdfrwt>
<pdfrwt beam="2">  1       -3 0.16470690E-02 0.10448162E+03</pdfrwt>
<totfact> 0.17573965E+04</totfact>
</mgrwt>
</event>
<event>
 7    1  0.1312339E-009  0.8657899E+02  0.7818608E-02  0.1311354E+00
         -3   -1    0    0    0  501 -0.00000000000E+00  0.00000000000E+00  0.20019344821E+02  0.20019599598E+02  0.10100000000E+00 0.  1.
          3   -1    0    0  501    0  0.00000000000E+00 -0.00000000000E+00 -0.93607604326E+02  0.93607658815E+02  0.10100000000E+00 0. -1.
         23    2    1    2    0    0  0.00000000000E+00 -0.71054273576E-14 -0.73588259505E+02  0.11362725841E+03  0.86578992356E+02 0.  0.
    9000005    2    3    3    0    0  0.14466916724E+02  0.36818742168E+02 -0.59557951300E+02  0.71653921606E+02  0.47141769319E+01 0.  0.
         22    1    3    3    0    0 -0.14466916724E+02 -0.36818742168E+02 -0.14030308206E+02  0.41973336807E+02  0.00000000000E+00 0. -1.
         22    1    4    4    0    0  0.95180465937E+01  0.17928457143E+02 -0.31260511723E+02  0.37272541900E+02  0.00000000000E+00 0.  1.
         22    1    4    4    0    0  0.49488701302E+01  0.18890285025E+02 -0.28297439576E+02  0.34381379706E+02  0.00000000000E+00 0.  1.
<mgrwt>
<rscale>  0 0.86578992E+02</rscale>
<asrwt>0</asrwt>
<pdfrwt beam="2">  1        3 0.14401193E-01 0.86578992E+02</pdfrwt>
<pdfrwt beam="1">  1       -3 0.30799230E-02 0.86578992E+02</pdfrwt>
<totfact> 0.38749628E+04</totfact>
</mgrwt>
</event>
<event>
 7    1  0.1312339E-009  0.9083026E+02  0.7818608E-02  0.1300853E+00
          3   -1    0    0  501    0  0.00000000000E+00  0.00000000000E+00  0.31018436047E+02  0.31018600481E+02  0.10100000000E+00 0. -1.
         -3   -1    0    0    0  501 -0.00000000000E+00 -0.00000000000E+00 -0.66493432180E+02  0.66493508886E+02  0.10100000000E+00 0.  1.
         23    2    1    2    0    0  0.88817841970E-15  0.71054273576E-14 -0.35474996133E+02  0.97512109367E+02  0.90830259950E+02 0.  0.
    9000005    2    3    3    0    0 -0.56840219726E+01 -0.40759569260E+02  0.45170965895E+00  0.42882641302E+02  0.12044346862E+02 0.  0.
         22    1    3    3    0    0  0.56840219726E+01  0.40759569260E+02 -0.35926705792E+02  0.54629468065E+02  0.00000000000E+00 0.  1.
         22    1    4    4    0    0  0.36750302576E+01 -0.15833136471E+02  0.53755946916E-01  0.16254136323E+02  0.00000000000E+00 0.  1.
         22    1    4    4    0    0 -0.93590522302E+01 -0.24926432789E+02  0.39795371204E+00  0.26628504979E+02  0.00000000000E+00 0.  1.
<mgrwt>
<rscale>  0 0.90830260E+02</rscale>
<asrwt>0</asrwt>
<pdfrwt beam="1">  1        3 0.47720856E-02 0.90830260E+02</pdfrwt>
<pdfrwt beam="2">  1       -3 0.10229777E-01 0.90830260E+02</pdfrwt>
<totfact> 0.35220833E+04</totfact>
</mgrwt>
</event>
<event>
 7    1  0.1312339E-009  0.9095970E+02  0.7818608E-02  0.1300544E+00
         -3   -1    0    0    0  501 -0.00000000000E+00  0.00000000000E+00  0.21238021677E+02  0.21238261834E+02  0.10100000000E+00 0.  1.
          3   -1    0    0  501    0  0.00000000000E+00 -0.00000000000E+00 -0.97391330893E+02  0.97391383264E+02  0.10100000000E+00 0. -1.
         23    2    1    2    0    0  0.22204460493E-15  0.00000000000E+00 -0.76153309216E+02  0.11862964510E+03  0.90959695424E+02 0.  0.
    9000005    2    3    3    0    0 -0.18852709078E+01  0.42759290418E+02 -0.23733372604E+02  0.50955714239E+02  0.14188046908E+02 0.  0.
         22    1    3    3    0    0  0.18852709078E+01 -0.42759290418E+02 -0.52419936613E+02  0.67673930859E+02  0.00000000000E+00 0. -1.
         22    1    4    4    0    0 -0.54341662160E+01  0.98274248662E+01 -0.21840871719E+01  0.11440221971E+02  0.00000000000E+00 0.  1.
         22    1    4    4    0    0  0.35488953082E+01  0.32931865552E+02 -0.21549285432E+02  0.39515492269E+02  0.00000000000E+00 0.  1.
<mgrwt>
<rscale>  0 0.90959695E+02</rscale>
<asrwt>0</asrwt>
<pdfrwt beam="2">  1        3 0.14983304E-01 0.90959695E+02</pdfrwt>
<pdfrwt beam="1">  1       -3 0.32674105E-02 0.90959695E+02</pdfrwt>
<totfact> 0.33556975E+04</totfact>
</mgrwt>
</event>
<event>
 7    1  0.1312339E-009  0.8742220E+02  0.7818608E-02  0.1309217E+00
          3   -1    0    0  501    0  0.00000000000E+00  0.00000000000E+00  0.48736369171E+02  0.48736473826E+02  0.10100000000E+00 0. -1.
         -3   -1    0    0    0  501 -0.00000000000E+00 -0.00000000000E+00 -0.39203781994E+02  0.39203912096E+02  0.10100000000E+00 0.  1.
         23    2    1    2    0    0  0.00000000000E+00  0.00000000000E+00  0.95325871770E+01  0.87940385923E+02  0.87422201173E+02 0.  0.
    9000005    2    3    3    0    0  0.39630003019E+02  0.15887294235E+02  0.94765898366E+01  0.45244409612E+02  0.11589115101E+02 0.  0.
         22    1    3    3    0    0 -0.39630003019E+02 -0.15887294235E+02  0.55997340358E-01  0.42695976311E+02  0.00000000000E+00 0.  1.
         22    1    4    4    0    0  0.35980331205E+02  0.10065565976E+02  0.76927794516E+01  0.38145493937E+02  0.00000000000E+00 0. -1.
         22    1    4    4    0    0  0.36496718145E+01  0.58217282586E+01  0.17838103851E+01  0.70989156750E+01  0.00000000000E+00 0. -1.
<mgrwt>
<rscale>  0 0.87422201E+02</rscale>
<asrwt>0</asrwt>
<pdfrwt beam="1">  1        3 0.74979210E-02 0.87422201E+02</pdfrwt>
<pdfrwt beam="2">  1       -3 0.60313691E-02 0.87422201E+02</pdfrwt>
<totfact> 0.39893859E+04</totfact>
</mgrwt>
</event>
<event>
 7    1  0.1534561E-009  0.9114878E+02  0.7818608E-02  0.1300093E+00
         -3   -1    0    0    0  501 -0.00000000000E+00  0.00000000000E+00  0.35146002795E+02  0.35146147918E+02  0.10100000000E+00 0.  1.
          3   -1    0    0  501    0  0.00000000000E+00 -0.00000000000E+00 -0.59096732371E+02  0.59096818679E+02  0.10100000000E+00 0. -1.
         23    2    1    2    0    0  0.00000000000E+00  0.00000000000E+00 -0.23950729576E+02  0.94242966596E+02  0.91148775667E+02 0.  0.
    9000005    2    3    3    0    0 -0.24322212482E+02 -0.67322505692E+01 -0.49989014330E+02  0.57981616778E+02  0.15035727877E+02 0.  0.
         22    1    3    3    0    0  0.24322212482E+02  0.67322505692E+01  0.26038284754E+02  0.36261349818E+02  0.00000000000E+00 0.  1.
         22    1    4    4    0    0 -0.14604202892E+02 -0.75321591766E+01 -0.17260853003E+02  0.23831768931E+02  0.00000000000E+00 0.  1.
         22    1    4    4    0    0 -0.97180095899E+01  0.79990860740E+00 -0.32728161327E+02  0.34149847847E+02  0.00000000000E+00 0.  1.
<mgrwt>
<rscale>  0 0.91148776E+02</rscale>
<asrwt>0</asrwt>
<pdfrwt beam="2">  1        3 0.90918228E-02 0.91148776E+02</pdfrwt>
<pdfrwt beam="1">  1       -3 0.54070952E-02 0.91148776E+02</pdfrwt>
<totfact> 0.35133616E+04</totfact>
</mgrwt>
</event>
<event>
 7    1  0.1312339E-009  0.9179222E+02  0.7818608E-02  0.1298569E+00
          3   -1    0    0  501    0  0.00000000000E+00  0.00000000000E+00  0.26053385096E+02  0.26053580866E+02  0.10100000000E+00 0. -1.
         -3   -1    0    0    0  501 -0.00000000000E+00 -0.00000000000E+00 -0.80850883185E+02  0.80850946270E+02  0.10100000000E+00 0.  1.
         23    2    1    2    0    0  0.00000000000E+00 -0.44408920985E-15 -0.54797498089E+02  0.10690452714E+03  0.91792222576E+02 0.  0.
    9000005    2    3    3    0    0 -0.32288217497E+02 -0.18623899238E+01 -0.65130172574E+02  0.72952183367E+02  0.58381669277E+01 0.  0.
         22    1    3    3    0    0  0.32288217497E+02  0.18623899238E+01  0.10332674485E+02  0.33952343769E+02  0.00000000000E+00 0. -1.
         22    1    4    4    0    0 -0.29087582223E+02 -0.33685888384E+01 -0.59229703505E+02  0.66072631306E+02  0.00000000000E+00 0.  1.
         22    1    4    4    0    0 -0.32006352743E+01  0.15061989146E+01 -0.59004690690E+01  0.68795520613E+01  0.00000000000E+00 0.  1.
<mgrwt>
<rscale>  0 0.91792223E+02</rscale>
<asrwt>0</asrwt>
<pdfrwt beam="1">  1        3 0.40082330E-02 0.91792223E+02</pdfrwt>
<pdfrwt beam="2">  1       -3 0.12438617E-01 0.91792223E+02</pdfrwt>
<totfact> 0.33547545E+04</totfact>
</mgrwt>
</event>
<event>
 7    1  0.1312339E-009  0.9071984E+02  0.7818608E-02  0.1301118E+00
         -3   -1    0    0    0  501 -0.00000000000E+00  0.00000000000E+00  0.30587126451E+02  0.30587293204E+02  0.10100000000E+00 0.  1.
          3   -1    0    0  501    0  0.00000000000E+00 -0.00000000000E+00 -0.67267197157E+02  0.67267272981E+02  0.10100000000E+00 0. -1.
         23    2    1    2    0    0  0.00000000000E+00  0.35527136788E-14 -0.36680070705E+02  0.97854566185E+02  0.90719835408E+02 0.  0.
    9000005    2    3    3    0    0  0.38640154900E+02 -0.20330595035E+02 -0.26832308312E+02  0.53095510238E+02  0.13884011414E+02 0.  0.
         22    1    3    3    0    0 -0.38640154900E+02  0.20330595035E+02 -0.98477623937E+01  0.44759055948E+02  0.00000000000E+00 0.  1.
         22    1    4    4    0    0  0.25648165341E+02 -0.16682794151E+02 -0.24931312615E+02  0.39467890174E+02  0.00000000000E+00 0.  1.
         22    1    4    4    0    0  0.12991989559E+02 -0.36478008836E+01 -0.19009956969E+01  0.13627620064E+02  0.00000000000E+00 0.  1.
<mgrwt>
<rscale>  0 0.90719835E+02</rscale>
<asrwt>0</asrwt>
<pdfrwt beam="2">  1        3 0.10348818E-01 0.90719835E+02</pdfrwt>
<pdfrwt beam="1">  1       -3 0.47057304E-02 0.90719835E+02</pdfrwt>
<totfact> 0.35310133E+04</totfact>
</mgrwt>
</event>
<event>
 7    1  0.1312339E-009  0.9159123E+02  0.7818608E-02  0.1299043E+00
          3   -1    0    0  501    0  0.00000000000E+00  0.00000000000E+00  0.13608509620E+03  0.13608513368E+03  0.10100000000E+00 0. -1.
         -3   -1    0    0    0  501 -0.00000000000E+00 -0.00000000000E+00 -0.15411023117E+02  0.15411354078E+02  0.10100000000E+00 0.  1.
         23    2    1    2    0    0  0.00000000000E+00  0.35527136788E-14  0.12067407308E+03  0.15149648776E+03  0.91591232597E+02 0.  0.
    9000005    2    3    3    0    0  0.39235429955E+02 -0.17186819566E+02  0.85919518822E+02  0.96335951391E+02  0.79778496581E+01 0.  0.
         22    1    3    3    0    0 -0.39235429955E+02  0.17186819566E+02  0.34754554262E+02  0.55160536368E+02  0.00000000000E+00 0.  1.
         22    1    4    4    0    0  0.16756123518E+02 -0.10263731724E+02  0.32689419210E+02  0.38140660620E+02  0.00000000000E+00 0.  1.
         22    1    4    4    0    0  0.22479306437E+02 -0.69230878420E+01  0.53230099612E+02  0.58195290770E+02  0.00000000000E+00 0.  1.
<mgrwt>
<rscale>  0 0.91591233E+02</rscale>
<asrwt>0</asrwt>
<pdfrwt beam="1">  1        3 0.20936196E-01 0.91591233E+02</pdfrwt>
<pdfrwt beam="2">  1       -3 0.23709551E-02 0.91591233E+02</pdfrwt>
<totfact> 0.30834064E+04</totfact>
</mgrwt>
</event>
<event>
 7    1  0.1312339E-009  0.1023255E+03  0.7818608E-02  0.1275480E+00
          3   -1    0    0  501    0  0.00000000000E+00  0.00000000000E+00  0.10087737623E+04  0.10087737674E+04  0.10100000000E+00 0. -1.
         -3   -1    0    0    0  501 -0.00000000000E+00 -0.00000000000E+00 -0.25938718807E+01  0.25958375013E+01  0.10100000000E+00 0.  1.
         23    2    1    2    0    0  0.00000000000E+00  0.88817841970E-15  0.10061798904E+04  0.10113696049E+04  0.10232548923E+03 0.  0.
    9000005    2    3    3    0    0 -0.14132666965E+02 -0.68590908722E+01  0.98392491249E+03  0.98412876335E+03  0.12426183941E+02 0.  0.
         22    1    3    3    0    0  0.14132666965E+02  0.68590908722E+01  0.22254977948E+02  0.27240841518E+02  0.00000000000E+00 0.  1.
         22    1    4    4    0    0 -0.78852644609E+01 -0.67354044903E+01  0.30717147791E+03  0.30734648186E+03  0.00000000000E+00 0. -1.
         22    1    4    4    0    0 -0.62474025042E+01 -0.12368638188E+00  0.67675343457E+03  0.67678228149E+03  0.00000000000E+00 0. -1.
<mgrwt>
<rscale>  0 0.10232549E+03</rscale>
<asrwt>0</asrwt>
<pdfrwt beam="1">  1        3 0.15519632E+00 0.10232549E+03</pdfrwt>
<pdfrwt beam="2">  1       -3 0.39920827E-03 0.10232549E+03</pdfrwt>
<totfact> 0.72748922E+03</totfact>
</mgrwt>
</event>
<event>
 7    1  0.1312339E-009  0.9085702E+02  0.7818608E-02  0.1300789E+00
         -3   -1    0    0    0  501 -0.00000000000E+00  0.00000000000E+00  0.86311854335E+02  0.86311913429E+02  0.10100000000E+00 0.  1.
          3   -1    0    0  501    0  0.00000000000E+00 -0.00000000000E+00 -0.23910208130E+02  0.23910421448E+02  0.10100000000E+00 0. -1.
         23    2    1    2    0    0  0.00000000000E+00  0.71054273576E-14  0.62401646205E+02  0.11022233488E+03  0.90857017651E+02 0.  0.
    9000005    2    3    3    0    0 -0.10441237267E+02 -0.34730728942E+02 -0.16619880510E+01  0.36605813615E+02  0.46883278055E+01 0.  0.
         22    1    3    3    0    0  0.10441237267E+02  0.34730728942E+02  0.64063634256E+02  0.73616521261E+02  0.00000000000E+00 0.  1.
         22    1    4    4    0    0 -0.10539029248E+02 -0.29726872612E+02 -0.98248799536E+00  0.31555084780E+02  0.00000000000E+00 0. -1.
         22    1    4    4    0    0  0.97791980852E-01 -0.50038563296E+01 -0.67950005568E+00  0.50507288350E+01  0.00000000000E+00 0. -1.
<mgrwt>
<rscale>  0 0.90857018E+02</rscale>
<asrwt>0</asrwt>
<pdfrwt beam="2">  1        3 0.36785145E-02 0.90857018E+02</pdfrwt>
<pdfrwt beam="1">  1       -3 0.13278768E-01 0.90857018E+02</pdfrwt>
<totfact> 0.34256077E+04</totfact>
</mgrwt>
</event>
<event>
 7    1  0.1312339E-009  0.9064238E+02  0.7818608E-02  0.1301304E+00
          3   -1    0    0  501    0  0.00000000000E+00  0.00000000000E+00  0.60851086818E+02  0.60851170638E+02  0.10100000000E+00 0. -1.
         -3   -1    0    0    0  501 -0.00000000000E+00 -0.00000000000E+00 -0.33754515617E+02  0.33754666723E+02  0.10100000000E+00 0.  1.
         23    2    1    2    0    0 -0.35527136788E-14  0.00000000000E+00  0.27096571201E+02  0.94605837360E+02  0.90642375806E+02 0.  0.
    9000005    2    3    3    0    0 -0.26601973657E+02  0.31449411349E+02 -0.54902469467E+01  0.42083164221E+02  0.66422453018E+01 0.  0.
         22    1    3    3    0    0  0.26601973657E+02 -0.31449411349E+02  0.32586818148E+02  0.52522673139E+02  0.00000000000E+00 0. -1.
         22    1    4    4    0    0 -0.22200284115E+02  0.26641578961E+02 -0.70324533459E+01  0.35384767123E+02  0.00000000000E+00 0. -1.
         22    1    4    4    0    0 -0.44016895422E+01  0.48078323889E+01  0.15422063992E+01  0.66983970981E+01  0.00000000000E+00 0. -1.
<mgrwt>
<rscale>  0 0.90642376E+02</rscale>
<asrwt>0</asrwt>
<pdfrwt beam="1">  1        3 0.93617237E-02 0.90642376E+02</pdfrwt>
<pdfrwt beam="2">  1       -3 0.51930205E-02 0.90642376E+02</pdfrwt>
<totfact> 0.35641682E+04</totfact>
</mgrwt>
</event>
<event>
 7    1  0.1312339E-009  0.9106431E+02  0.7818608E-02  0.1300295E+00
         -3   -1    0    0    0  501 -0.00000000000E+00  0.00000000000E+00  0.21418589985E+02  0.21418828118E+02  0.10100000000E+00 0.  1.
          3   -1    0    0  501    0  0.00000000000E+00 -0.00000000000E+00 -0.96792543728E+02  0.96792596423E+02  0.10100000000E+00 0. -1.
         23    2    1    2    0    0  0.00000000000E+00  0.00000000000E+00 -0.75373953743E+02  0.11821142454E+03  0.91064306889E+02 0.  0.
    9000005    2    3    3    0    0 -0.32097642050E+02  0.26741889517E+02 -0.14655153737E+02  0.44508236317E+02  0.45631446288E+01 0.  0.
         22    1    3    3    0    0  0.32097642050E+02 -0.26741889517E+02 -0.60718800006E+02  0.73703188223E+02  0.00000000000E+00 0. -1.
         22    1    4    4    0    0 -0.25953772324E+02  0.22770847026E+02 -0.10466643429E+02  0.36078530968E+02  0.00000000000E+00 0.  1.
         22    1    4    4    0    0 -0.61438697259E+01  0.39710424905E+01 -0.41885103081E+01  0.84297053490E+01  0.00000000000E+00 0.  1.
<mgrwt>
<rscale>  0 0.91064307E+02</rscale>
<asrwt>0</asrwt>
<pdfrwt beam="2">  1        3 0.14891183E-01 0.91064307E+02</pdfrwt>
<pdfrwt beam="1">  1       -3 0.32951901E-02 0.91064307E+02</pdfrwt>
<totfact> 0.33481354E+04</totfact>
</mgrwt>
</event>
<event>
 7    1  0.1312339E-009  0.9059962E+02  0.7818608E-02  0.1301406E+00
          3   -1    0    0  501    0  0.00000000000E+00  0.00000000000E+00  0.43704355310E+03  0.43704356477E+03  0.10100000000E+00 0. -1.
         -3   -1    0    0    0  501 -0.00000000000E+00 -0.00000000000E+00 -0.46947962273E+01  0.46958825172E+01  0.10100000000E+00 0.  1.
         23    2    1    2    0    0  0.00000000000E+00  0.00000000000E+00  0.43234875687E+03  0.44173944729E+03  0.90599623181E+02 0.  0.
    9000005    2    3    3    0    0 -0.39834753959E+02 -0.15838515845E+02  0.27086337508E+03  0.27466103833E+03  0.15298751897E+02 0.  0.
         22    1    3    3    0    0  0.39834753959E+02  0.15838515845E+02  0.16148538179E+03  0.16707840896E+03  0.00000000000E+00 0.  1.
         22    1    4    4    0    0 -0.24962450328E+02 -0.21123515071E+01  0.16327567253E+03  0.16518635293E+03  0.00000000000E+00 0. -1.
         22    1    4    4    0    0 -0.14872303631E+02 -0.13726164337E+02  0.10758770255E+03  0.10947468540E+03  0.00000000000E+00 0. -1.
<mgrwt>
<rscale>  0 0.90599623E+02</rscale>
<asrwt>0</asrwt>
<pdfrwt beam="1">  1        3 0.67237572E-01 0.90599623E+02</pdfrwt>
<pdfrwt beam="2">  1       -3 0.72236061E-03 0.90599623E+02</pdfrwt>
<totfact> 0.19745255E+04</totfact>
</mgrwt>
</event>
<event>
 7    1  0.1312339E-009  0.8969517E+02  0.7818608E-02  0.1303592E+00
          3   -1    0    0  501    0  0.00000000000E+00  0.00000000000E+00  0.17788058576E+03  0.17788061444E+03  0.10100000000E+00 0. -1.
         -3   -1    0    0    0  501 -0.00000000000E+00 -0.00000000000E+00 -0.11306801853E+02  0.11307252944E+02  0.10100000000E+00 0.  1.
         23    2    1    2    0    0 -0.71054273576E-14 -0.17763568394E-14  0.16657378391E+03  0.18918786738E+03  0.89695170874E+02 0.  0.
    9000005    2    3    3    0    0  0.38351760921E+02  0.13811930109E+02  0.12237382979E+03  0.12906081088E+03  0.44397870106E+01 0.  0.
         22    1    3    3    0    0 -0.38351760921E+02 -0.13811930109E+02  0.44199954116E+02  0.60127056496E+02  0.00000000000E+00 0.  1.
         22    1    4    4    0    0  0.10205615683E+02  0.52945232290E+01  0.38583856691E+02  0.40260409397E+02  0.00000000000E+00 0. -1.
         22    1    4    4    0    0  0.28146145238E+02  0.85174068799E+01  0.83789973103E+02  0.88800401487E+02  0.00000000000E+00 0. -1.
<mgrwt>
<rscale>  0 0.89695171E+02</rscale>
<asrwt>0</asrwt>
<pdfrwt beam="1">  1        3 0.27366282E-01 0.89695171E+02</pdfrwt>
<pdfrwt beam="2">  1       -3 0.17395448E-02 0.89695171E+02</pdfrwt>
<totfact> 0.30378940E+04</totfact>
</mgrwt>
</event>
<event>
 7    1  0.1312339E-009  0.8965573E+02  0.7818608E-02  0.1303688E+00
          3   -1    0    0  501    0  0.00000000000E+00  0.00000000000E+00  0.64703273744E+02  0.64703352573E+02  0.10100000000E+00 0. -1.
         -3   -1    0    0    0  501 -0.00000000000E+00 -0.00000000000E+00 -0.31057560922E+02  0.31057725149E+02  0.10100000000E+00 0.  1.
         23    2    1    2    0    0  0.00000000000E+00  0.00000000000E+00  0.33645712822E+02  0.95761077722E+02  0.89655730521E+02 0.  0.
    9000005    2    3    3    0    0  0.29300954409E+02  0.32862774203E+02  0.12165373196E+02  0.46772172365E+02  0.10056437994E+02 0.  0.
         22    1    3    3    0    0 -0.29300954409E+02 -0.32862774203E+02  0.21480339626E+02  0.48988905357E+02  0.00000000000E+00 0.  1.
         22    1    4    4    0    0  0.16239547014E+02  0.11596980914E+02  0.29684628277E+01  0.20174851303E+02  0.00000000000E+00 0.  1.
         22    1    4    4    0    0  0.13061407396E+02  0.21265793289E+02  0.91969103680E+01  0.26597321062E+02  0.00000000000E+00 0.  1.
<mgrwt>
<rscale>  0 0.89655731E+02</rscale>
<asrwt>0</asrwt>
<pdfrwt beam="1">  1        3 0.99543684E-02 0.89655731E+02</pdfrwt>
<pdfrwt beam="2">  1       -3 0.47781051E-02 0.89655731E+02</pdfrwt>
<totfact> 0.36624490E+04</totfact>
</mgrwt>
</event>
<event>
 7    1  0.1312339E-009  0.9294688E+02  0.7818608E-02  0.1295868E+00
         -3   -1    0    0    0  501 -0.00000000000E+00  0.00000000000E+00  0.95602112743E+02  0.95602166094E+02  0.10100000000E+00 0.  1.
          3   -1    0    0  501    0  0.00000000000E+00 -0.00000000000E+00 -0.22591174461E+02  0.22591400234E+02  0.10100000000E+00 0. -1.
         23    2    1    2    0    0 -0.71054273576E-14 -0.35527136788E-14  0.73010938282E+02  0.11819356633E+03  0.92946877369E+02 0.  0.
    9000005    2    3    3    0    0 -0.37913433350E+02 -0.25895893454E+02  0.36904258196E+02  0.59783652161E+02  0.10204659064E+02 0.  0.
         22    1    3    3    0    0  0.37913433350E+02  0.25895893454E+02  0.36106680086E+02  0.58409914167E+02  0.00000000000E+00 0. -1.
         22    1    4    4    0    0 -0.10765847063E+02 -0.21875490049E+01  0.82520503609E+01  0.13739911528E+02  0.00000000000E+00 0.  1.
         22    1    4    4    0    0 -0.27147586288E+02 -0.23708344449E+02  0.28652207835E+02  0.46043740634E+02  0.00000000000E+00 0.  1.
<mgrwt>
<rscale>  0 0.92946877E+02</rscale>
<asrwt>0</asrwt>
<pdfrwt beam="2">  1        3 0.34755868E-02 0.92946877E+02</pdfrwt>
<pdfrwt beam="1">  1       -3 0.14708039E-01 0.92946877E+02</pdfrwt>
<totfact> 0.31669304E+04</totfact>
</mgrwt>
</event>
<event>
 7    1  0.1312339E-009  0.9211099E+02  0.7818608E-02  0.1297819E+00
         -3   -1    0    0    0  501 -0.00000000000E+00  0.00000000000E+00  0.21120168905E+02  0.21120410403E+02  0.10100000000E+00 0.  1.
          3   -1    0    0  501    0  0.00000000000E+00 -0.00000000000E+00 -0.10042963737E+03  0.10042968816E+03  0.10100000000E+00 0. -1.
         23    2    1    2    0    0  0.00000000000E+00  0.00000000000E+00 -0.79309468466E+02  0.12155009856E+03  0.92110991047E+02 0.  0.
    9000005    2    3    3    0    0  0.15860760397E+02 -0.41170617224E+02 -0.50921493080E+02  0.69086200597E+02  0.15274855565E+02 0.  0.
         22    1    3    3    0    0 -0.15860760397E+02  0.41170617224E+02 -0.28387975386E+02  0.52463897963E+02  0.00000000000E+00 0. -1.
         22    1    4    4    0    0  0.99382446020E+01 -0.17154035210E+02 -0.33158233180E+02  0.38632862402E+02  0.00000000000E+00 0.  1.
         22    1    4    4    0    0  0.59225157947E+01 -0.24016582014E+02 -0.17763259900E+02  0.30453338196E+02  0.00000000000E+00 0.  1.
<mgrwt>
<rscale>  0 0.92110991E+02</rscale>
<asrwt>0</asrwt>
<pdfrwt beam="2">  1        3 0.15450736E-01 0.92110991E+02</pdfrwt>
<pdfrwt beam="1">  1       -3 0.32492793E-02 0.92110991E+02</pdfrwt>
<totfact> 0.32233874E+04</totfact>
</mgrwt>
</event>
<event>
 7    1  0.1312339E-009  0.7665390E+02  0.7818608E-02  0.1338825E+00
          3   -1    0    0  501    0  0.00000000000E+00  0.00000000000E+00  0.32015009050E+02  0.32015168365E+02  0.10100000000E+00 0. -1.
         -3   -1    0    0    0  501 -0.00000000000E+00 -0.00000000000E+00 -0.45883000168E+02  0.45883111331E+02  0.10100000000E+00 0.  1.
         23    2    1    2    0    0  0.00000000000E+00  0.00000000000E+00 -0.13867991118E+02  0.77898279696E+02  0.76653902718E+02 0.  0.
    9000005    2    3    3    0    0 -0.15663390039E+02 -0.12702290938E+02 -0.38755510925E+02  0.45865817651E+02  0.13964011571E+02 0.  0.
         22    1    3    3    0    0  0.15663390039E+02  0.12702290938E+02  0.24887519806E+02  0.32032462045E+02  0.00000000000E+00 0. -1.
         22    1    4    4    0    0 -0.10668517175E+02 -0.67432943084E+01 -0.35048873008E+02  0.37252017072E+02  0.00000000000E+00 0. -1.
         22    1    4    4    0    0 -0.49948728641E+01 -0.59589966294E+01 -0.37066379170E+01  0.86138005784E+01  0.00000000000E+00 0. -1.
<mgrwt>
<rscale>  0 0.76653903E+02</rscale>
<asrwt>0</asrwt>
<pdfrwt beam="1">  1        3 0.49254068E-02 0.76653903E+02</pdfrwt>
<pdfrwt beam="2">  1       -3 0.70589439E-02 0.76653903E+02</pdfrwt>
<totfact> 0.58123988E+04</totfact>
</mgrwt>
</event>
<event>
 7    1  0.1991114E-009  0.9241020E+02  0.7818608E-02  0.1297118E+00
          3   -1    0    0  501    0  0.00000000000E+00  0.00000000000E+00  0.62402155125E+02  0.62402236861E+02  0.10100000000E+00 0. -1.
         -3   -1    0    0    0  501 -0.00000000000E+00 -0.00000000000E+00 -0.34211959260E+02  0.34212108345E+02  0.10100000000E+00 0.  1.
         23    2    1    2    0    0 -0.88817841970E-15  0.00000000000E+00  0.28190195865E+02  0.96614345206E+02  0.92410197255E+02 0.  0.
    9000005    2    3    3    0    0  0.70417630803E+01 -0.80960814865E+01  0.60379628313E+02  0.62683643415E+02  0.12977159701E+02 0.  0.
         22    1    3    3    0    0 -0.70417630803E+01  0.80960814865E+01 -0.32189432447E+02  0.33930701791E+02  0.00000000000E+00 0.  1.
         22    1    4    4    0    0  0.82575626201E+01 -0.26911543988E+01  0.18477187553E+02  0.20416564655E+02  0.00000000000E+00 0.  1.
         22    1    4    4    0    0 -0.12157995398E+01 -0.54049270877E+01  0.41902440759E+02  0.42267078761E+02  0.00000000000E+00 0.  1.
<mgrwt>
<rscale>  0 0.92410197E+02</rscale>
<asrwt>0</asrwt>
<pdfrwt beam="1">  1        3 0.96003493E-02 0.92410197E+02</pdfrwt>
<pdfrwt beam="2">  1       -3 0.52633961E-02 0.92410197E+02</pdfrwt>
<totfact> 0.33666687E+04</totfact>
</mgrwt>
</event>
<event>
 7    1  0.1312339E-009  0.1088005E+03  0.7818608E-02  0.1262807E+00
          3   -1    0    0  501    0  0.00000000000E+00  0.00000000000E+00  0.13420627397E+03  0.13420631198E+03  0.10100000000E+00 0. -1.
         -3   -1    0    0    0  501 -0.00000000000E+00 -0.00000000000E+00 -0.22050886940E+02  0.22051118245E+02  0.10100000000E+00 0.  1.
         23    2    1    2    0    0  0.00000000000E+00 -0.35527136788E-14  0.11215538703E+03  0.15625743022E+03  0.10880052233E+03 0.  0.
    9000005    2    3    3    0    0 -0.17654074349E+02 -0.25630762139E+02 -0.57682395222E+01  0.34296026456E+02  0.13203883313E+02 0.  0.
         22    1    3    3    0    0  0.17654074349E+02  0.25630762139E+02  0.11792362656E+03  0.12196140377E+03  0.00000000000E+00 0. -1.
         22    1    4    4    0    0 -0.12941715901E+02 -0.21102428536E+02 -0.97921088015E+01  0.26621155034E+02  0.00000000000E+00 0. -1.
         22    1    4    4    0    0 -0.47123584472E+01 -0.45283336029E+01  0.40238692793E+01  0.76748714212E+01  0.00000000000E+00 0. -1.
<mgrwt>
<rscale>  0 0.10880052E+03</rscale>
<asrwt>0</asrwt>
<pdfrwt beam="1">  1        3 0.20647139E-01 0.10880052E+03</pdfrwt>
<pdfrwt beam="2">  1       -3 0.33924649E-02 0.10880052E+03</pdfrwt>
<totfact> 0.19068676E+04</totfact>
</mgrwt>
</event>
<event>
 7    1  0.1312339E-009  0.9064770E+02  0.7818608E-02  0.1301291E+00
         -3   -1    0    0    0  501 -0.00000000000E+00  0.00000000000E+00  0.11895295057E+03  0.11895299345E+03  0.10100000000E+00 0.  1.
          3   -1    0    0  501    0  0.00000000000E+00 -0.00000000000E+00 -0.17269251069E+02  0.17269546418E+02  0.10100000000E+00 0. -1.
         23    2    1    2    0    0  0.00000000000E+00  0.00000000000E+00  0.10168369950E+03  0.13622253987E+03  0.90647700597E+02 0.  0.
    9000005    2    3    3    0    0  0.42825321244E+02  0.10763853820E+01  0.30168390339E+02  0.52858241815E+02  0.69781951117E+01 0.  0.
         22    1    3    3    0    0 -0.42825321244E+02 -0.10763853820E+01  0.71515309162E+02  0.83364298052E+02  0.00000000000E+00 0.  1.
         22    1    4    4    0    0  0.14318246101E+02  0.56519881588E-01  0.14208464528E+02  0.20171659082E+02  0.00000000000E+00 0. -1.
         22    1    4    4    0    0  0.28507075143E+02  0.10198655004E+01  0.15959925812E+02  0.32686582733E+02  0.00000000000E+00 0. -1.
<mgrwt>
<rscale>  0 0.90647701E+02</rscale>
<asrwt>0</asrwt>
<pdfrwt beam="2">  1        3 0.26568338E-02 0.90647701E+02</pdfrwt>
<pdfrwt beam="1">  1       -3 0.18300480E-01 0.90647701E+02</pdfrwt>
<totfact> 0.32683945E+04</totfact>
</mgrwt>
</event>
<event>
 7    1  0.1327715E-009  0.9035207E+02  0.7818608E-02  0.1302001E+00
          3   -1    0    0  501    0  0.00000000000E+00  0.00000000000E+00  0.20552456967E+03  0.20552459449E+03  0.10100000000E+00 0. -1.
         -3   -1    0    0    0  501 -0.00000000000E+00 -0.00000000000E+00 -0.99297926253E+01  0.99303062683E+01  0.10100000000E+00 0.  1.
         23    2    1    2    0    0  0.00000000000E+00  0.00000000000E+00  0.19559477704E+03  0.21545490075E+03  0.90352074975E+02 0.  0.
    9000005    2    3    3    0    0 -0.33547898870E+02  0.19430441834E+02  0.52388805250E+02  0.67094009864E+02  0.15937868603E+02 0.  0.
         22    1    3    3    0    0  0.33547898870E+02 -0.19430441834E+02  0.14320597179E+03  0.14836089089E+03  0.00000000000E+00 0.  1.
         22    1    4    4    0    0 -0.35157549000E+02  0.18343938811E+02  0.47778490457E+02  0.62091364079E+02  0.00000000000E+00 0. -1.
         22    1    4    4    0    0  0.16096501300E+01  0.10865030236E+01  0.46103147926E+01  0.50026457849E+01  0.00000000000E+00 0. -1.
<mgrwt>
<rscale>  0 0.90352075E+02</rscale>
<asrwt>0</asrwt>
<pdfrwt beam="1">  1        3 0.31619206E-01 0.90352075E+02</pdfrwt>
<pdfrwt beam="2">  1       -3 0.15277018E-02 0.90352075E+02</pdfrwt>
<totfact> 0.28405015E+04</totfact>
</mgrwt>
</event>
<event>
 7    1  0.1312339E-009  0.9163088E+02  0.7818608E-02  0.1298950E+00
          3   -1    0    0  501    0  0.00000000000E+00  0.00000000000E+00  0.10023034657E+03  0.10023039746E+03  0.10100000000E+00 0. -1.
         -3   -1    0    0    0  501 -0.00000000000E+00 -0.00000000000E+00 -0.20942126124E+02  0.20942369675E+02  0.10100000000E+00 0.  1.
         23    2    1    2    0    0  0.17763568394E-14  0.00000000000E+00  0.79288220450E+02  0.12117276714E+03  0.91630876857E+02 0.  0.
    9000005    2    3    3    0    0  0.13444358069E+02  0.57105795193E+01  0.96863783083E+02  0.98319717358E+02  0.84150380873E+01 0.  0.
         22    1    3    3    0    0 -0.13444358069E+02 -0.57105795193E+01 -0.17575562633E+02  0.22853049779E+02  0.00000000000E+00 0.  1.
         22    1    4    4    0    0  0.84035584718E+01 -0.99756043115E+00  0.47577862203E+02  0.48324609606E+02  0.00000000000E+00 0. -1.
         22    1    4    4    0    0  0.50407995969E+01  0.67081399504E+01  0.49285920880E+02  0.49995107752E+02  0.00000000000E+00 0. -1.
<mgrwt>
<rscale>  0 0.91630877E+02</rscale>
<asrwt>0</asrwt>
<pdfrwt beam="1">  1        3 0.15420076E-01 0.91630877E+02</pdfrwt>
<pdfrwt beam="2">  1       -3 0.32218882E-02 0.91630877E+02</pdfrwt>
<totfact> 0.32721017E+04</totfact>
</mgrwt>
</event>
<event>
 7    1  0.1312339E-009  0.8729659E+02  0.7818608E-02  0.1309534E+00
         -3   -1    0    0    0  501 -0.00000000000E+00  0.00000000000E+00  0.20525106713E+03  0.20525109198E+03  0.10100000000E+00 0.  1.
          3   -1    0    0  501    0  0.00000000000E+00 -0.00000000000E+00 -0.92818625147E+01  0.92824120110E+01  0.10100000000E+00 0. -1.
         23    2    1    2    0    0  0.00000000000E+00  0.00000000000E+00  0.19596920462E+03  0.21453350399E+03  0.87296593159E+02 0.  0.
    9000005    2    3    3    0    0  0.38989499332E+02 -0.16645205792E+02  0.11878463099E+03  0.12647271624E+03  0.93976304995E+01 0.  0.
         22    1    3    3    0    0 -0.38989499332E+02  0.16645205792E+02  0.77184573623E+02  0.88060787751E+02  0.00000000000E+00 0. -1.
         22    1    4    4    0    0  0.38406953609E+02 -0.14350896162E+02  0.11362405923E+03  0.12079515363E+03  0.00000000000E+00 0.  1.
         22    1    4    4    0    0  0.58254572318E+00 -0.22943096304E+01  0.51605717676E+01  0.56775626080E+01  0.00000000000E+00 0.  1.
<mgrwt>
<rscale>  0 0.87296593E+02</rscale>
<asrwt>0</asrwt>
<pdfrwt beam="2">  1        3 0.14280231E-02 0.87296593E+02</pdfrwt>
<pdfrwt beam="1">  1       -3 0.31577129E-01 0.87296593E+02</pdfrwt>
<totfact> 0.31201068E+04</totfact>
</mgrwt>
</event>
<event>
 7    1  0.1312339E-009  0.9603692E+02  0.7818608E-02  0.1288858E+00
         -3   -1    0    0    0  501 -0.00000000000E+00  0.00000000000E+00  0.58450542441E+01  0.58459267971E+01  0.10100000000E+00 0.  1.
          3   -1    0    0  501    0  0.00000000000E+00 -0.00000000000E+00 -0.39445229195E+03  0.39445230488E+03  0.10100000000E+00 0. -1.
         23    2    1    2    0    0  0.00000000000E+00  0.00000000000E+00 -0.38860723771E+03  0.40029823168E+03  0.96036915230E+02 0.  0.
    9000005    2    3    3    0    0 -0.58432980222E+01  0.35775004142E+02 -0.32238142588E+03  0.32480085951E+03  0.15868822543E+02 0.  0.
         22    1    3    3    0    0  0.58432980222E+01 -0.35775004142E+02 -0.66225811823E+02  0.75497372171E+02  0.00000000000E+00 0.  1.
         22    1    4    4    0    0 -0.10989138061E+01  0.78720299730E+01 -0.14105532320E+03  0.14127908787E+03  0.00000000000E+00 0. -1.
         22    1    4    4    0    0 -0.47443842162E+01  0.27902974169E+02 -0.18132610268E+03  0.18352177163E+03  0.00000000000E+00 0. -1.
<mgrwt>
<rscale>  0 0.96036915E+02</rscale>
<asrwt>0</asrwt>
<pdfrwt beam="2">  1        3 0.60685015E-01 0.96036915E+02</pdfrwt>
<pdfrwt beam="1">  1       -3 0.89930754E-03 0.96036915E+02</pdfrwt>
<totfact> 0.17923613E+04</totfact>
</mgrwt>
</event>
<event>
 7    1  0.1312339E-009  0.9418806E+02  0.7818608E-02  0.1293015E+00
          3   -1    0    0  501    0  0.00000000000E+00  0.00000000000E+00  0.46897894307E+01  0.46908768801E+01  0.10100000000E+00 0. -1.
         -3   -1    0    0    0  501 -0.00000000000E+00 -0.00000000000E+00 -0.47285397529E+03  0.47285398607E+03  0.10100000000E+00 0.  1.
         23    2    1    2    0    0  0.00000000000E+00  0.00000000000E+00 -0.46816418586E+03  0.47754486295E+03  0.94188063018E+02 0.  0.
    9000005    2    3    3    0    0  0.12154185997E+02  0.39832578756E+02 -0.34046028069E+03  0.34322194621E+03  0.12399317142E+02 0.  0.
         22    1    3    3    0    0 -0.12154185997E+02 -0.39832578756E+02 -0.12770390516E+03  0.13432291674E+03  0.00000000000E+00 0.  1.
         22    1    4    4    0    0  0.43819465730E+01  0.10019064988E+02 -0.13778077673E+03  0.13821405701E+03  0.00000000000E+00 0.  1.
         22    1    4    4    0    0  0.77722394240E+01  0.29813513767E+02 -0.20267950396E+03  0.20500788920E+03  0.00000000000E+00 0.  1.
<mgrwt>
<rscale>  0 0.94188063E+02</rscale>
<asrwt>0</asrwt>
<pdfrwt beam="1">  1        3 0.72159092E-03 0.94188063E+02</pdfrwt>
<pdfrwt beam="2">  1       -3 0.72746812E-01 0.94188063E+02</pdfrwt>
<totfact> 0.16911835E+04</totfact>
</mgrwt>
</event>
<event>
 7    1  0.1312339E-009  0.9079021E+02  0.7818608E-02  0.1300949E+00
          3   -1    0    0  501    0  0.00000000000E+00  0.00000000000E+00  0.34341141811E+02  0.34341290335E+02  0.10100000000E+00 0.  1.
         -3   -1    0    0    0  501 -0.00000000000E+00 -0.00000000000E+00 -0.60006878463E+02  0.60006963462E+02  0.10100000000E+00 0. -1.
         23    2    1    2    0    0  0.00000000000E+00  0.00000000000E+00 -0.25665736652E+02  0.94348253797E+02  0.90790213991E+02 0.  0.
    9000005    2    3    3    0    0  0.21581756409E+02 -0.14742041617E+02  0.24544633035E+02  0.37742766210E+02  0.11788867192E+02 0.  0.
         22    1    3    3    0    0 -0.21581756409E+02  0.14742041617E+02 -0.50210369687E+02  0.56605487586E+02  0.00000000000E+00 0. -1.
         22    1    4    4    0    0  0.12408411740E-01 -0.37035101041E+01  0.66840078463E+01  0.76414724988E+01  0.00000000000E+00 0. -1.
         22    1    4    4    0    0  0.21569347997E+02 -0.11038531513E+02  0.17860625189E+02  0.30101293712E+02  0.00000000000E+00 0. -1.
<mgrwt>
<rscale>  0 0.90790214E+02</rscale>
<asrwt>0</asrwt>
<pdfrwt beam="1">  1        3 0.52832706E-02 0.90790214E+02</pdfrwt>
<pdfrwt beam="2">  1       -3 0.92318454E-02 0.90790214E+02</pdfrwt>
<totfact> 0.35505101E+04</totfact>
</mgrwt>
</event>
<event>
 7    1  0.1312339E-009  0.9695654E+02  0.7818608E-02  0.1286829E+00
         -3   -1    0    0    0  501 -0.00000000000E+00  0.00000000000E+00  0.15902527661E+03  0.15902530868E+03  0.10100000000E+00 0.  1.
          3   -1    0    0  501    0  0.00000000000E+00 -0.00000000000E+00 -0.14778216881E+02  0.14778562013E+02  0.10100000000E+00 0. -1.
         23    2    1    2    0    0  0.00000000000E+00 -0.35527136788E-14  0.14424705973E+03  0.17380387069E+03  0.96956542990E+02 0.  0.
    9000005    2    3    3    0    0 -0.35927981355E+02  0.26775845102E+02  0.10109108191E+03  0.11159290585E+03  0.15026778432E+02 0.  0.
         22    1    3    3    0    0  0.35927981355E+02 -0.26775845102E+02  0.43155977820E+02  0.62210964843E+02  0.00000000000E+00 0. -1.
         22    1    4    4    0    0 -0.20859057914E+02  0.23564727142E+02  0.60920638117E+02  0.68569095159E+02  0.00000000000E+00 0.  1.
         22    1    4    4    0    0 -0.15068923440E+02  0.32111179603E+01  0.40170443789E+02  0.43023810691E+02  0.00000000000E+00 0.  1.
<mgrwt>
<rscale>  0 0.96956543E+02</rscale>
<asrwt>0</asrwt>
<pdfrwt beam="2">  1        3 0.22736010E-02 0.96956543E+02</pdfrwt>
<pdfrwt beam="1">  1       -3 0.24465455E-01 0.96956543E+02</pdfrwt>
<totfact> 0.25312104E+04</totfact>
</mgrwt>
</event>
<event>
 7    1  0.1312339E-009  0.8695240E+02  0.7818608E-02  0.1310404E+00
          3   -1    0    0  501    0  0.00000000000E+00  0.00000000000E+00  0.30591032896E+02  0.30591199627E+02  0.10100000000E+00 0. -1.
         -3   -1    0    0    0  501 -0.00000000000E+00 -0.00000000000E+00 -0.61788310903E+02  0.61788393451E+02  0.10100000000E+00 0.  1.
         23    2    1    2    0    0  0.00000000000E+00  0.88817841970E-15 -0.31197278007E+02  0.92379593078E+02  0.86952395380E+02 0.  0.
    9000005    2    3    3    0    0  0.28911459379E+02 -0.79261481750E+01 -0.48955077024E+02  0.57536577504E+02  0.38938253911E+01 0.  0.
         22    1    3    3    0    0 -0.28911459379E+02  0.79261481750E+01  0.17757799017E+02  0.34843015574E+02  0.00000000000E+00 0. -1.
         22    1    4    4    0    0  0.16676251731E+02 -0.41465212714E+01 -0.31576879961E+02  0.35949831134E+02  0.00000000000E+00 0. -1.
         22    1    4    4    0    0  0.12235207649E+02 -0.37796269036E+01 -0.17378197062E+02  0.21586746371E+02  0.00000000000E+00 0. -1.
<mgrwt>
<rscale>  0 0.86952395E+02</rscale>
<asrwt>0</asrwt>
<pdfrwt beam="1">  1        3 0.47063319E-02 0.86952395E+02</pdfrwt>
<pdfrwt beam="2">  1       -3 0.95059131E-02 0.86952395E+02</pdfrwt>
<totfact> 0.40087421E+04</totfact>
</mgrwt>
</event>
<event>
 7    1  0.1312339E-009  0.9165525E+02  0.7818608E-02  0.1298892E+00
         -3   -1    0    0    0  501 -0.00000000000E+00  0.00000000000E+00  0.32447987748E+03  0.32447989320E+03  0.10100000000E+00 0.  1.
          3   -1    0    0  501    0  0.00000000000E+00 -0.00000000000E+00 -0.64720143730E+01  0.64728024104E+01  0.10100000000E+00 0. -1.
         23    2    1    2    0    0  0.00000000000E+00  0.00000000000E+00  0.31800786311E+03  0.33095269561E+03  0.91655254804E+02 0.  0.
    9000005    2    3    3    0    0  0.49567912412E+01 -0.44889278391E+02  0.15053664233E+03  0.15749887789E+03  0.10246890156E+02 0.  0.
         22    1    3    3    0    0 -0.49567912412E+01  0.44889278391E+02  0.16747122078E+03  0.17345381772E+03  0.00000000000E+00 0. -1.
         22    1    4    4    0    0 -0.12860105791E+01 -0.30968267672E+02  0.10453185252E+03  0.10903025093E+03  0.00000000000E+00 0.  1.
         22    1    4    4    0    0  0.62428018203E+01 -0.13921010719E+02  0.46004789811E+02  0.48468626962E+02  0.00000000000E+00 0.  1.
<mgrwt>
<rscale>  0 0.91655255E+02</rscale>
<asrwt>0</asrwt>
<pdfrwt beam="2">  1        3 0.99575643E-03 0.91655255E+02</pdfrwt>
<pdfrwt beam="1">  1       -3 0.49920039E-01 0.91655255E+02</pdfrwt>
<totfact> 0.22552084E+04</totfact>
</mgrwt>
</event>
<event>
 7    1  0.1312339E-009  0.9216283E+02  0.7818608E-02  0.1297697E+00
         -3   -1    0    0    0  501 -0.00000000000E+00  0.00000000000E+00  0.29101485582E+04  0.29101485600E+04  0.10100000000E+00 0.  1.
          3   -1    0    0  501    0  0.00000000000E+00 -0.00000000000E+00 -0.72618996145E+00  0.73317996434E+00  0.10100000000E+00 0. -1.
         23    2    1    2    0    0 -0.44408920985E-15  0.17763568394E-14  0.29094223683E+04  0.29108817399E+04  0.92162828599E+02 0.  0.
    9000005    2    3    3    0    0 -0.39107774288E+01 -0.10326157852E+02  0.28675794301E+04  0.28676063983E+04  0.57222535108E+01 0.  0.
         22    1    3    3    0    0  0.39107774288E+01  0.10326157852E+02  0.41842938152E+02  0.43275341584E+02  0.00000000000E+00 0. -1.
         22    1    4    4    0    0 -0.52388894099E+01 -0.63006186612E+01  0.18575935386E+04  0.18576116113E+04  0.00000000000E+00 0.  1.
         22    1    4    4    0    0  0.13281119811E+01 -0.40255391903E+01  0.10099858915E+04  0.10099947870E+04  0.00000000000E+00 0.  1.
<mgrwt>
<rscale>  0 0.92162829E+02</rscale>
<asrwt>0</asrwt>
<pdfrwt beam="2">  1        3 0.11225812E-03 0.92162829E+02</pdfrwt>
<pdfrwt beam="1">  1       -3 0.44772063E+00 0.92162829E+02</pdfrwt>
<totfact> 0.11341254E+03</totfact>
</mgrwt>
</event>
<event>
 7    1  0.1312339E-009  0.8996621E+02  0.7818608E-02  0.1302934E+00
          3   -1    0    0  501    0  0.00000000000E+00  0.00000000000E+00  0.60096847081E+03  0.60096847930E+03  0.10100000000E+00 0. -1.
         -3   -1    0    0    0  501 -0.00000000000E+00 -0.00000000000E+00 -0.33662658584E+01  0.33677806979E+01  0.10100000000E+00 0.  1.
         23    2    1    2    0    0 -0.71054273576E-14 -0.17763568394E-14  0.59760220495E+03  0.60433625999E+03  0.89966214668E+02 0.  0.
    9000005    2    3    3    0    0  0.29369220747E+02  0.95275951977E+01  0.51756030991E+03  0.51854563603E+03  0.82204658991E+01 0.  0.
         22    1    3    3    0    0 -0.29369220747E+02 -0.95275951977E+01  0.80041895041E+02  0.85790623960E+02  0.00000000000E+00 0.  1.
         22    1    4    4    0    0  0.20245375200E+02  0.90359574342E+01  0.31491693033E+03  0.31569636798E+03  0.00000000000E+00 0. -1.
         22    1    4    4    0    0  0.91238455467E+01  0.49163776354E+00  0.20264337958E+03  0.20284926806E+03  0.00000000000E+00 0. -1.
<mgrwt>
<rscale>  0 0.89966215E+02</rscale>
<asrwt>0</asrwt>
<pdfrwt beam="1">  1        3 0.92456845E-01 0.89966215E+02</pdfrwt>
<pdfrwt beam="2">  1       -3 0.51800401E-03 0.89966215E+02</pdfrwt>
<totfact> 0.16207789E+04</totfact>
</mgrwt>
</event>
<event>
 7    1  0.1312339E-009  0.9279502E+02  0.7818608E-02  0.1296221E+00
          3   -1    0    0  501    0  0.00000000000E+00  0.00000000000E+00  0.13638521403E+02  0.13638895376E+02  0.10100000000E+00 0. -1.
         -3   -1    0    0    0  501 -0.00000000000E+00 -0.00000000000E+00 -0.15783925538E+03  0.15783928770E+03  0.10100000000E+00 0.  1.
         23    2    1    2    0    0 -0.17763568394E-14  0.00000000000E+00 -0.14420073398E+03  0.17147818307E+03  0.92795019208E+02 0.  0.
    9000005    2    3    3    0    0  0.11611880159E+02  0.22281599851E+02 -0.14405827266E+03  0.14635198662E+03  0.59002214441E+01 0.  0.
         22    1    3    3    0    0 -0.11611880159E+02 -0.22281599851E+02 -0.14246131544E+00  0.25126196449E+02  0.00000000000E+00 0. -1.
         22    1    4    4    0    0  0.67180988543E+00 -0.27589842732E+00 -0.33629841663E+01  0.34405102772E+01  0.00000000000E+00 0. -1.
         22    1    4    4    0    0  0.10940070274E+02  0.22557498279E+02 -0.14069528850E+03  0.14291147635E+03  0.00000000000E+00 0. -1.
<mgrwt>
<rscale>  0 0.92795019E+02</rscale>
<asrwt>0</asrwt>
<pdfrwt beam="1">  1        3 0.20982654E-02 0.92795019E+02</pdfrwt>
<pdfrwt beam="2">  1       -3 0.24282992E-01 0.92795019E+02</pdfrwt>
<totfact> 0.28643834E+04</totfact>
</mgrwt>
</event>
<event>
 7    1  0.1312339E-009  0.9375094E+02  0.7818608E-02  0.1294014E+00
         -3   -1    0    0    0  501 -0.00000000000E+00  0.00000000000E+00  0.76774490358E+01  0.76781133554E+01  0.10100000000E+00 0.  1.
          3   -1    0    0  501    0  0.00000000000E+00 -0.00000000000E+00 -0.28619004001E+03  0.28619005784E+03  0.10100000000E+00 0. -1.
         23    2    1    2    0    0  0.00000000000E+00 -0.35527136788E-14 -0.27851259098E+03  0.29386817119E+03  0.93750939761E+02 0.  0.
    9000005    2    3    3    0    0 -0.38140834488E+02 -0.23407614895E+02 -0.10569436088E+03  0.11534987985E+03  0.11474195756E+02 0.  0.
         22    1    3    3    0    0  0.38140834488E+02  0.23407614895E+02 -0.17281823009E+03  0.17851829134E+03  0.00000000000E+00 0.  1.
         22    1    4    4    0    0 -0.40314511108E+01 -0.42584401240E+01 -0.66801483545E+01  0.88888296410E+01  0.00000000000E+00 0. -1.
         22    1    4    4    0    0 -0.34109383377E+02 -0.19149174771E+02 -0.99014212529E+02  0.10646105021E+03  0.00000000000E+00 0. -1.
<mgrwt>
<rscale>  0 0.93750940E+02</rscale>
<asrwt>0</asrwt>
<pdfrwt beam="2">  1        3 0.44029281E-01 0.93750940E+02</pdfrwt>
<pdfrwt beam="1">  1       -3 0.11811987E-02 0.93750940E+02</pdfrwt>
<totfact> 0.22517662E+04</totfact>
</mgrwt>
</event>
<event>
 7    1  0.1312339E-009  0.7671955E+02  0.7818608E-02  0.1338627E+00
         -3   -1    0    0    0  501 -0.00000000000E+00  0.00000000000E+00  0.72651365684E+01  0.72658385859E+01  0.10100000000E+00 0. -1.
          3   -1    0    0  501    0  0.00000000000E+00 -0.00000000000E+00 -0.20252831563E+03  0.20252834081E+03  0.10100000000E+00 0.  1.
         23    2    1    2    0    0 -0.17763568394E-14  0.44235448637E-16 -0.19526317906E+03  0.20979417940E+03  0.76719545182E+02 0.  0.
    9000005    2    3    3    0    0  0.10004473519E+02  0.74128569486E-02 -0.19873944412E+03  0.19920295831E+03  0.91849008675E+01 0.  0.
         22    1    3    3    0    0 -0.10004473519E+02 -0.74128569486E-02  0.34762650629E+01  0.10591221088E+02  0.00000000000E+00 0. -1.
         22    1    4    4    0    0  0.10769775045E+02 -0.23072041815E+01 -0.15088978418E+03  0.15129123642E+03  0.00000000000E+00 0.  1.
         22    1    4    4    0    0 -0.76530152570E+00  0.23146170384E+01 -0.47849659941E+02  0.47911721895E+02  0.00000000000E+00 0.  1.
<mgrwt>
<rscale>  0 0.76719545E+02</rscale>
<asrwt>0</asrwt>
<pdfrwt beam="2">  1        3 0.31158254E-01 0.76719545E+02</pdfrwt>
<pdfrwt beam="1">  1       -3 0.11177694E-02 0.76719545E+02</pdfrwt>
<totfact> 0.44372945E+04</totfact>
</mgrwt>
</event>
<event>
 7    1  0.1312339E-009  0.9024273E+02  0.7818608E-02  0.1302265E+00
         -3   -1    0    0    0  501 -0.00000000000E+00  0.00000000000E+00  0.97928105220E+02  0.97928157305E+02  0.10100000000E+00 0.  1.
          3   -1    0    0  501    0  0.00000000000E+00 -0.00000000000E+00 -0.20789944517E+02  0.20790189850E+02  0.10100000000E+00 0. -1.
         23    2    1    2    0    0  0.00000000000E+00  0.35527136788E-14  0.77138160703E+02  0.11871834715E+03  0.90242728873E+02 0.  0.
    9000005    2    3    3    0    0  0.15739272583E+02 -0.31003481021E+02  0.36783327094E+01  0.37445431212E+02  0.13404836824E+02 0.  0.
         22    1    3    3    0    0 -0.15739272583E+02  0.31003481021E+02  0.73459827994E+02  0.81272915943E+02  0.00000000000E+00 0.  1.
         22    1    4    4    0    0  0.11286849630E+02 -0.83530632253E+01 -0.17191161540E+00  0.14042656209E+02  0.00000000000E+00 0. -1.
         22    1    4    4    0    0  0.44524229533E+01 -0.22650417796E+02  0.38502443248E+01  0.23402775003E+02  0.00000000000E+00 0. -1.
<mgrwt>
<rscale>  0 0.90242729E+02</rscale>
<asrwt>0</asrwt>
<pdfrwt beam="2">  1        3 0.31984759E-02 0.90242729E+02</pdfrwt>
<pdfrwt beam="1">  1       -3 0.15065885E-01 0.90242729E+02</pdfrwt>
<totfact> 0.34279777E+04</totfact>
</mgrwt>
</event>
<event>
 7    1  0.1312339E-009  0.9504802E+02  0.7818608E-02  0.1291068E+00
         -3   -1    0    0    0  501 -0.00000000000E+00  0.00000000000E+00  0.68100822029E+01  0.68108311248E+01  0.10100000000E+00 0.  1.
          3   -1    0    0  501    0  0.00000000000E+00 -0.00000000000E+00 -0.33162630113E+03  0.33162631651E+03  0.10100000000E+00 0. -1.
         23    2    1    2    0    0  0.00000000000E+00  0.00000000000E+00 -0.32481621893E+03  0.33843714764E+03  0.95048023763E+02 0.  0.
    9000005    2    3    3    0    0 -0.38449040757E+02 -0.19901264329E+02 -0.97789063020E+02  0.10731873951E+03  0.89566704623E+01 0.  0.
         22    1    3    3    0    0  0.38449040757E+02  0.19901264329E+02 -0.22702715591E+03  0.23111840813E+03  0.00000000000E+00 0. -1.
         22    1    4    4    0    0 -0.91887004923E+01 -0.77769368668E+01 -0.20213836101E+02  0.23526838582E+02  0.00000000000E+00 0. -1.
         22    1    4    4    0    0 -0.29260340264E+02 -0.12124327462E+02 -0.77575226919E+02  0.83791900923E+02  0.00000000000E+00 0. -1.
<mgrwt>
<rscale>  0 0.95048024E+02</rscale>
<asrwt>0</asrwt>
<pdfrwt beam="2">  1        3 0.51019477E-01 0.95048024E+02</pdfrwt>
<pdfrwt beam="1">  1       -3 0.10477640E-02 0.95048024E+02</pdfrwt>
<totfact> 0.20223436E+04</totfact>
</mgrwt>
</event>
<event>
 7    1  0.1312339E-009  0.8584869E+02  0.7818608E-02  0.1313228E+00
         -3   -1    0    0    0  501 -0.00000000000E+00  0.00000000000E+00  0.47865637816E+02  0.47865744375E+02  0.10100000000E+00 0.  1.
          3   -1    0    0  501    0  0.00000000000E+00 -0.00000000000E+00 -0.38492941155E+02  0.38493073660E+02  0.10100000000E+00 0. -1.
         23    2    1    2    0    0  0.00000000000E+00  0.00000000000E+00  0.93726966613E+01  0.86358818035E+02  0.85848692533E+02 0.  0.
    9000005    2    3    3    0    0  0.33241941363E+02 -0.12186903738E+02  0.28480726732E+02  0.46126193195E+02  0.79326297766E+01 0.  0.
         22    1    3    3    0    0 -0.33241941363E+02  0.12186903738E+02 -0.19108030071E+02  0.40232624840E+02  0.00000000000E+00 0. -1.
         22    1    4    4    0    0 -0.43490462824E+00 -0.40591487752E+00  0.61519882350E+00  0.85579116372E+00  0.00000000000E+00 0.  1.
         22    1    4    4    0    0  0.33676845991E+02 -0.11780988861E+02  0.27865527909E+02  0.45270402031E+02  0.00000000000E+00 0.  1.
<mgrwt>
<rscale>  0 0.85848693E+02</rscale>
<asrwt>0</asrwt>
<pdfrwt beam="2">  1        3 0.59220093E-02 0.85848693E+02</pdfrwt>
<pdfrwt beam="1">  1       -3 0.73639627E-02 0.85848693E+02</pdfrwt>
<totfact> 0.42050910E+04</totfact>
</mgrwt>
</event>
<event>
 7    1  0.1312339E-009  0.1187522E+03  0.7818608E-02  0.1245170E+00
          3   -1    0    0  501    0  0.00000000000E+00  0.00000000000E+00  0.11797004606E+02  0.11797436953E+02  0.10100000000E+00 0. -1.
         -3   -1    0    0    0  501 -0.00000000000E+00 -0.00000000000E+00 -0.29884311691E+03  0.29884313398E+03  0.10100000000E+00 0.  1.
         23    2    1    2    0    0 -0.71054273576E-14  0.35527136788E-14 -0.28704611231E+03  0.31064057093E+03  0.11875223669E+03 0.  0.
    9000005    2    3    3    0    0 -0.36129059209E+02  0.29682088267E+02 -0.54901826970E+02  0.73834100376E+02  0.15840722535E+02 0.  0.
         22    1    3    3    0    0  0.36129059209E+02 -0.29682088267E+02 -0.23214428534E+03  0.23680647056E+03  0.00000000000E+00 0.  1.
         22    1    4    4    0    0 -0.35692517875E+02  0.30643140979E+02 -0.55390482485E+02  0.72670925900E+02  0.00000000000E+00 0.  1.
         22    1    4    4    0    0 -0.43654133377E+00 -0.96105271148E+00  0.48865551412E+00  0.11631744761E+01  0.00000000000E+00 0.  1.
<mgrwt>
<rscale>  0 0.11875224E+03</rscale>
<asrwt>0</asrwt>
<pdfrwt beam="1">  1        3 0.18149586E-02 0.11875224E+03</pdfrwt>
<pdfrwt beam="2">  1       -3 0.45975893E-01 0.11875224E+03</pdfrwt>
<totfact> 0.11490785E+04</totfact>
</mgrwt>
</event>
<event>
 7    1  0.1312339E-009  0.9120324E+02  0.7818608E-02  0.1299964E+00
          3   -1    0    0  501    0  0.00000000000E+00  0.00000000000E+00  0.18681383953E+02  0.18681656977E+02  0.10100000000E+00 0. -1.
         -3   -1    0    0    0  501 -0.00000000000E+00 -0.00000000000E+00 -0.11131333718E+03  0.11131338300E+03  0.10100000000E+00 0.  1.
         23    2    1    2    0    0  0.55511151231E-15  0.00000000000E+00 -0.92631953227E+02  0.12999503998E+03  0.91203243694E+02 0.  0.
    9000005    2    3    3    0    0  0.66663422405E+00  0.15203058029E+02 -0.10701708198E+03  0.10905442624E+03  0.14444191668E+02 0.  0.
         22    1    3    3    0    0 -0.66663422405E+00 -0.15203058029E+02  0.14385128750E+02  0.20940613739E+02  0.00000000000E+00 0. -1.
         22    1    4    4    0    0  0.58598927169E+01  0.13151126512E+02 -0.90007333404E+02  0.91151580007E+02  0.00000000000E+00 0. -1.
         22    1    4    4    0    0 -0.51932584928E+01  0.20519315166E+01 -0.17009748572E+02  0.17902846232E+02  0.00000000000E+00 0. -1.
<mgrwt>
<rscale>  0 0.91203244E+02</rscale>
<asrwt>0</asrwt>
<pdfrwt beam="1">  1        3 0.28740837E-02 0.91203244E+02</pdfrwt>
<pdfrwt beam="2">  1       -3 0.17125153E-01 0.91203244E+02</pdfrwt>
<totfact> 0.32552177E+04</totfact>
</mgrwt>
</event>
<event>
 7    1  0.1312339E-009  0.9042966E+02  0.7818608E-02  0.1301815E+00
          3   -1    0    0  501    0  0.00000000000E+00  0.00000000000E+00  0.58681200725E+02  0.58681287644E+02  0.10100000000E+00 0. -1.
         -3   -1    0    0    0  501 -0.00000000000E+00 -0.00000000000E+00 -0.34838584592E+02  0.34838730996E+02  0.10100000000E+00 0.  1.
         23    2    1    2    0    0  0.88817841970E-15 -0.35527136788E-14  0.23842616133E+02  0.93520018639E+02  0.90429660744E+02 0.  0.
    9000005    2    3    3    0    0 -0.67090594287E+01  0.22362543107E+02  0.50832003306E+02  0.57833580983E+02  0.14687944598E+02 0.  0.
         22    1    3    3    0    0  0.67090594287E+01 -0.22362543107E+02 -0.26989387173E+02  0.35686437657E+02  0.00000000000E+00 0.  1.
         22    1    4    4    0    0 -0.26288935077E+01  0.16706276605E+02  0.19855406923E+02  0.26081563281E+02  0.00000000000E+00 0. -1.
         22    1    4    4    0    0 -0.40801659210E+01  0.56562665026E+01  0.30976596383E+02  0.31752017702E+02  0.00000000000E+00 0. -1.
<mgrwt>
<rscale>  0 0.90429661E+02</rscale>
<asrwt>0</asrwt>
<pdfrwt beam="1">  1        3 0.90278949E-02 0.90429661E+02</pdfrwt>
<pdfrwt beam="2">  1       -3 0.53598002E-02 0.90429661E+02</pdfrwt>
<totfact> 0.35954815E+04</totfact>
</mgrwt>
</event>
<event>
 7    1  0.1312339E-009  0.9132969E+02  0.7818608E-02  0.1299663E+00
          3   -1    0    0  501    0  0.00000000000E+00  0.00000000000E+00  0.82868155858E+01  0.82874310587E+01  0.10100000000E+00 0. -1.
         -3   -1    0    0    0  501 -0.00000000000E+00 -0.00000000000E+00 -0.25162808758E+03  0.25162810785E+03  0.10100000000E+00 0.  1.
         23    2    1    2    0    0  0.00000000000E+00  0.00000000000E+00 -0.24334127200E+03  0.25991553891E+03  0.91329692381E+02 0.  0.
    9000005    2    3    3    0    0 -0.41031819632E+02 -0.17167430531E+02 -0.14977189664E+03  0.15631264852E+03  0.48674603230E+01 0.  0.
         22    1    3    3    0    0  0.41031819632E+02  0.17167430531E+02 -0.93569375354E+02  0.10360289039E+03  0.00000000000E+00 0. -1.
         22    1    4    4    0    0 -0.79575355139E+01 -0.17905840069E+01 -0.23306302320E+02  0.24692352872E+02  0.00000000000E+00 0. -1.
         22    1    4    4    0    0 -0.33074284118E+02 -0.15376846524E+02 -0.12646559432E+03  0.13162029565E+03  0.00000000000E+00 0. -1.
<mgrwt>
<rscale>  0 0.91329692E+02</rscale>
<asrwt>0</asrwt>
<pdfrwt beam="1">  1        3 0.12749438E-02 0.91329692E+02</pdfrwt>
<pdfrwt beam="2">  1       -3 0.38712057E-01 0.91329692E+02</pdfrwt>
<totfact> 0.25549174E+04</totfact>
</mgrwt>
</event>
<event>
 7    1  0.1312339E-009  0.8965431E+02  0.7818608E-02  0.1303691E+00
          3   -1    0    0  501    0  0.00000000000E+00  0.00000000000E+00  0.27736614719E+02  0.27736798609E+02  0.10100000000E+00 0.  1.
         -3   -1    0    0    0  501 -0.00000000000E+00 -0.00000000000E+00 -0.72447965034E+02  0.72448035436E+02  0.10100000000E+00 0. -1.
         23    2    1    2    0    0  0.00000000000E+00  0.00000000000E+00 -0.44711350315E+02  0.10018483405E+03  0.89654314596E+02 0.  0.
    9000005    2    3    3    0    0 -0.77910822731E+01  0.29646188463E+02  0.13522234909E+02  0.34376415880E+02  0.76999791214E+01 0.  0.
         22    1    3    3    0    0  0.77910822731E+01 -0.29646188463E+02 -0.58233585224E+02  0.65808418165E+02  0.00000000000E+00 0. -1.
         22    1    4    4    0    0 -0.11941327556E+01  0.32970433654E+01 -0.90320770746E+00  0.36210816277E+01  0.00000000000E+00 0. -1.
         22    1    4    4    0    0 -0.65969495174E+01  0.26349145097E+02  0.14425442616E+02  0.30755334252E+02  0.00000000000E+00 0. -1.
<mgrwt>
<rscale>  0 0.89654315E+02</rscale>
<asrwt>0</asrwt>
<pdfrwt beam="1">  1        3 0.42671911E-02 0.89654315E+02</pdfrwt>
<pdfrwt beam="2">  1       -3 0.11145860E-01 0.89654315E+02</pdfrwt>
<totfact> 0.36280428E+04</totfact>
</mgrwt>
</event>
<event>
 7    1  0.1312339E-009  0.9294870E+02  0.7818608E-02  0.1295864E+00
         -3   -1    0    0    0  501 -0.00000000000E+00  0.00000000000E+00  0.13928852263E+03  0.13928855924E+03  0.10100000000E+00 0.  1.
          3   -1    0    0  501    0  0.00000000000E+00 -0.00000000000E+00 -0.15506209997E+02  0.15506538926E+02  0.10100000000E+00 0. -1.
         23    2    1    2    0    0  0.00000000000E+00  0.00000000000E+00  0.12378231263E+03  0.15479509817E+03  0.92948703583E+02 0.  0.
    9000005    2    3    3    0    0  0.10961405306E+02 -0.43784545578E+02  0.79628214548E+02  0.91653802530E+02  0.47463805586E+01 0.  0.
         22    1    3    3    0    0 -0.10961405306E+02  0.43784545578E+02  0.44154098082E+02  0.63141295641E+02  0.00000000000E+00 0.  1.
         22    1    4    4    0    0  0.46070633100E+01 -0.15686526281E+02  0.24528051710E+02  0.29477405921E+02  0.00000000000E+00 0.  1.
         22    1    4    4    0    0  0.63543419958E+01 -0.28098019297E+02  0.55100162837E+02  0.62176396609E+02  0.00000000000E+00 0.  1.
<mgrwt>
<rscale>  0 0.92948704E+02</rscale>
<asrwt>0</asrwt>
<pdfrwt beam="2">  1        3 0.23855989E-02 0.92948704E+02</pdfrwt>
<pdfrwt beam="1">  1       -3 0.21429031E-01 0.92948704E+02</pdfrwt>
<totfact> 0.29438395E+04</totfact>
</mgrwt>
</event>
<event>
 7    1  0.1312339E-009  0.9122560E+02  0.7818608E-02  0.1299911E+00
          3   -1    0    0  501    0  0.00000000000E+00  0.00000000000E+00  0.20527415342E+03  0.20527417827E+03  0.10100000000E+00 0. -1.
         -3   -1    0    0    0  501 -0.00000000000E+00 -0.00000000000E+00 -0.10135083456E+02  0.10135586695E+02  0.10100000000E+00 0.  1.
         23    2    1    2    0    0  0.00000000000E+00  0.00000000000E+00  0.19513906997E+03  0.21540976497E+03  0.91225600655E+02 0.  0.
    9000005    2    3    3    0    0  0.83051873612E+01 -0.35447106890E+02  0.35259394081E+02  0.51437254204E+02  0.87802463012E+01 0.  0.
         22    1    3    3    0    0 -0.83051873612E+01  0.35447106890E+02  0.15987967589E+03  0.16397251076E+03  0.00000000000E+00 0. -1.
         22    1    4    4    0    0  0.22117562223E+01 -0.89492895018E+01  0.14693471572E+02  0.17345885824E+02  0.00000000000E+00 0. -1.
         22    1    4    4    0    0  0.60934311389E+01 -0.26497817388E+02  0.20565922509E+02  0.34091368380E+02  0.00000000000E+00 0. -1.
<mgrwt>
<rscale>  0 0.91225601E+02</rscale>
<asrwt>0</asrwt>
<pdfrwt beam="1">  1        3 0.31580680E-01 0.91225601E+02</pdfrwt>
<pdfrwt beam="2">  1       -3 0.15592842E-02 0.91225601E+02</pdfrwt>
<totfact> 0.27681065E+04</totfact>
</mgrwt>
</event>
<event>
 7    1  0.1312339E-009  0.9207224E+02  0.7818608E-02  0.1297910E+00
         -3   -1    0    0    0  501 -0.00000000000E+00  0.00000000000E+00  0.31929398787E+02  0.31929558530E+02  0.10100000000E+00 0.  1.
          3   -1    0    0  501    0  0.00000000000E+00 -0.00000000000E+00 -0.66374971341E+02  0.66375048185E+02  0.10100000000E+00 0. -1.
         23    2    1    2    0    0  0.00000000000E+00  0.00000000000E+00 -0.34445572554E+02  0.98304606715E+02  0.92072244639E+02 0.  0.
    9000005    2    3    3    0    0  0.28546168215E+02  0.27539758048E+02  0.58095904961E+01  0.41790890281E+02  0.11806996894E+02 0.  0.
         22    1    3    3    0    0 -0.28546168215E+02 -0.27539758048E+02 -0.40255163050E+02  0.56513716435E+02  0.00000000000E+00 0. -1.
         22    1    4    4    0    0  0.49770254124E+01  0.10999310712E+02  0.47612608884E+01  0.12977874377E+02  0.00000000000E+00 0.  1.
         22    1    4    4    0    0  0.23569142802E+02  0.16540447336E+02  0.10483296076E+01  0.28813015904E+02  0.00000000000E+00 0.  1.
<mgrwt>
<rscale>  0 0.92072245E+02</rscale>
<asrwt>0</asrwt>
<pdfrwt beam="2">  1        3 0.10211552E-01 0.92072245E+02</pdfrwt>
<pdfrwt beam="1">  1       -3 0.49122334E-02 0.92072245E+02</pdfrwt>
<totfact> 0.33881650E+04</totfact>
</mgrwt>
</event>
<event>
 7    1  0.1312339E-009  0.9139296E+02  0.7818608E-02  0.1299513E+00
         -3   -1    0    0    0  501 -0.00000000000E+00  0.00000000000E+00  0.19668487601E+03  0.19668490194E+03  0.10100000000E+00 0.  1.
          3   -1    0    0  501    0  0.00000000000E+00 -0.00000000000E+00 -0.10616555198E+02  0.10617035616E+02  0.10100000000E+00 0. -1.
         23    2    1    2    0    0 -0.17763568394E-14  0.00000000000E+00  0.18606832081E+03  0.20730193756E+03  0.91392960921E+02 0.  0.
    9000005    2    3    3    0    0 -0.15851958577E+02  0.17463074269E+02  0.18146922900E+03  0.18327288849E+03  0.10081023162E+02 0.  0.
         22    1    3    3    0    0  0.15851958577E+02 -0.17463074269E+02  0.45990918113E+01  0.24029049068E+02  0.00000000000E+00 0. -1.
         22    1    4    4    0    0 -0.14930645259E+02  0.18349777346E+02  0.17818478007E+03  0.17974830833E+03  0.00000000000E+00 0. -1.
         22    1    4    4    0    0 -0.92131331799E+00 -0.88670307713E+00  0.32844489272E+01  0.35245801640E+01  0.00000000000E+00 0. -1.
<mgrwt>
<rscale>  0 0.91392961E+02</rscale>
<asrwt>0</asrwt>
<pdfrwt beam="2">  1        3 0.16333553E-02 0.91392961E+02</pdfrwt>
<pdfrwt beam="1">  1       -3 0.30259248E-01 0.91392961E+02</pdfrwt>
<totfact> 0.27944456E+04</totfact>
</mgrwt>
</event>
<event>
 7    1  0.1312339E-009  0.9160667E+02  0.7818608E-02  0.1299007E+00
         -3   -1    0    0    0  501 -0.00000000000E+00  0.00000000000E+00  0.51106414700E+01  0.51116393882E+01  0.10100000000E+00 0.  1.
          3   -1    0    0  501    0  0.00000000000E+00 -0.00000000000E+00 -0.41046424822E+03  0.41046426065E+03  0.10100000000E+00 0. -1.
         23    2    1    2    0    0 -0.35527136788E-14 -0.71054273576E-14 -0.40535360675E+03  0.41557590003E+03  0.91606671068E+02 0.  0.
    9000005    2    3    3    0    0  0.20803676725E+02  0.39500164585E+02 -0.24255417269E+03  0.24676620927E+03  0.82449607608E+01 0.  0.
         22    1    3    3    0    0 -0.20803676725E+02 -0.39500164585E+02 -0.16279943406E+03  0.16880969077E+03  0.00000000000E+00 0.  1.
         22    1    4    4    0    0  0.16787208737E+02  0.35820634974E+02 -0.20093532766E+03  0.20479241727E+03  0.00000000000E+00 0.  1.
         22    1    4    4    0    0  0.40164679875E+01  0.36795296117E+01 -0.41618845029E+02  0.41973791999E+02  0.00000000000E+00 0.  1.
<mgrwt>
<rscale>  0 0.91606671E+02</rscale>
<asrwt>0</asrwt>
<pdfrwt beam="2">  1        3 0.63148397E-01 0.91606671E+02</pdfrwt>
<pdfrwt beam="1">  1       -3 0.78633058E-03 0.91606671E+02</pdfrwt>
<totfact> 0.19900809E+04</totfact>
</mgrwt>
</event>
<event>
 7    1  0.1312339E-009  0.9122545E+02  0.7818608E-02  0.1299911E+00
         -3   -1    0    0    0  501 -0.00000000000E+00  0.00000000000E+00  0.83596990292E+02  0.83597051305E+02  0.10100000000E+00 0.  1.
          3   -1    0    0  501    0  0.00000000000E+00 -0.00000000000E+00 -0.24887334296E+02  0.24887539239E+02  0.10100000000E+00 0. -1.
         23    2    1    2    0    0  0.00000000000E+00  0.00000000000E+00  0.58709655996E+02  0.10848459054E+03  0.91225449730E+02 0.  0.
    9000005    2    3    3    0    0  0.22333403760E+02 -0.20119187886E+01  0.75700102428E+02  0.80350909472E+02  0.14930988067E+02 0.  0.
         22    1    3    3    0    0 -0.22333403760E+02  0.20119187886E+01 -0.16990446432E+02  0.28133681073E+02  0.00000000000E+00 0. -1.
         22    1    4    4    0    0 -0.16288279231E+01 -0.24480371478E+01  0.95960611641E+01  0.10036451372E+02  0.00000000000E+00 0. -1.
         22    1    4    4    0    0  0.23962231683E+02  0.43611835924E+00  0.66104041264E+02  0.70314458100E+02  0.00000000000E+00 0. -1.
<mgrwt>
<rscale>  0 0.91225450E+02</rscale>
<asrwt>0</asrwt>
<pdfrwt beam="2">  1        3 0.38288412E-02 0.91225450E+02</pdfrwt>
<pdfrwt beam="1">  1       -3 0.12861096E-01 0.91225450E+02</pdfrwt>
<totfact> 0.34005392E+04</totfact>
</mgrwt>
</event>
<event>
 7    1  0.1312339E-009  0.1020903E+03  0.7818608E-02  0.1275961E+00
         -3   -1    0    0    0  501 -0.00000000000E+00  0.00000000000E+00  0.10617837628E+02  0.10618317988E+02  0.10100000000E+00 0.  1.
          3   -1    0    0  501    0  0.00000000000E+00 -0.00000000000E+00 -0.24539299750E+03  0.24539301829E+03  0.10100000000E+00 0. -1.
         23    2    1    2    0    0  0.17763568394E-14 -0.71054273576E-14 -0.23477515987E+03  0.25601133627E+03  0.10209029634E+03 0.  0.
    9000005    2    3    3    0    0 -0.13604191224E+02  0.39399398720E+02 -0.19087620214E+03  0.19547618014E+03  0.63107701384E+01 0.  0.
         22    1    3    3    0    0  0.13604191224E+02 -0.39399398720E+02 -0.43898957738E+02  0.60535156139E+02  0.00000000000E+00 0.  1.
         22    1    4    4    0    0  0.36112188568E+00  0.12629191188E+01 -0.10648128700E+02  0.10728840502E+02  0.00000000000E+00 0.  1.
         22    1    4    4    0    0 -0.13965313110E+02  0.38136479601E+02 -0.18022807344E+03  0.18474733963E+03  0.00000000000E+00 0.  1.
<mgrwt>
<rscale>  0 0.10209030E+03</rscale>
<asrwt>0</asrwt>
<pdfrwt beam="2">  1        3 0.37752803E-01 0.10209030E+03</pdfrwt>
<pdfrwt beam="1">  1       -3 0.16335522E-02 0.10209030E+03</pdfrwt>
<totfact> 0.19021350E+04</totfact>
</mgrwt>
</event>
<event>
 7    1  0.1312339E-009  0.9149268E+02  0.7818608E-02  0.1299277E+00
         -3   -1    0    0    0  501 -0.00000000000E+00  0.00000000000E+00  0.34408572708E+02  0.34408720941E+02  0.10100000000E+00 0.  1.
          3   -1    0    0  501    0  0.00000000000E+00 -0.00000000000E+00 -0.60819625798E+02  0.60819709661E+02  0.10100000000E+00 0. -1.
         23    2    1    2    0    0 -0.35527136788E-14  0.00000000000E+00 -0.26411053090E+02  0.95228430602E+02  0.91492678776E+02 0.  0.
    9000005    2    3    3    0    0 -0.22273624682E+02  0.37730416326E+02 -0.58507273376E+01  0.46829818352E+02  0.15462929991E+02 0.  0.
         22    1    3    3    0    0  0.22273624682E+02 -0.37730416326E+02 -0.20560325752E+02  0.48398612249E+02  0.00000000000E+00 0.  1.
         22    1    4    4    0    0  0.18196257998E+01  0.15874935646E+00 -0.33801655765E+00  0.18575506999E+01  0.00000000000E+00 0. -1.
         22    1    4    4    0    0 -0.24093250481E+02  0.37571666970E+02 -0.55127107800E+01  0.44972267652E+02  0.00000000000E+00 0. -1.
<mgrwt>
<rscale>  0 0.91492679E+02</rscale>
<asrwt>0</asrwt>
<pdfrwt beam="2">  1        3 0.93568834E-02 0.91492679E+02</pdfrwt>
<pdfrwt beam="1">  1       -3 0.52936444E-02 0.91492679E+02</pdfrwt>
<totfact> 0.34700137E+04</totfact>
</mgrwt>
</event>
<event>
 7    1  0.1312339E-009  0.9067706E+02  0.7818608E-02  0.1301220E+00
         -3   -1    0    0    0  501 -0.00000000000E+00  0.00000000000E+00  0.10359596501E+03  0.10359601424E+03  0.10100000000E+00 0.  1.
          3   -1    0    0  501    0  0.00000000000E+00 -0.00000000000E+00 -0.19842117622E+02  0.19842374675E+02  0.10100000000E+00 0. -1.
         23    2    1    2    0    0  0.00000000000E+00  0.00000000000E+00  0.83753847383E+02  0.12343838892E+03  0.90677058325E+02 0.  0.
    9000005    2    3    3    0    0  0.19308916850E+02  0.36264048313E+02  0.18486878695E+02  0.46317103450E+02  0.10751461212E+02 0.  0.
         22    1    3    3    0    0 -0.19308916850E+02 -0.36264048313E+02  0.65266968689E+02  0.77121285465E+02  0.00000000000E+00 0.  1.
         22    1    4    4    0    0  0.40509210433E+01  0.12263349346E+01  0.14296577696E+01  0.44674131227E+01  0.00000000000E+00 0. -1.
         22    1    4    4    0    0  0.15257995807E+02  0.35037713378E+02  0.17057220925E+02  0.41849690327E+02  0.00000000000E+00 0. -1.
<mgrwt>
<rscale>  0 0.90677058E+02</rscale>
<asrwt>0</asrwt>
<pdfrwt beam="2">  1        3 0.30526570E-02 0.90677058E+02</pdfrwt>
<pdfrwt beam="1">  1       -3 0.15937864E-01 0.90677058E+02</pdfrwt>
<totfact> 0.33510318E+04</totfact>
</mgrwt>
</event>
<event>
 7    1  0.1312339E-009  0.8632687E+02  0.7818608E-02  0.1311999E+00
         -3   -1    0    0    0  501 -0.00000000000E+00  0.00000000000E+00  0.16544979969E+02  0.16545288247E+02  0.10100000000E+00 0.  1.
          3   -1    0    0  501    0  0.00000000000E+00 -0.00000000000E+00 -0.11260572091E+03  0.11260576621E+03  0.10100000000E+00 0. -1.
         23    2    1    2    0    0  0.00000000000E+00  0.00000000000E+00 -0.96060740943E+02  0.12915105445E+03  0.86326872502E+02 0.  0.
    9000005    2    3    3    0    0  0.49674294082E+01  0.34643301382E+02 -0.83674941709E+02  0.92026376567E+02  0.15573195833E+02 0.  0.
         22    1    3    3    0    0 -0.49674294082E+01 -0.34643301382E+02 -0.12385799234E+02  0.37124677887E+02  0.00000000000E+00 0.  1.
         22    1    4    4    0    0 -0.33927411259E+01  0.18961866302E+02 -0.31661432208E+02  0.37060887138E+02  0.00000000000E+00 0. -1.
         22    1    4    4    0    0  0.83601705341E+01  0.15681435079E+02 -0.52013509501E+02  0.54965489429E+02  0.00000000000E+00 0. -1.
<mgrwt>
<rscale>  0 0.86326873E+02</rscale>
<asrwt>0</asrwt>
<pdfrwt beam="2">  1        3 0.17323984E-01 0.86326873E+02</pdfrwt>
<pdfrwt beam="1">  1       -3 0.25454088E-02 0.86326873E+02</pdfrwt>
<totfact> 0.37822011E+04</totfact>
</mgrwt>
</event>
<event>
 7    1  0.1312339E-009  0.9176630E+02  0.7818608E-02  0.1298630E+00
         -3   -1    0    0    0  501 -0.00000000000E+00  0.00000000000E+00  0.98259096825E+01  0.98264287556E+01  0.10100000000E+00 0.  1.
          3   -1    0    0  501    0  0.00000000000E+00 -0.00000000000E+00 -0.21425014274E+03  0.21425016655E+03  0.10100000000E+00 0. -1.
         23    2    1    2    0    0  0.00000000000E+00  0.00000000000E+00 -0.20442423306E+03  0.22407659531E+03  0.91766298286E+02 0.  0.
    9000005    2    3    3    0    0 -0.19479113948E+02  0.38956413472E+02 -0.81165363527E+02  0.93348683406E+02  0.15136790491E+02 0.  0.
         22    1    3    3    0    0  0.19479113948E+02 -0.38956413472E+02 -0.12325886953E+03  0.13072791190E+03  0.00000000000E+00 0. -1.
         22    1    4    4    0    0 -0.73850081404E+01  0.30338705957E+02 -0.53274015562E+02  0.61750272537E+02  0.00000000000E+00 0. -1.
         22    1    4    4    0    0 -0.12094105808E+02  0.86177075151E+01 -0.27891347965E+02  0.31598410869E+02  0.00000000000E+00 0. -1.
<mgrwt>
<rscale>  0 0.91766298E+02</rscale>
<asrwt>0</asrwt>
<pdfrwt beam="2">  1        3 0.32961599E-01 0.91766298E+02</pdfrwt>
<pdfrwt beam="1">  1       -3 0.15117203E-02 0.91766298E+02</pdfrwt>
<totfact> 0.26829197E+04</totfact>
</mgrwt>
</event>
<event>
 7    1  0.1312339E-009  0.8916692E+02  0.7818608E-02  0.1304882E+00
         -3   -1    0    0    0  501 -0.00000000000E+00  0.00000000000E+00  0.85695683277E+02  0.85695742796E+02  0.10100000000E+00 0.  1.
          3   -1    0    0  501    0  0.00000000000E+00 -0.00000000000E+00 -0.23194511607E+02  0.23194731507E+02  0.10100000000E+00 0. -1.
         23    2    1    2    0    0  0.00000000000E+00  0.00000000000E+00  0.62501171670E+02  0.10889047430E+03  0.89166916139E+02 0.  0.
    9000005    2    3    3    0    0 -0.37997237458E+02  0.83832371613E+01  0.69577150891E+01  0.41073483152E+02  0.11160309101E+02 0.  0.
         22    1    3    3    0    0  0.37997237458E+02 -0.83832371613E+01  0.55543456581E+02  0.67816991150E+02  0.00000000000E+00 0.  1.
         22    1    4    4    0    0 -0.17382249770E+02 -0.16160841014E+01  0.45144213583E+01  0.18031481777E+02  0.00000000000E+00 0.  1.
         22    1    4    4    0    0 -0.20614987688E+02  0.99993212627E+01  0.24432937309E+01  0.23042001375E+02  0.00000000000E+00 0.  1.
<mgrwt>
<rscale>  0 0.89166916E+02</rscale>
<asrwt>0</asrwt>
<pdfrwt beam="2">  1        3 0.35684079E-02 0.89166916E+02</pdfrwt>
<pdfrwt beam="1">  1       -3 0.13183973E-01 0.89166916E+02</pdfrwt>
<totfact> 0.36145447E+04</totfact>
</mgrwt>
</event>
<event>
 7    1  0.1312339E-009  0.8847545E+02  0.7818608E-02  0.1306586E+00
          3   -1    0    0  501    0  0.00000000000E+00  0.00000000000E+00  0.19065537252E+02  0.19065804775E+02  0.10100000000E+00 0. -1.
         -3   -1    0    0    0  501 -0.00000000000E+00 -0.00000000000E+00 -0.10264368124E+03  0.10264373093E+03  0.10100000000E+00 0.  1.
         23    2    1    2    0    0  0.00000000000E+00  0.35527136788E-14 -0.83578143988E+02  0.12170953571E+03  0.88475448172E+02 0.  0.
    9000005    2    3    3    0    0  0.92328750104E+01 -0.16794171069E+02  0.12636540778E+02  0.23604715602E+02  0.54963872667E+01 0.  0.
         22    1    3    3    0    0 -0.92328750104E+01  0.16794171069E+02 -0.96214684767E+02  0.98104820104E+02  0.00000000000E+00 0.  1.
         22    1    4    4    0    0  0.96454582307E+01 -0.15561729202E+02  0.10505087448E+02  0.21108271898E+02  0.00000000000E+00 0. -1.
         22    1    4    4    0    0 -0.41258322030E+00 -0.12324418663E+01  0.21314533304E+01  0.24964437039E+01  0.00000000000E+00 0. -1.
<mgrwt>
<rscale>  0 0.88475448E+02</rscale>
<asrwt>0</asrwt>
<pdfrwt beam="1">  1        3 0.29331840E-02 0.88475448E+02</pdfrwt>
<pdfrwt beam="2">  1       -3 0.15791360E-01 0.88475448E+02</pdfrwt>
<totfact> 0.35941478E+04</totfact>
</mgrwt>
</event>
<event>
 7    1  0.1312339E-009  0.8703970E+02  0.7818608E-02  0.1310183E+00
          3   -1    0    0  501    0  0.00000000000E+00  0.00000000000E+00  0.89047935901E+01  0.89053663530E+01  0.10100000000E+00 0. -1.
         -3   -1    0    0    0  501 -0.00000000000E+00 -0.00000000000E+00 -0.21268445224E+03  0.21268447622E+03  0.10100000000E+00 0.  1.
         23    2    1    2    0    0 -0.71054273576E-14  0.17763568394E-14 -0.20377965865E+03  0.22158984258E+03  0.87039698143E+02 0.  0.
    9000005    2    3    3    0    0 -0.41708974275E+02  0.82393438375E+01 -0.10626044375E+03  0.11520599701E+03  0.13176286262E+02 0.  0.
         22    1    3    3    0    0  0.41708974275E+02 -0.82393438375E+01 -0.97519214906E+02  0.10638384557E+03  0.00000000000E+00 0.  1.
         22    1    4    4    0    0 -0.20379922655E+02  0.73566175979E+01 -0.68305609831E+02  0.71659733493E+02  0.00000000000E+00 0.  1.
         22    1    4    4    0    0 -0.21329051621E+02  0.88272623957E+00 -0.37954833915E+02  0.43546263515E+02  0.00000000000E+00 0.  1.
<mgrwt>
<rscale>  0 0.87039698E+02</rscale>
<asrwt>0</asrwt>
<pdfrwt beam="1">  1        3 0.13700143E-02 0.87039698E+02</pdfrwt>
<pdfrwt beam="2">  1       -3 0.32720727E-01 0.87039698E+02</pdfrwt>
<totfact> 0.31055824E+04</totfact>
</mgrwt>
</event>
<event>
 7    1  0.1312339E-009  0.9211377E+02  0.7818608E-02  0.1297812E+00
          3   -1    0    0  501    0  0.00000000000E+00  0.00000000000E+00  0.94531216195E+02  0.94531270150E+02  0.10100000000E+00 0. -1.
         -3   -1    0    0    0  501 -0.00000000000E+00 -0.00000000000E+00 -0.22439362002E+02  0.22439589302E+02  0.10100000000E+00 0.  1.
         23    2    1    2    0    0  0.00000000000E+00  0.17763568394E-14  0.72091854193E+02  0.11697085945E+03  0.92113769438E+02 0.  0.
    9000005    2    3    3    0    0  0.19648334828E+02 -0.14270429437E+02  0.85373193837E+02  0.89292416567E+02  0.97391587249E+01 0.  0.
         22    1    3    3    0    0 -0.19648334828E+02  0.14270429437E+02 -0.13281339644E+02  0.27678442886E+02  0.00000000000E+00 0.  1.
         22    1    4    4    0    0  0.14005260253E+02 -0.14943385839E+02  0.67027640134E+02  0.70086779331E+02  0.00000000000E+00 0. -1.
         22    1    4    4    0    0  0.56430745751E+01  0.67295640161E+00  0.18345553703E+02  0.19205637236E+02  0.00000000000E+00 0. -1.
<mgrwt>
<rscale>  0 0.92113769E+02</rscale>
<asrwt>0</asrwt>
<pdfrwt beam="1">  1        3 0.14543286E-01 0.92113769E+02</pdfrwt>
<pdfrwt beam="2">  1       -3 0.34522312E-02 0.92113769E+02</pdfrwt>
<totfact> 0.32536382E+04</totfact>
</mgrwt>
</event>
<event>
 7    1  0.1312339E-009  0.9077614E+02  0.7818608E-02  0.1300983E+00
         -3   -1    0    0    0  501 -0.00000000000E+00  0.00000000000E+00  0.34697666590E+03  0.34697668060E+03  0.10100000000E+00 0.  1.
          3   -1    0    0  501    0  0.00000000000E+00 -0.00000000000E+00 -0.59367752990E+01  0.59376343733E+01  0.10100000000E+00 0. -1.
         23    2    1    2    0    0  0.71054273576E-14  0.00000000000E+00  0.34103989060E+03  0.35291431497E+03  0.90776135254E+02 0.  0.
    9000005    2    3    3    0    0 -0.39271942582E+02 -0.13688705275E+02  0.23580786262E+03  0.23976200240E+03  0.12280211639E+02 0.  0.
         22    1    3    3    0    0  0.39271942582E+02  0.13688705275E+02  0.10523202798E+03  0.11315231256E+03  0.00000000000E+00 0. -1.
         22    1    4    4    0    0 -0.96504212791E+01 -0.77348773920E+01  0.90923214950E+02  0.91760503355E+02  0.00000000000E+00 0. -1.
         22    1    4    4    0    0 -0.29621521303E+02 -0.59538278826E+01  0.14488464767E+03  0.14800149905E+03  0.00000000000E+00 0. -1.
<mgrwt>
<rscale>  0 0.90776135E+02</rscale>
<asrwt>0</asrwt>
<pdfrwt beam="2">  1        3 0.91341710E-03 0.90776135E+02</pdfrwt>
<pdfrwt beam="1">  1       -3 0.53381102E-01 0.90776135E+02</pdfrwt>
<totfact> 0.22369240E+04</totfact>
</mgrwt>
</event>
<event>
 7    1  0.1312339E-009  0.9504815E+02  0.7818608E-02  0.1291068E+00
         -3   -1    0    0    0  501 -0.00000000000E+00  0.00000000000E+00  0.21206306586E+02  0.21206547103E+02  0.10100000000E+00 0.  1.
          3   -1    0    0  501    0  0.00000000000E+00 -0.00000000000E+00 -0.10650224734E+03  0.10650229523E+03  0.10100000000E+00 0. -1.
         23    2    1    2    0    0  0.00000000000E+00  0.00000000000E+00 -0.85295940757E+02  0.12770884234E+03  0.95048150438E+02 0.  0.
    9000005    2    3    3    0    0 -0.28814090063E+02  0.11770291110E+02 -0.90602218334E+02  0.96134357058E+02  0.80163022097E+01 0.  0.
         22    1    3    3    0    0  0.28814090063E+02 -0.11770291110E+02  0.53062775764E+01  0.31574485279E+02  0.00000000000E+00 0.  1.
         22    1    4    4    0    0 -0.12616961254E+02  0.18775073359E+01 -0.29169160810E+02  0.31836342243E+02  0.00000000000E+00 0. -1.
         22    1    4    4    0    0 -0.16197128808E+02  0.98927837738E+01 -0.61433057524E+02  0.64298014815E+02  0.00000000000E+00 0. -1.
<mgrwt>
<rscale>  0 0.95048150E+02</rscale>
<asrwt>0</asrwt>
<pdfrwt beam="2">  1        3 0.16384983E-01 0.95048150E+02</pdfrwt>
<pdfrwt beam="1">  1       -3 0.32625310E-02 0.95048150E+02</pdfrwt>
<totfact> 0.29221801E+04</totfact>
</mgrwt>
</event>
<event>
 7    1  0.1312339E-009  0.9111267E+02  0.7818608E-02  0.1300179E+00
         -3   -1    0    0    0  501 -0.00000000000E+00  0.00000000000E+00  0.64980221593E+02  0.64980300086E+02  0.10100000000E+00 0. -1.
          3   -1    0    0  501    0  0.00000000000E+00 -0.00000000000E+00 -0.31938460047E+02  0.31938619744E+02  0.10100000000E+00 0.  1.
         23    2    1    2    0    0  0.00000000000E+00 -0.44408920985E-15  0.33041761546E+02  0.96918919830E+02  0.91112672087E+02 0.  0.
    9000005    2    3    3    0    0  0.22181220399E+02 -0.86489648872E+00 -0.23612593907E+02  0.36070989905E+02  0.15836891658E+02 0.  0.
         22    1    3    3    0    0 -0.22181220399E+02  0.86489648872E+00  0.56654355453E+02  0.60847929925E+02  0.00000000000E+00 0. -1.
         22    1    4    4    0    0  0.13289025723E+02  0.66895354145E+01 -0.90633691053E+01  0.17421043260E+02  0.00000000000E+00 0. -1.
         22    1    4    4    0    0  0.88921946761E+01 -0.75544319032E+01 -0.14549224802E+02  0.18649946645E+02  0.00000000000E+00 0. -1.
<mgrwt>
<rscale>  0 0.91112672E+02</rscale>
<asrwt>0</asrwt>
<pdfrwt beam="2">  1        3 0.49136276E-02 0.91112672E+02</pdfrwt>
<pdfrwt beam="1">  1       -3 0.99969754E-02 0.91112672E+02</pdfrwt>
<totfact> 0.34969324E+04</totfact>
</mgrwt>
</event>
<event>
 7    1  0.1312339E-009  0.9119147E+02  0.7818608E-02  0.1299992E+00
         -3   -1    0    0    0  501 -0.00000000000E+00  0.00000000000E+00  0.71325665508E+02  0.71325737018E+02  0.10100000000E+00 0.  1.
          3   -1    0    0  501    0  0.00000000000E+00 -0.00000000000E+00 -0.29147414035E+02  0.29147589024E+02  0.10100000000E+00 0. -1.
         23    2    1    2    0    0  0.00000000000E+00  0.00000000000E+00  0.42178251474E+02  0.10047332604E+03  0.91191470811E+02 0.  0.
    9000005    2    3    3    0    0 -0.18853164073E+02  0.31470029916E+02  0.49927982879E+02  0.62978487526E+02  0.11299638856E+02 0.  0.
         22    1    3    3    0    0  0.18853164073E+02 -0.31470029916E+02 -0.77497314055E+01  0.37494838516E+02  0.00000000000E+00 0. -1.
         22    1    4    4    0    0 -0.34907629110E+01  0.11535430603E+02  0.94529734999E+01  0.15316993598E+02  0.00000000000E+00 0.  1.
         22    1    4    4    0    0 -0.15362401162E+02  0.19934599313E+02  0.40475009379E+02  0.47661493928E+02  0.00000000000E+00 0.  1.
<mgrwt>
<rscale>  0 0.91191471E+02</rscale>
<asrwt>0</asrwt>
<pdfrwt beam="2">  1        3 0.44842365E-02 0.91191471E+02</pdfrwt>
<pdfrwt beam="1">  1       -3 0.10973198E-01 0.91191471E+02</pdfrwt>
<totfact> 0.34622196E+04</totfact>
</mgrwt>
</event>
<event>
 7    1  0.1312339E-009  0.9121858E+02  0.7818608E-02  0.1299927E+00
          3   -1    0    0  501    0  0.00000000000E+00  0.00000000000E+00  0.16924425175E+02  0.16924726541E+02  0.10100000000E+00 0. -1.
         -3   -1    0    0    0  501 -0.00000000000E+00 -0.00000000000E+00 -0.12291013559E+03  0.12291017709E+03  0.10100000000E+00 0.  1.
         23    2    1    2    0    0  0.00000000000E+00  0.00000000000E+00 -0.10598571042E+03  0.13983490363E+03  0.91218580679E+02 0.  0.
    9000005    2    3    3    0    0 -0.31716475233E+02 -0.26152721648E+02 -0.83136124931E+02  0.92802965467E+02  0.32977992604E+01 0.  0.
         22    1    3    3    0    0  0.31716475233E+02  0.26152721648E+02 -0.22849585488E+02  0.47031938168E+02  0.00000000000E+00 0. -1.
         22    1    4    4    0    0 -0.38615509015E+01 -0.18854032971E+01 -0.86380227957E+01  0.96478888248E+01  0.00000000000E+00 0.  1.
         22    1    4    4    0    0 -0.27854924332E+02 -0.24267318351E+02 -0.74498102136E+02  0.83155076642E+02  0.00000000000E+00 0.  1.
<mgrwt>
<rscale>  0 0.91218581E+02</rscale>
<asrwt>0</asrwt>
<pdfrwt beam="1">  1        3 0.26037842E-02 0.91218581E+02</pdfrwt>
<pdfrwt beam="2">  1       -3 0.18909277E-01 0.91218581E+02</pdfrwt>
<totfact> 0.31902421E+04</totfact>
</mgrwt>
</event>
<event>
 7    1  0.1312339E-009  0.9044596E+02  0.7818608E-02  0.1301775E+00
          3   -1    0    0  501    0  0.00000000000E+00  0.00000000000E+00  0.11498808136E+02  0.11499251695E+02  0.10100000000E+00 0. -1.
         -3   -1    0    0    0  501 -0.00000000000E+00 -0.00000000000E+00 -0.17785090512E+03  0.17785093380E+03  0.10100000000E+00 0.  1.
         23    2    1    2    0    0  0.00000000000E+00 -0.35527136788E-14 -0.16635209698E+03  0.18935018549E+03  0.90445964948E+02 0.  0.
    9000005    2    3    3    0    0 -0.36598150892E+02 -0.16250429890E+02 -0.12616614277E+03  0.13261913547E+03  0.81509748910E+01 0.  0.
         22    1    3    3    0    0  0.36598150892E+02  0.16250429890E+02 -0.40185954215E+02  0.56731050021E+02  0.00000000000E+00 0. -1.
         22    1    4    4    0    0 -0.35354648829E+01 -0.41559025775E+01 -0.21916107331E+02  0.22585101255E+02  0.00000000000E+00 0.  1.
         22    1    4    4    0    0 -0.33062686009E+02 -0.12094527313E+02 -0.10425003544E+03  0.11003403422E+03  0.00000000000E+00 0.  1.
<mgrwt>
<rscale>  0 0.90445965E+02</rscale>
<asrwt>0</asrwt>
<pdfrwt beam="1">  1        3 0.17690839E-02 0.90445965E+02</pdfrwt>
<pdfrwt beam="2">  1       -3 0.27361712E-01 0.90445965E+02</pdfrwt>
<totfact> 0.29695401E+04</totfact>
</mgrwt>
</event>
<event>
 7    1  0.1312339E-009  0.8976618E+02  0.7818608E-02  0.1303419E+00
         -3   -1    0    0    0  501 -0.00000000000E+00  0.00000000000E+00  0.12029268807E+03  0.12029273047E+03  0.10100000000E+00 0.  1.
          3   -1    0    0  501    0  0.00000000000E+00 -0.00000000000E+00 -0.16746387258E+02  0.16746691828E+02  0.10100000000E+00 0. -1.
         23    2    1    2    0    0  0.44408920985E-15  0.17763568394E-14  0.10354630081E+03  0.13703942230E+03  0.89766178777E+02 0.  0.
    9000005    2    3    3    0    0 -0.22845206908E+01 -0.14725042694E+02  0.11588736579E+03  0.11769135258E+03  0.14118321565E+02 0.  0.
         22    1    3    3    0    0  0.22845206908E+01  0.14725042694E+02 -0.12341064981E+02  0.19348069722E+02  0.00000000000E+00 0. -1.
         22    1    4    4    0    0 -0.28895945065E+01 -0.66842040113E+01  0.17238504832E+02  0.18713481464E+02  0.00000000000E+00 0.  1.
         22    1    4    4    0    0  0.60507381569E+00 -0.80408386825E+01  0.98648860962E+02  0.98977871114E+02  0.00000000000E+00 0.  1.
<mgrwt>
<rscale>  0 0.89766179E+02</rscale>
<asrwt>0</asrwt>
<pdfrwt beam="2">  1        3 0.25763940E-02 0.89766179E+02</pdfrwt>
<pdfrwt beam="1">  1       -3 0.18506594E-01 0.89766179E+02</pdfrwt>
<totfact> 0.33504142E+04</totfact>
</mgrwt>
</event>
<event>
 7    1  0.1312339E-009  0.8935763E+02  0.7818608E-02  0.1304415E+00
         -3   -1    0    0    0  501 -0.00000000000E+00  0.00000000000E+00  0.43911078429E+02  0.43911194584E+02  0.10100000000E+00 0.  1.
          3   -1    0    0  501    0  0.00000000000E+00 -0.00000000000E+00 -0.45459737476E+02  0.45459849674E+02  0.10100000000E+00 0. -1.
         23    2    1    2    0    0  0.00000000000E+00 -0.17763568394E-14 -0.15486590467E+01  0.89371044258E+02  0.89357625343E+02 0.  0.
    9000005    2    3    3    0    0  0.17386581543E+02 -0.12936671690E+02  0.38224053539E+02  0.44077343167E+02  0.34760925644E+01 0.  0.
         22    1    3    3    0    0 -0.17386581543E+02  0.12936671690E+02 -0.39772712585E+02  0.45293701092E+02  0.00000000000E+00 0. -1.
         22    1    4    4    0    0  0.69578049953E+01 -0.57426527940E+01  0.12653989610E+02  0.15540674519E+02  0.00000000000E+00 0.  1.
         22    1    4    4    0    0  0.10428776548E+02 -0.71940188964E+01  0.25570063929E+02  0.28536668648E+02  0.00000000000E+00 0.  1.
<mgrwt>
<rscale>  0 0.89357625E+02</rscale>
<asrwt>0</asrwt>
<pdfrwt beam="2">  1        3 0.69938233E-02 0.89357625E+02</pdfrwt>
<pdfrwt beam="1">  1       -3 0.67555681E-02 0.89357625E+02</pdfrwt>
<totfact> 0.37475941E+04</totfact>
</mgrwt>
</event>
<event>
 7    1  0.1312339E-009  0.9207093E+02  0.7818608E-02  0.1297913E+00
          3   -1    0    0  501    0  0.00000000000E+00  0.00000000000E+00  0.18947168273E+02  0.18947437467E+02  0.10100000000E+00 0. -1.
         -3   -1    0    0    0  501 -0.00000000000E+00 -0.00000000000E+00 -0.11185013553E+03  0.11185018114E+03  0.10100000000E+00 0.  1.
         23    2    1    2    0    0  0.00000000000E+00  0.00000000000E+00 -0.92902967261E+02  0.13079761860E+03  0.92070927584E+02 0.  0.
    9000005    2    3    3    0    0  0.44492586492E+02  0.10646777891E+02 -0.39900868227E+02  0.60782144354E+02  0.30733784088E+01 0.  0.
         22    1    3    3    0    0 -0.44492586492E+02 -0.10646777891E+02 -0.53002099034E+02  0.70015474248E+02  0.00000000000E+00 0.  1.
         22    1    4    4    0    0  0.29865790304E+02  0.66904061712E+01 -0.28486078449E+02  0.41811285924E+02  0.00000000000E+00 0.  1.
         22    1    4    4    0    0  0.14626796187E+02  0.39563717196E+01 -0.11414789778E+02  0.18970858430E+02  0.00000000000E+00 0.  1.
<mgrwt>
<rscale>  0 0.92070928E+02</rscale>
<asrwt>0</asrwt>
<pdfrwt beam="1">  1        3 0.29149732E-02 0.92070928E+02</pdfrwt>
<pdfrwt beam="2">  1       -3 0.17207737E-01 0.92070928E+02</pdfrwt>
<totfact> 0.31673569E+04</totfact>
</mgrwt>
</event>
<event>
 7    1  0.1312339E-009  0.9058124E+02  0.7818608E-02  0.1301450E+00
         -3   -1    0    0    0  501 -0.00000000000E+00  0.00000000000E+00  0.12129938370E+02  0.12130358851E+02  0.10100000000E+00 0.  1.
          3   -1    0    0  501    0  0.00000000000E+00 -0.00000000000E+00 -0.16910220288E+03  0.16910223304E+03  0.10100000000E+00 0. -1.
         23    2    1    2    0    0  0.00000000000E+00  0.71054273576E-14 -0.15697226451E+03  0.18123259190E+03  0.90581237235E+02 0.  0.
    9000005    2    3    3    0    0  0.37050256705E+00 -0.40240887982E+02 -0.39126558806E+02  0.56705178483E+02  0.80699024203E+01 0.  0.
         22    1    3    3    0    0 -0.37050256705E+00  0.40240887982E+02 -0.11784570571E+03  0.12452741341E+03  0.00000000000E+00 0.  1.
         22    1    4    4    0    0 -0.42768475111E+00 -0.39787278432E+02 -0.36777059947E+02  0.54182677838E+02  0.00000000000E+00 0. -1.
         22    1    4    4    0    0  0.79818731816E+00 -0.45360954941E+00 -0.23494988587E+01  0.25225006452E+01  0.00000000000E+00 0. -1.
<mgrwt>
<rscale>  0 0.90581237E+02</rscale>
<asrwt>0</asrwt>
<pdfrwt beam="2">  1        3 0.26015756E-01 0.90581237E+02</pdfrwt>
<pdfrwt beam="1">  1       -3 0.18661792E-02 0.90581237E+02</pdfrwt>
<totfact> 0.30024513E+04</totfact>
</mgrwt>
</event>
<event>
 7    1  0.1312339E-009  0.9046124E+02  0.7818608E-02  0.1301739E+00
          3   -1    0    0  501    0  0.00000000000E+00  0.00000000000E+00  0.88699436571E+01  0.88705186703E+01  0.10100000000E+00 0. -1.
         -3   -1    0    0    0  501 -0.00000000000E+00 -0.00000000000E+00 -0.23063705696E+03  0.23063707907E+03  0.10100000000E+00 0.  1.
         23    2    1    2    0    0  0.00000000000E+00  0.00000000000E+00 -0.22176711330E+03  0.23950759774E+03  0.90461244933E+02 0.  0.
    9000005    2    3    3    0    0 -0.40848220096E+02 -0.33085971060E+01 -0.63824060143E+02  0.76334279028E+02  0.85957897679E+01 0.  0.
         22    1    3    3    0    0  0.40848220096E+02  0.33085971060E+01 -0.15794305315E+03  0.16317331871E+03  0.00000000000E+00 0.  1.
         22    1    4    4    0    0 -0.22597731342E+02 -0.10784758997E+00 -0.42099544388E+02  0.47781175483E+02  0.00000000000E+00 0. -1.
         22    1    4    4    0    0 -0.18250488754E+02 -0.32007495160E+01 -0.21724515755E+02  0.28553103544E+02  0.00000000000E+00 0. -1.
<mgrwt>
<rscale>  0 0.90461245E+02</rscale>
<asrwt>0</asrwt>
<pdfrwt beam="1">  1        3 0.13646528E-02 0.90461245E+02</pdfrwt>
<pdfrwt beam="2">  1       -3 0.35482666E-01 0.90461245E+02</pdfrwt>
<totfact> 0.27142132E+04</totfact>
</mgrwt>
</event>
<event>
 7    1  0.1312339E-009  0.9013488E+02  0.7818608E-02  0.1302525E+00
          3   -1    0    0  501    0  0.00000000000E+00  0.00000000000E+00  0.29329489386E+02  0.29329663289E+02  0.10100000000E+00 0. -1.
         -3   -1    0    0    0  501 -0.00000000000E+00 -0.00000000000E+00 -0.69249825894E+02  0.69249899548E+02  0.10100000000E+00 0.  1.
         23    2    1    2    0    0  0.00000000000E+00  0.00000000000E+00 -0.39920336508E+02  0.98579562837E+02  0.90134881939E+02 0.  0.
    9000005    2    3    3    0    0 -0.75044234189E+01 -0.17480354416E+02  0.22472646820E+02  0.33351014410E+02  0.15664965551E+02 0.  0.
         22    1    3    3    0    0  0.75044234189E+01  0.17480354416E+02 -0.62392983328E+02  0.65228548427E+02  0.00000000000E+00 0.  1.
         22    1    4    4    0    0 -0.12137460774E+01 -0.13262743361E+02  0.48568860129E+01  0.14176137794E+02  0.00000000000E+00 0.  1.
         22    1    4    4    0    0 -0.62906773415E+01 -0.42176110546E+01  0.17615760807E+02  0.19174876616E+02  0.00000000000E+00 0.  1.
<mgrwt>
<rscale>  0 0.90134882E+02</rscale>
<asrwt>0</asrwt>
<pdfrwt beam="1">  1        3 0.45122482E-02 0.90134882E+02</pdfrwt>
<pdfrwt beam="2">  1       -3 0.10653838E-01 0.90134882E+02</pdfrwt>
<totfact> 0.35881173E+04</totfact>
</mgrwt>
</event>
<event>
 7    1  0.1312339E-009  0.9126583E+02  0.7818608E-02  0.1299815E+00
          3   -1    0    0  501    0  0.00000000000E+00  0.00000000000E+00  0.12309804135E+03  0.12309808279E+03  0.10100000000E+00 0. -1.
         -3   -1    0    0    0  501 -0.00000000000E+00 -0.00000000000E+00 -0.16916100328E+02  0.16916401842E+02  0.10100000000E+00 0.  1.
         23    2    1    2    0    0  0.00000000000E+00 -0.35527136788E-14  0.10618194102E+03  0.14001448463E+03  0.91265827702E+02 0.  0.
    9000005    2    3    3    0    0 -0.33607205792E+02 -0.26773680610E+02  0.73252182356E+02  0.85879068674E+02  0.12769415097E+02 0.  0.
         22    1    3    3    0    0  0.33607205792E+02  0.26773680610E+02  0.32929758668E+02  0.54135415954E+02  0.00000000000E+00 0. -1.
         22    1    4    4    0    0 -0.34732545412E+02 -0.25970414162E+02  0.71742220456E+02  0.83831726205E+02  0.00000000000E+00 0.  1.
         22    1    4    4    0    0  0.11253396202E+01 -0.80326644801E+00  0.15099618997E+01  0.20473424691E+01  0.00000000000E+00 0.  1.
<mgrwt>
<rscale>  0 0.91265828E+02</rscale>
<asrwt>0</asrwt>
<pdfrwt beam="1">  1        3 0.18938187E-01 0.91265828E+02</pdfrwt>
<pdfrwt beam="2">  1       -3 0.26025033E-02 0.91265828E+02</pdfrwt>
<totfact> 0.31844820E+04</totfact>
</mgrwt>
</event>
<event>
 7    1  0.1312339E-009  0.8982299E+02  0.7818608E-02  0.1303281E+00
          3   -1    0    0  501    0  0.00000000000E+00  0.00000000000E+00  0.23471689472E+01  0.23493409856E+01  0.10100000000E+00 0. -1.
         -3   -1    0    0    0  501 -0.00000000000E+00 -0.00000000000E+00 -0.85895158961E+03  0.85895159555E+03  0.10100000000E+00 0.  1.
         23    2    1    2    0    0  0.00000000000E+00  0.00000000000E+00 -0.85660442066E+03  0.86130093653E+03  0.89822991348E+02 0.  0.
    9000005    2    3    3    0    0 -0.13387417491E+02  0.33480074146E+02 -0.67698628980E+03  0.67809937746E+03  0.14428819226E+02 0.  0.
         22    1    3    3    0    0  0.13387417491E+02 -0.33480074146E+02 -0.17961813086E+03  0.18320155907E+03  0.00000000000E+00 0. -1.
         22    1    4    4    0    0 -0.46744508276E+00  0.70848660805E+01 -0.25110090822E+03  0.25120127376E+03  0.00000000000E+00 0.  1.
         22    1    4    4    0    0 -0.12919972409E+02  0.26395208065E+02 -0.42588538159E+03  0.42689810370E+03  0.00000000000E+00 0.  1.
<mgrwt>
<rscale>  0 0.89822991E+02</rscale>
<asrwt>0</asrwt>
<pdfrwt beam="1">  1        3 0.36127114E-03 0.89822991E+02</pdfrwt>
<pdfrwt beam="2">  1       -3 0.13214631E+00 0.89822991E+02</pdfrwt>
<totfact> 0.12030868E+04</totfact>
</mgrwt>
</event>
<event>
 7    1  0.1312339E-009  0.9198463E+02  0.7818608E-02  0.1298116E+00
         -3   -1    0    0    0  501 -0.00000000000E+00  0.00000000000E+00  0.14767350925E+02  0.14767696311E+02  0.10100000000E+00 0.  1.
          3   -1    0    0  501    0  0.00000000000E+00 -0.00000000000E+00 -0.14323917185E+03  0.14323920746E+03  0.10100000000E+00 0. -1.
         23    2    1    2    0    0  0.35527136788E-14  0.44408920985E-15 -0.12847182092E+03  0.15800690377E+03  0.91984633863E+02 0.  0.
    9000005    2    3    3    0    0 -0.22950778179E+02 -0.34606330524E+01 -0.13228861824E+03  0.13448495355E+03  0.68709544109E+01 0.  0.
         22    1    3    3    0    0  0.22950778179E+02  0.34606330524E+01  0.38167973224E+01  0.23521950216E+02  0.00000000000E+00 0.  1.
         22    1    4    4    0    0 -0.63010998872E+01  0.66064832203E+00 -0.22920697051E+02  0.23780215922E+02  0.00000000000E+00 0. -1.
         22    1    4    4    0    0 -0.16649678292E+02 -0.41212813744E+01 -0.10936792119E+03  0.11070473763E+03  0.00000000000E+00 0. -1.
<mgrwt>
<rscale>  0 0.91984634E+02</rscale>
<asrwt>0</asrwt>
<pdfrwt beam="2">  1        3 0.22036824E-01 0.91984634E+02</pdfrwt>
<pdfrwt beam="1">  1       -3 0.22719295E-02 0.91984634E+02</pdfrwt>
<totfact> 0.30095662E+04</totfact>
</mgrwt>
</event>
<event>
 7    1  0.1312339E-009  0.9355503E+02  0.7818608E-02  0.1294464E+00
          3   -1    0    0  501    0  0.00000000000E+00  0.00000000000E+00  0.55638822114E+02  0.55638913786E+02  0.10100000000E+00 0. -1.
         -3   -1    0    0    0  501 -0.00000000000E+00 -0.00000000000E+00 -0.39327315304E+02  0.39327444997E+02  0.10100000000E+00 0.  1.
         23    2    1    2    0    0  0.35527136788E-14 -0.22204460493E-15  0.16311506811E+02  0.94966358783E+02  0.93555032179E+02 0.  0.
    9000005    2    3    3    0    0  0.16307541254E+02 -0.11586346863E+01  0.52355428814E+02  0.55388048442E+02  0.77114621074E+01 0.  0.
         22    1    3    3    0    0 -0.16307541254E+02  0.11586346863E+01 -0.36043922003E+02  0.39578310341E+02  0.00000000000E+00 0.  1.
         22    1    4    4    0    0  0.58510843650E+01  0.16508134187E+01  0.29201415623E+02  0.29827555173E+02  0.00000000000E+00 0.  1.
         22    1    4    4    0    0  0.10456456889E+02 -0.28094481050E+01  0.23154013191E+02  0.25560493269E+02  0.00000000000E+00 0.  1.
<mgrwt>
<rscale>  0 0.93555032E+02</rscale>
<asrwt>0</asrwt>
<pdfrwt beam="1">  1        3 0.85598357E-02 0.93555032E+02</pdfrwt>
<pdfrwt beam="2">  1       -3 0.60503733E-02 0.93555032E+02</pdfrwt>
<totfact> 0.32669034E+04</totfact>
</mgrwt>
</event>
<event>
 7    1  0.1312339E-009  0.9164571E+02  0.7818608E-02  0.1298915E+00
          3   -1    0    0  501    0  0.00000000000E+00  0.00000000000E+00  0.12275059102E+01  0.12316540746E+01  0.10100000000E+00 0. -1.
         -3   -1    0    0    0  501 -0.00000000000E+00 -0.00000000000E+00 -0.17076799959E+04  0.17076799989E+04  0.10100000000E+00 0.  1.
         23    2    1    2    0    0  0.00000000000E+00 -0.66613381478E-15 -0.17064524900E+04  0.17089116529E+04  0.91645714764E+02 0.  0.
    9000005    2    3    3    0    0  0.19944435524E+02 -0.17063935253E+01 -0.16190696168E+04  0.16192653546E+04  0.15269976862E+02 0.  0.
         22    1    3    3    0    0 -0.19944435524E+02  0.17063935253E+01 -0.87382873121E+02  0.89646298318E+02  0.00000000000E+00 0. -1.
         22    1    4    4    0    0  0.11940547799E+02  0.64856104826E+01 -0.96138831999E+03  0.96148434289E+03  0.00000000000E+00 0.  1.
         22    1    4    4    0    0  0.80038877254E+01 -0.81920040079E+01 -0.65768129686E+03  0.65778101173E+03  0.00000000000E+00 0.  1.
<mgrwt>
<rscale>  0 0.91645715E+02</rscale>
<asrwt>0</asrwt>
<pdfrwt beam="1">  1        3 0.18916775E-03 0.91645715E+02</pdfrwt>
<pdfrwt beam="2">  1       -3 0.26271842E+00 0.91645715E+02</pdfrwt>
<totfact> 0.48458627E+03</totfact>
</mgrwt>
</event>
<event>
 7    1  0.1312339E-009  0.9076666E+02  0.7818608E-02  0.1301006E+00
         -3   -1    0    0    0  501 -0.00000000000E+00  0.00000000000E+00  0.51352257093E+02  0.51352356417E+02  0.10100000000E+00 0.  1.
          3   -1    0    0  501    0  0.00000000000E+00 -0.00000000000E+00 -0.40107999654E+02  0.40108126823E+02  0.10100000000E+00 0. -1.
         23    2    1    2    0    0  0.35527136788E-14  0.44408920985E-15  0.11244257439E+02  0.91460483240E+02  0.90766660559E+02 0.  0.
    9000005    2    3    3    0    0 -0.22252926475E+02  0.26312569000E+01 -0.32609869208E+02  0.42213141448E+02  0.14711542799E+02 0.  0.
         22    1    3    3    0    0  0.22252926475E+02 -0.26312569000E+01  0.43854126647E+02  0.49247341792E+02  0.00000000000E+00 0.  1.
         22    1    4    4    0    0 -0.99712695925E+01 -0.56091767172E+01 -0.18625647646E+02  0.21858724367E+02  0.00000000000E+00 0. -1.
         22    1    4    4    0    0 -0.12281656883E+02  0.82404336172E+01 -0.13984221562E+02  0.20354417080E+02  0.00000000000E+00 0. -1.
<mgrwt>
<rscale>  0 0.90766661E+02</rscale>
<asrwt>0</asrwt>
<pdfrwt beam="2">  1        3 0.61704789E-02 0.90766661E+02</pdfrwt>
<pdfrwt beam="1">  1       -3 0.79003646E-02 0.90766661E+02</pdfrwt>
<totfact> 0.35753756E+04</totfact>
</mgrwt>
</event>
<event>
 7    1  0.1312339E-009  0.9075063E+02  0.7818608E-02  0.1301044E+00
          3   -1    0    0  501    0  0.00000000000E+00  0.00000000000E+00  0.22731172550E+02  0.22731396932E+02  0.10100000000E+00 0. -1.
         -3   -1    0    0    0  501 -0.00000000000E+00 -0.00000000000E+00 -0.90576198400E+02  0.90576254712E+02  0.10100000000E+00 0.  1.
         23    2    1    2    0    0  0.00000000000E+00  0.00000000000E+00 -0.67845025850E+02  0.11330765164E+03  0.90750627483E+02 0.  0.
    9000005    2    3    3    0    0 -0.28238699356E+02  0.26724625521E+02 -0.56068136482E+01  0.39923560666E+02  0.71291364434E+01 0.  0.
         22    1    3    3    0    0  0.28238699356E+02 -0.26724625521E+02 -0.62238212202E+02  0.73384090978E+02  0.00000000000E+00 0. -1.
         22    1    4    4    0    0 -0.83386160848E+00  0.21481584514E+01 -0.17853523116E+01  0.29150287805E+01  0.00000000000E+00 0.  1.
         22    1    4    4    0    0 -0.27404837747E+02  0.24576467070E+02 -0.38214613365E+01  0.37008531886E+02  0.00000000000E+00 0.  1.
<mgrwt>
<rscale>  0 0.90750627E+02</rscale>
<asrwt>0</asrwt>
<pdfrwt beam="1">  1        3 0.34971251E-02 0.90750627E+02</pdfrwt>
<pdfrwt beam="2">  1       -3 0.13934821E-01 0.90750627E+02</pdfrwt>
<totfact> 0.34143765E+04</totfact>
</mgrwt>
</event>
<event>
 7    1  0.1312339E-009  0.9018250E+02  0.7818608E-02  0.1302410E+00
         -3   -1    0    0    0  501 -0.00000000000E+00  0.00000000000E+00  0.64242064675E+02  0.64242144070E+02  0.10100000000E+00 0.  1.
          3   -1    0    0  501    0  0.00000000000E+00 -0.00000000000E+00 -0.31649192590E+02  0.31649353747E+02  0.10100000000E+00 0. -1.
         23    2    1    2    0    0  0.00000000000E+00  0.00000000000E+00  0.32592872085E+02  0.95891497816E+02  0.90182504083E+02 0.  0.
    9000005    2    3    3    0    0 -0.32891714077E+01 -0.26817510843E+02  0.54404369378E+02  0.61167745851E+02  0.71875022501E+01 0.  0.
         22    1    3    3    0    0  0.32891714077E+01  0.26817510843E+02 -0.21811497294E+02  0.34723751966E+02  0.00000000000E+00 0. -1.
         22    1    4    4    0    0  0.43817008104E+00 -0.21174318523E+02  0.40326689422E+02  0.45549814903E+02  0.00000000000E+00 0.  1.
         22    1    4    4    0    0 -0.37273414887E+01 -0.56431923207E+01  0.14077679956E+02  0.15617930948E+02  0.00000000000E+00 0.  1.
<mgrwt>
<rscale>  0 0.90182504E+02</rscale>
<asrwt>0</asrwt>
<pdfrwt beam="2">  1        3 0.48691251E-02 0.90182504E+02</pdfrwt>
<pdfrwt beam="1">  1       -3 0.98834130E-02 0.90182504E+02</pdfrwt>
<totfact> 0.36037841E+04</totfact>
</mgrwt>
</event>
<event>
 7    1  0.1312339E-009  0.9067637E+02  0.7818608E-02  0.1301222E+00
          3   -1    0    0  501    0  0.00000000000E+00  0.00000000000E+00  0.12612706084E+03  0.12612710128E+03  0.10100000000E+00 0. -1.
         -3   -1    0    0    0  501 -0.00000000000E+00 -0.00000000000E+00 -0.16297263971E+02  0.16297576935E+02  0.10100000000E+00 0.  1.
         23    2    1    2    0    0  0.17763568394E-14  0.00000000000E+00  0.10982979687E+03  0.14242467822E+03  0.90676373354E+02 0.  0.
    9000005    2    3    3    0    0  0.91333903008E+01  0.40353853355E+02  0.26330643302E+02  0.49236905705E+02  0.43723915397E+01 0.  0.
         22    1    3    3    0    0 -0.91333903008E+01 -0.40353853355E+02  0.83499153571E+02  0.93187772514E+02  0.00000000000E+00 0. -1.
         22    1    4    4    0    0  0.50773858437E+01  0.29685783179E+02  0.20392689585E+02  0.36371518507E+02  0.00000000000E+00 0.  1.
         22    1    4    4    0    0  0.40560044572E+01  0.10668070175E+02  0.59379537166E+01  0.12865387198E+02  0.00000000000E+00 0.  1.
<mgrwt>
<rscale>  0 0.90676373E+02</rscale>
<asrwt>0</asrwt>
<pdfrwt beam="1">  1        3 0.19404191E-01 0.90676373E+02</pdfrwt>
<pdfrwt beam="2">  1       -3 0.25072985E-02 0.90676373E+02</pdfrwt>
<totfact> 0.32253906E+04</totfact>
</mgrwt>
</event>
<event>
 7    1  0.1312339E-009  0.9147671E+02  0.7818608E-02  0.1299315E+00
         -3   -1    0    0    0  501 -0.00000000000E+00  0.00000000000E+00  0.49711810369E+02  0.49711912970E+02  0.10100000000E+00 0.  1.
          3   -1    0    0  501    0  0.00000000000E+00 -0.00000000000E+00 -0.42082291143E+02  0.42082412346E+02  0.10100000000E+00 0. -1.
         23    2    1    2    0    0  0.00000000000E+00  0.00000000000E+00  0.76295192252E+01  0.91794325316E+02  0.91476710679E+02 0.  0.
    9000005    2    3    3    0    0 -0.37632884366E+02 -0.17426936676E+02 -0.13772685511E+02  0.45125422659E+02  0.11255434083E+02 0.  0.
         22    1    3    3    0    0  0.37632884366E+02  0.17426936676E+02  0.21402204737E+02  0.46668902657E+02  0.00000000000E+00 0.  1.
         22    1    4    4    0    0 -0.33849606128E+02 -0.11781712117E+02 -0.94318161167E+01  0.37061620724E+02  0.00000000000E+00 0.  1.
         22    1    4    4    0    0 -0.37832782373E+01 -0.56452245595E+01 -0.43408693947E+01  0.80638019352E+01  0.00000000000E+00 0.  1.
<mgrwt>
<rscale>  0 0.91476711E+02</rscale>
<asrwt>0</asrwt>
<pdfrwt beam="2">  1        3 0.64742159E-02 0.91476711E+02</pdfrwt>
<pdfrwt beam="1">  1       -3 0.76479880E-02 0.91476711E+02</pdfrwt>
<totfact> 0.34976593E+04</totfact>
</mgrwt>
</event>
<event>
 7    1  0.1312339E-009  0.9828828E+02  0.7818608E-02  0.1283937E+00
          3   -1    0    0  501    0  0.00000000000E+00  0.00000000000E+00  0.11979504094E+03  0.11979508352E+03  0.10100000000E+00 0. -1.
         -3   -1    0    0    0  501 -0.00000000000E+00 -0.00000000000E+00 -0.20160483153E+02  0.20160736146E+02  0.10100000000E+00 0.  1.
         23    2    1    2    0    0  0.00000000000E+00 -0.71054273576E-14  0.99634557791E+02  0.13995581967E+03  0.98288281867E+02 0.  0.
    9000005    2    3    3    0    0 -0.24021543328E+02  0.38261618999E+02  0.77073414620E+02  0.89458381975E+02  0.46373302703E+01 0.  0.
         22    1    3    3    0    0  0.24021543328E+02 -0.38261618999E+02  0.22561143170E+02  0.50497437692E+02  0.00000000000E+00 0.  1.
         22    1    4    4    0    0 -0.13895228078E+02  0.23108775562E+02  0.50279705706E+02  0.57053848925E+02  0.00000000000E+00 0.  1.
         22    1    4    4    0    0 -0.10126315251E+02  0.15152843437E+02  0.26793708914E+02  0.32404533050E+02  0.00000000000E+00 0.  1.
<mgrwt>
<rscale>  0 0.98288282E+02</rscale>
<asrwt>0</asrwt>
<pdfrwt beam="1">  1        3 0.18430029E-01 0.98288282E+02</pdfrwt>
<pdfrwt beam="2">  1       -3 0.31016355E-02 0.98288282E+02</pdfrwt>
<totfact> 0.26021349E+04</totfact>
</mgrwt>
</event>
<event>
 7    1  0.1312339E-009  0.9276140E+02  0.7818608E-02  0.1296299E+00
         -3   -1    0    0    0  501 -0.00000000000E+00  0.00000000000E+00  0.22680963217E+02  0.22681188096E+02  0.10100000000E+00 0.  1.
          3   -1    0    0  501    0  0.00000000000E+00 -0.00000000000E+00 -0.94843979002E+02  0.94844032779E+02  0.10100000000E+00 0. -1.
         23    2    1    2    0    0 -0.88817841970E-15  0.00000000000E+00 -0.72163015785E+02  0.11752522088E+03  0.92761396575E+02 0.  0.
    9000005    2    3    3    0    0 -0.71022332011E+01  0.39401516201E+02 -0.65676234548E+02  0.76966627134E+02  0.27518562237E+01 0.  0.
         22    1    3    3    0    0  0.71022332011E+01 -0.39401516201E+02 -0.64867812371E+01  0.40558593741E+02  0.00000000000E+00 0.  1.
         22    1    4    4    0    0 -0.41030900981E+01  0.27719813006E+02 -0.47619540640E+02  0.55252547744E+02  0.00000000000E+00 0.  1.
         22    1    4    4    0    0 -0.29991431029E+01  0.11681703195E+02 -0.18056693908E+02  0.21714079390E+02  0.00000000000E+00 0.  1.
<mgrwt>
<rscale>  0 0.92761397E+02</rscale>
<asrwt>0</asrwt>
<pdfrwt beam="2">  1        3 0.14591403E-01 0.92761397E+02</pdfrwt>
<pdfrwt beam="1">  1       -3 0.34894005E-02 0.92761397E+02</pdfrwt>
<totfact> 0.31884564E+04</totfact>
</mgrwt>
</event>
<event>
 7    1  0.1312339E-009  0.1129809E+03  0.7818608E-02  0.1255147E+00
          3   -1    0    0  501    0  0.00000000000E+00  0.00000000000E+00  0.98457899980E+02  0.98457951784E+02  0.10100000000E+00 0. -1.
         -3   -1    0    0    0  501 -0.00000000000E+00 -0.00000000000E+00 -0.32411373110E+02  0.32411530477E+02  0.10100000000E+00 0.  1.
         23    2    1    2    0    0  0.00000000000E+00 -0.71054273576E-14  0.66046526870E+02  0.13086948226E+03  0.11298087305E+03 0.  0.
    9000005    2    3    3    0    0 -0.19694093527E+02 -0.47465970012E+02  0.58356080386E+02  0.78907779093E+02  0.13421246377E+02 0.  0.
         22    1    3    3    0    0  0.19694093527E+02  0.47465970012E+02  0.76904464846E+01  0.51961703168E+02  0.00000000000E+00 0.  1.
         22    1    4    4    0    0 -0.39275680200E+01 -0.32578929012E+01  0.11527903940E+02  0.12606832511E+02  0.00000000000E+00 0. -1.
         22    1    4    4    0    0 -0.15766525507E+02 -0.44208077111E+02  0.46828176446E+02  0.66300946582E+02  0.00000000000E+00 0. -1.
<mgrwt>
<rscale>  0 0.11298087E+03</rscale>
<asrwt>0</asrwt>
<pdfrwt beam="1">  1        3 0.15147385E-01 0.11298087E+03</pdfrwt>
<pdfrwt beam="2">  1       -3 0.49863812E-02 0.11298087E+03</pdfrwt>
<totfact> 0.18032266E+04</totfact>
</mgrwt>
</event>
<event>
 7    1  0.1312339E-009  0.8323711E+02  0.7818608E-02  0.1320108E+00
          3   -1    0    0  501    0  0.00000000000E+00  0.00000000000E+00  0.30373424992E+02  0.30373592918E+02  0.10100000000E+00 0. -1.
         -3   -1    0    0    0  501 -0.00000000000E+00 -0.00000000000E+00 -0.57026592484E+02  0.57026681925E+02  0.10100000000E+00 0.  1.
         23    2    1    2    0    0 -0.71054273576E-14  0.17763568394E-14 -0.26653167492E+02  0.87400274843E+02  0.83237111346E+02 0.  0.
    9000005    2    3    3    0    0  0.36311385182E+02  0.15394021788E+02 -0.19469806736E+01  0.40861170127E+02  0.10504850772E+02 0.  0.
         22    1    3    3    0    0 -0.36311385182E+02 -0.15394021788E+02 -0.24706186818E+02  0.46539104716E+02  0.00000000000E+00 0.  1.
         22    1    4    4    0    0  0.32050183130E+02  0.16974946625E+02 -0.16090809075E+01  0.36303611293E+02  0.00000000000E+00 0. -1.
         22    1    4    4    0    0  0.42612020525E+01 -0.15809248365E+01 -0.33789976613E+00  0.45575588337E+01  0.00000000000E+00 0. -1.
<mgrwt>
<rscale>  0 0.83237111E+02</rscale>
<asrwt>0</asrwt>
<pdfrwt beam="1">  1        3 0.46728544E-02 0.83237111E+02</pdfrwt>
<pdfrwt beam="2">  1       -3 0.87733417E-02 0.83237111E+02</pdfrwt>
<totfact> 0.45602135E+04</totfact>
</mgrwt>
</event>
<event>
 7    1  0.1366951E-009  0.9021331E+02  0.7818608E-02  0.1302336E+00
          3   -1    0    0  501    0  0.00000000000E+00  0.00000000000E+00  0.15318620752E+02  0.15318953709E+02  0.10100000000E+00 0. -1.
         -3   -1    0    0    0  501 -0.00000000000E+00 -0.00000000000E+00 -0.13281763476E+03  0.13281767316E+03  0.10100000000E+00 0.  1.
         23    2    1    2    0    0  0.00000000000E+00  0.00000000000E+00 -0.11749901401E+03  0.14813662687E+03  0.90213313474E+02 0.  0.
    9000005    2    3    3    0    0  0.19397959500E+02  0.10598801415E+02 -0.12282243984E+03  0.12539999812E+03  0.12296030860E+02 0.  0.
         22    1    3    3    0    0 -0.19397959500E+02 -0.10598801415E+02  0.53234258392E+01  0.22736628749E+02  0.00000000000E+00 0. -1.
         22    1    4    4    0    0  0.16810133131E+02  0.65240781315E+01 -0.67486805624E+02  0.69854227536E+02  0.00000000000E+00 0.  1.
         22    1    4    4    0    0  0.25878263694E+01  0.40747232831E+01 -0.55335634221E+02  0.55545770584E+02  0.00000000000E+00 0.  1.
<mgrwt>
<rscale>  0 0.90213313E+02</rscale>
<asrwt>0</asrwt>
<pdfrwt beam="1">  1        3 0.23567395E-02 0.90213313E+02</pdfrwt>
<pdfrwt beam="2">  1       -3 0.20433510E-01 0.90213313E+02</pdfrwt>
<totfact> 0.32338163E+04</totfact>
</mgrwt>
</event>
<event>
 7    1  0.1312339E-009  0.8998353E+02  0.7818608E-02  0.1302892E+00
         -3   -1    0    0    0  501 -0.00000000000E+00  0.00000000000E+00  0.11800487598E+02  0.11800919818E+02  0.10100000000E+00 0.  1.
          3   -1    0    0  501    0  0.00000000000E+00 -0.00000000000E+00 -0.17153667547E+03  0.17153670520E+03  0.10100000000E+00 0. -1.
         23    2    1    2    0    0  0.88817841970E-15  0.00000000000E+00 -0.15973618787E+03  0.18333762502E+03  0.89983526453E+02 0.  0.
    9000005    2    3    3    0    0  0.56564476775E+01  0.22178793055E+02 -0.15812507652E+03  0.16039225639E+03  0.14079837487E+02 0.  0.
         22    1    3    3    0    0 -0.56564476775E+01 -0.22178793055E+02 -0.16111113473E+01  0.22945368628E+02  0.00000000000E+00 0.  1.
         22    1    4    4    0    0 -0.25302109750E+01  0.12384549613E+02 -0.10485077566E+03  0.10560996256E+03  0.00000000000E+00 0.  1.
         22    1    4    4    0    0  0.81866586526E+01  0.97942434414E+01 -0.53274300867E+02  0.54782293830E+02  0.00000000000E+00 0.  1.
<mgrwt>
<rscale>  0 0.89983526E+02</rscale>
<asrwt>0</asrwt>
<pdfrwt beam="2">  1        3 0.26390292E-01 0.89983526E+02</pdfrwt>
<pdfrwt beam="1">  1       -3 0.18154953E-02 0.89983526E+02</pdfrwt>
<totfact> 0.30445338E+04</totfact>
</mgrwt>
</event>
<event>
 7    1  0.1312339E-009  0.8880915E+02  0.7818608E-02  0.1305761E+00
          3   -1    0    0  501    0  0.00000000000E+00  0.00000000000E+00  0.22569899026E+01  0.22592486407E+01  0.10100000000E+00 0. -1.
         -3   -1    0    0    0  501 -0.00000000000E+00 -0.00000000000E+00 -0.87318729914E+03  0.87318730498E+03  0.10100000000E+00 0.  1.
         23    2    1    2    0    0  0.00000000000E+00  0.88817841970E-15 -0.87093030924E+03  0.87544655362E+03  0.88809147616E+02 0.  0.
    9000005    2    3    3    0    0  0.12468745227E+02  0.62954036707E+01 -0.85069071899E+03  0.85085503622E+03  0.91919293478E+01 0.  0.
         22    1    3    3    0    0 -0.12468745227E+02 -0.62954036707E+01 -0.20239590250E+02  0.24591517407E+02  0.00000000000E+00 0. -1.
         22    1    4    4    0    0  0.36347139573E+01  0.14819276737E+01 -0.51173521565E+03  0.51175026936E+03  0.00000000000E+00 0.  1.
         22    1    4    4    0    0  0.88340312699E+01  0.48134759970E+01 -0.33895550334E+03  0.33910476686E+03  0.00000000000E+00 0.  1.
<mgrwt>
<rscale>  0 0.88809148E+02</rscale>
<asrwt>0</asrwt>
<pdfrwt beam="1">  1        3 0.34740411E-03 0.88809148E+02</pdfrwt>
<pdfrwt beam="2">  1       -3 0.13433641E+00 0.88809148E+02</pdfrwt>
<totfact> 0.12209665E+04</totfact>
</mgrwt>
</event>
<event>
 7    1  0.1312339E-009  0.8655189E+02  0.7818608E-02  0.1311423E+00
         -3   -1    0    0    0  501 -0.00000000000E+00  0.00000000000E+00  0.36868355243E+02  0.36868493586E+02  0.10100000000E+00 0.  1.
          3   -1    0    0  501    0  0.00000000000E+00 -0.00000000000E+00 -0.50796872894E+02  0.50796973304E+02  0.10100000000E+00 0. -1.
         23    2    1    2    0    0  0.00000000000E+00  0.00000000000E+00 -0.13928517651E+02  0.87665466890E+02  0.86551894728E+02 0.  0.
    9000005    2    3    3    0    0 -0.38220764246E+02  0.18425893083E+02 -0.39141244533E+01  0.44069269503E+02  0.11244544850E+02 0.  0.
         22    1    3    3    0    0  0.38220764246E+02 -0.18425893083E+02 -0.10014393198E+02  0.43596197386E+02  0.00000000000E+00 0. -1.
         22    1    4    4    0    0 -0.29452385566E+02  0.12139609342E+02  0.17107954463E+01  0.31902036793E+02  0.00000000000E+00 0. -1.
         22    1    4    4    0    0 -0.87683786796E+01  0.62862837411E+01 -0.56249198996E+01  0.12167232710E+02  0.00000000000E+00 0. -1.
<mgrwt>
<rscale>  0 0.86551895E+02</rscale>
<asrwt>0</asrwt>
<pdfrwt beam="2">  1        3 0.78149219E-02 0.86551895E+02</pdfrwt>
<pdfrwt beam="1">  1       -3 0.56720730E-02 0.86551895E+02</pdfrwt>
<totfact> 0.41013507E+04</totfact>
</mgrwt>
</event>
<event>
 7    1  0.1312339E-009  0.9142512E+02  0.7818608E-02  0.1299437E+00
         -3   -1    0    0    0  501 -0.00000000000E+00  0.00000000000E+00  0.92322299915E+01  0.92327824417E+01  0.10100000000E+00 0.  1.
          3   -1    0    0  501    0  0.00000000000E+00 -0.00000000000E+00 -0.22633431867E+03  0.22633434121E+03  0.10100000000E+00 0. -1.
         23    2    1    2    0    0  0.00000000000E+00  0.00000000000E+00 -0.21710208868E+03  0.23556712365E+03  0.91425121464E+02 0.  0.
    9000005    2    3    3    0    0  0.18250602003E+02  0.19625330668E+02 -0.20384426920E+03  0.20566715952E+03  0.53156695560E+01 0.  0.
         22    1    3    3    0    0 -0.18250602003E+02 -0.19625330668E+02 -0.13257819477E+02  0.29899964123E+02  0.00000000000E+00 0.  1.
         22    1    4    4    0    0 -0.18785575296E+00  0.71732647317E+00 -0.28360355493E+01  0.29313724926E+01  0.00000000000E+00 0. -1.
         22    1    4    4    0    0  0.18438457756E+02  0.18908004195E+02 -0.20100823365E+03  0.20273578703E+03  0.00000000000E+00 0. -1.
<mgrwt>
<rscale>  0 0.91425121E+02</rscale>
<asrwt>0</asrwt>
<pdfrwt beam="2">  1        3 0.34820705E-01 0.91425121E+02</pdfrwt>
<pdfrwt beam="1">  1       -3 0.14203875E-02 0.91425121E+02</pdfrwt>
<totfact> 0.26562951E+04</totfact>
</mgrwt>
</event>
<event>
 7    1  0.1312339E-009  0.9014684E+02  0.7818608E-02  0.1302496E+00
         -3   -1    0    0    0  501 -0.00000000000E+00  0.00000000000E+00  0.37166760323E+02  0.37166897556E+02  0.10100000000E+00 0.  1.
          3   -1    0    0  501    0  0.00000000000E+00 -0.00000000000E+00 -0.54661814556E+02  0.54661907866E+02  0.10100000000E+00 0. -1.
         23    2    1    2    0    0  0.00000000000E+00  0.00000000000E+00 -0.17495054232E+02  0.91828805422E+02  0.90146839005E+02 0.  0.
    9000005    2    3    3    0    0 -0.28280145944E+02 -0.23677936652E+02  0.16871039802E+02  0.41416111009E+02  0.83815826867E+01 0.  0.
         22    1    3    3    0    0  0.28280145944E+02  0.23677936652E+02 -0.34366094035E+02  0.50412694413E+02  0.00000000000E+00 0. -1.
         22    1    4    4    0    0 -0.23925569420E+02 -0.23386410051E+02  0.14757125622E+02  0.36566785527E+02  0.00000000000E+00 0.  1.
         22    1    4    4    0    0 -0.43545765245E+01 -0.29152660108E+00  0.21139141802E+01  0.48493254818E+01  0.00000000000E+00 0.  1.
<mgrwt>
<rscale>  0 0.90146839E+02</rscale>
<asrwt>0</asrwt>
<pdfrwt beam="2">  1        3 0.84095277E-02 0.90146839E+02</pdfrwt>
<pdfrwt beam="1">  1       -3 0.57179808E-02 0.90146839E+02</pdfrwt>
<totfact> 0.36395730E+04</totfact>
</mgrwt>
</event>
<event>
 7    1  0.1312339E-009  0.9158841E+02  0.7818608E-02  0.1299050E+00
          3   -1    0    0  501    0  0.00000000000E+00  0.00000000000E+00  0.52904262104E+02  0.52904358514E+02  0.10100000000E+00 0. -1.
         -3   -1    0    0    0  501 -0.00000000000E+00 -0.00000000000E+00 -0.39639502147E+02  0.39639630819E+02  0.10100000000E+00 0.  1.
         23    2    1    2    0    0  0.17763568394E-14  0.00000000000E+00  0.13264759957E+02  0.92543989332E+02  0.91588405952E+02 0.  0.
    9000005    2    3    3    0    0 -0.14145894644E+02  0.36516669321E+02  0.29928710878E+02  0.49985080348E+02  0.83190774103E+01 0.  0.
         22    1    3    3    0    0  0.14145894644E+02 -0.36516669321E+02 -0.16663950921E+02  0.42558908984E+02  0.00000000000E+00 0.  1.
         22    1    4    4    0    0  0.41839384297E+00  0.78215260582E+01  0.52055823981E+01  0.94047547225E+01  0.00000000000E+00 0. -1.
         22    1    4    4    0    0 -0.14564288487E+02  0.28695143263E+02  0.24723128480E+02  0.40580325626E+02  0.00000000000E+00 0. -1.
<mgrwt>
<rscale>  0 0.91588406E+02</rscale>
<asrwt>0</asrwt>
<pdfrwt beam="1">  1        3 0.81391346E-02 0.91588406E+02</pdfrwt>
<pdfrwt beam="2">  1       -3 0.60984022E-02 0.91588406E+02</pdfrwt>
<totfact> 0.34803599E+04</totfact>
</mgrwt>
</event>
<event>
 7    1  0.1312339E-009  0.8989544E+02  0.7818608E-02  0.1303105E+00
          3   -1    0    0  501    0  0.00000000000E+00  0.00000000000E+00  0.11671529892E+03  0.11671534262E+03  0.10100000000E+00 0. -1.
         -3   -1    0    0    0  501 -0.00000000000E+00 -0.00000000000E+00 -0.17309426286E+02  0.17309720950E+02  0.10100000000E+00 0.  1.
         23    2    1    2    0    0  0.00000000000E+00  0.00000000000E+00  0.99405872630E+02  0.13402506357E+03  0.89895440099E+02 0.  0.
    9000005    2    3    3    0    0 -0.18409838791E+02 -0.26893530166E+02  0.94355154779E+02  0.10104485920E+03  0.15651971399E+02 0.  0.
         22    1    3    3    0    0  0.18409838791E+02  0.26893530166E+02  0.50507178512E+01  0.32980204364E+02  0.00000000000E+00 0.  1.
         22    1    4    4    0    0 -0.21231908839E+01 -0.71127871099E+01  0.77607258719E+01  0.10739112908E+02  0.00000000000E+00 0.  1.
         22    1    4    4    0    0 -0.16286647907E+02 -0.19780743057E+02  0.86594428907E+02  0.90305746293E+02  0.00000000000E+00 0.  1.
<mgrwt>
<rscale>  0 0.89895440E+02</rscale>
<asrwt>0</asrwt>
<pdfrwt beam="1">  1        3 0.17956226E-01 0.89895440E+02</pdfrwt>
<pdfrwt beam="2">  1       -3 0.26630147E-02 0.89895440E+02</pdfrwt>
<totfact> 0.33574589E+04</totfact>
</mgrwt>
</event>
<event>
 7    1  0.1312339E-009  0.9210115E+02  0.7818608E-02  0.1297842E+00
          3   -1    0    0  501    0  0.00000000000E+00  0.00000000000E+00  0.78946230840E+02  0.78946295448E+02  0.10100000000E+00 0.  1.
         -3   -1    0    0    0  501 -0.00000000000E+00 -0.00000000000E+00 -0.26861852642E+02  0.26862042520E+02  0.10100000000E+00 0. -1.
         23    2    1    2    0    0  0.88817841970E-15  0.00000000000E+00  0.52084378199E+02  0.10580833797E+03  0.92101150542E+02 0.  0.
    9000005    2    3    3    0    0 -0.78330432608E+01  0.35048247470E+02 -0.56122679973E+01  0.37847767048E+02  0.10546075147E+02 0.  0.
         22    1    3    3    0    0  0.78330432608E+01 -0.35048247470E+02  0.57696646196E+02  0.67960570920E+02  0.00000000000E+00 0.  1.
         22    1    4    4    0    0 -0.58127570626E+01  0.34924214271E+02 -0.53575829338E+01  0.35807716794E+02  0.00000000000E+00 0. -1.
         22    1    4    4    0    0 -0.20202861982E+01  0.12403319907E+00 -0.25468506350E+00  0.20400502540E+01  0.00000000000E+00 0. -1.
<mgrwt>
<rscale>  0 0.92101151E+02</rscale>
<asrwt>0</asrwt>
<pdfrwt beam="1">  1        3 0.12145594E-01 0.92101151E+02</pdfrwt>
<pdfrwt beam="2">  1       -3 0.41326123E-02 0.92101151E+02</pdfrwt>
<totfact> 0.33317027E+04</totfact>
</mgrwt>
</event>
<event>
 7    1  0.1312339E-009  0.7100830E+02  0.7818608E-02  0.1356697E+00
         -3   -1    0    0    0  501 -0.00000000000E+00  0.00000000000E+00  0.87952817678E+02  0.87952875669E+02  0.10100000000E+00 0.  1.
          3   -1    0    0  501    0  0.00000000000E+00 -0.00000000000E+00 -0.14331813880E+02  0.14332169762E+02  0.10100000000E+00 0. -1.
         23    2    1    2    0    0  0.00000000000E+00  0.00000000000E+00  0.73621003798E+02  0.10228504543E+03  0.71008297533E+02 0.  0.
    9000005    2    3    3    0    0  0.24930550093E+02 -0.23504396536E+02  0.35013469981E+02  0.50665953498E+02  0.12926978740E+02 0.  0.
         22    1    3    3    0    0 -0.24930550093E+02  0.23504396536E+02  0.38607533817E+02  0.51619091932E+02  0.00000000000E+00 0.  1.
         22    1    4    4    0    0 -0.12974871420E+01 -0.12021164365E+01  0.33573756929E+00  0.18003545556E+01  0.00000000000E+00 0. -1.
         22    1    4    4    0    0  0.26228037235E+02 -0.22302280099E+02  0.34677732412E+02  0.48865598943E+02  0.00000000000E+00 0. -1.
<mgrwt>
<rscale>  0 0.71008298E+02</rscale>
<asrwt>0</asrwt>
<pdfrwt beam="2">  1        3 0.22049262E-02 0.71008298E+02</pdfrwt>
<pdfrwt beam="1">  1       -3 0.13531235E-01 0.71008298E+02</pdfrwt>
<totfact> 0.67377228E+04</totfact>
</mgrwt>
</event>
<event>
 7    1  0.1312339E-009  0.9239160E+02  0.7818608E-02  0.1297161E+00
          3   -1    0    0  501    0  0.00000000000E+00  0.00000000000E+00  0.35609140675E+02  0.35609283911E+02  0.10100000000E+00 0. -1.
         -3   -1    0    0    0  501 -0.00000000000E+00 -0.00000000000E+00 -0.59929585659E+02  0.59929670768E+02  0.10100000000E+00 0.  1.
         23    2    1    2    0    0 -0.71054273576E-14  0.00000000000E+00 -0.24320444984E+02  0.95538954678E+02  0.92391600358E+02 0.  0.
    9000005    2    3    3    0    0 -0.36745407906E+02  0.59198488251E+01  0.15547669597E+02  0.40997812661E+02  0.73362797645E+01 0.  0.
         22    1    3    3    0    0  0.36745407906E+02 -0.59198488251E+01 -0.39868114581E+02  0.54541142017E+02  0.00000000000E+00 0.  1.
         22    1    4    4    0    0 -0.15339068150E+02  0.59603129875E+01  0.55046997596E+01  0.17352638475E+02  0.00000000000E+00 0.  1.
         22    1    4    4    0    0 -0.21406339756E+02 -0.40464162358E-01  0.10042969837E+02  0.23645174185E+02  0.00000000000E+00 0.  1.
<mgrwt>
<rscale>  0 0.92391600E+02</rscale>
<asrwt>0</asrwt>
<pdfrwt beam="1">  1        3 0.54783469E-02 0.92391600E+02</pdfrwt>
<pdfrwt beam="2">  1       -3 0.92199538E-02 0.92391600E+02</pdfrwt>
<totfact> 0.33764487E+04</totfact>
</mgrwt>
</event>
<event>
 7    1  0.1312339E-009  0.9137917E+02  0.7818608E-02  0.1299546E+00
          3   -1    0    0  501    0  0.00000000000E+00  0.00000000000E+00  0.32320524309E+02  0.32320682118E+02  0.10100000000E+00 0. -1.
         -3   -1    0    0    0  501 -0.00000000000E+00 -0.00000000000E+00 -0.64588275096E+02  0.64588354066E+02  0.10100000000E+00 0.  1.
         23    2    1    2    0    0  0.00000000000E+00  0.44408920985E-15 -0.32267750788E+02  0.96909036184E+02  0.91379174614E+02 0.  0.
    9000005    2    3    3    0    0 -0.39445146284E+02 -0.29167139966E+01  0.66454109298E+01  0.41423353880E+02  0.10358859704E+02 0.  0.
         22    1    3    3    0    0  0.39445146284E+02  0.29167139966E+01 -0.38913161718E+02  0.55485682304E+02  0.00000000000E+00 0.  1.
         22    1    4    4    0    0 -0.88422713106E+00  0.35493592624E+00 -0.15934728885E+01  0.18566079223E+01  0.00000000000E+00 0. -1.
         22    1    4    4    0    0 -0.38560919152E+02 -0.32716499229E+01  0.82388838183E+01  0.39566745958E+02  0.00000000000E+00 0. -1.
<mgrwt>
<rscale>  0 0.91379175E+02</rscale>
<asrwt>0</asrwt>
<pdfrwt beam="1">  1        3 0.49724066E-02 0.91379175E+02</pdfrwt>
<pdfrwt beam="2">  1       -3 0.99366758E-02 0.91379175E+02</pdfrwt>
<totfact> 0.34692583E+04</totfact>
</mgrwt>
</event>
<event>
 7    1  0.1312339E-009  0.9332082E+02  0.7818608E-02  0.1295003E+00
          3   -1    0    0  501    0  0.00000000000E+00  0.00000000000E+00  0.26107141720E+03  0.26107143674E+03  0.10100000000E+00 0. -1.
         -3   -1    0    0    0  501 -0.00000000000E+00 -0.00000000000E+00 -0.83391312887E+01  0.83397429007E+01  0.10100000000E+00 0.  1.
         23    2    1    2    0    0  0.00000000000E+00  0.17763568394E-14  0.25273228591E+03  0.26941117964E+03  0.93320819605E+02 0.  0.
    9000005    2    3    3    0    0 -0.35124168378E+02 -0.14287585128E+02  0.20241985420E+03  0.20640972666E+03  0.13904516935E+02 0.  0.
         22    1    3    3    0    0  0.35124168378E+02  0.14287585128E+02  0.50312431713E+02  0.63001452983E+02  0.00000000000E+00 0.  1.
         22    1    4    4    0    0 -0.64879181934E+00 -0.34565594397E+01  0.94017500887E+01  0.10038009699E+02  0.00000000000E+00 0.  1.
         22    1    4    4    0    0 -0.34475376558E+02 -0.10831025688E+02  0.19301810411E+03  0.19637171696E+03  0.00000000000E+00 0.  1.
<mgrwt>
<rscale>  0 0.93320820E+02</rscale>
<asrwt>0</asrwt>
<pdfrwt beam="1">  1        3 0.40164869E-01 0.93320820E+02</pdfrwt>
<pdfrwt beam="2">  1       -3 0.12829922E-02 0.93320820E+02</pdfrwt>
<totfact> 0.23731256E+04</totfact>
</mgrwt>
</event>
<event>
 7    1  0.1312339E-009  0.9242456E+02  0.7818608E-02  0.1297084E+00
         -3   -1    0    0    0  501 -0.00000000000E+00  0.00000000000E+00  0.39286562800E+02  0.39286692628E+02  0.10100000000E+00 0.  1.
          3   -1    0    0  501    0  0.00000000000E+00 -0.00000000000E+00 -0.54358646461E+02  0.54358740291E+02  0.10100000000E+00 0. -1.
         23    2    1    2    0    0  0.71054273576E-14  0.00000000000E+00 -0.15072083660E+02  0.93645432919E+02  0.92424560593E+02 0.  0.
    9000005    2    3    3    0    0  0.33145431680E+02 -0.67100410437E+01 -0.39261296250E+02  0.52067045531E+02  0.50875883308E+01 0.  0.
         22    1    3    3    0    0 -0.33145431680E+02  0.67100410437E+01  0.24189212590E+02  0.41578387388E+02  0.00000000000E+00 0.  1.
         22    1    4    4    0    0  0.20128533627E+02 -0.17295904696E+01 -0.21724869002E+02  0.29666804384E+02  0.00000000000E+00 0.  1.
         22    1    4    4    0    0  0.13016898053E+02 -0.49804505741E+01 -0.17536427248E+02  0.22400241147E+02  0.00000000000E+00 0.  1.
<mgrwt>
<rscale>  0 0.92424561E+02</rscale>
<asrwt>0</asrwt>
<pdfrwt beam="2">  1        3 0.83628859E-02 0.92424561E+02</pdfrwt>
<pdfrwt beam="1">  1       -3 0.60441038E-02 0.92424561E+02</pdfrwt>
<totfact> 0.33869421E+04</totfact>
</mgrwt>
</event>
<event>
 7    1  0.1312339E-009  0.9344906E+02  0.7818608E-02  0.1294708E+00
          3   -1    0    0  501    0  0.00000000000E+00  0.00000000000E+00  0.35754828473E+02  0.35754971124E+02  0.10100000000E+00 0. -1.
         -3   -1    0    0    0  501 -0.00000000000E+00 -0.00000000000E+00 -0.61059460401E+02  0.61059543934E+02  0.10100000000E+00 0.  1.
         23    2    1    2    0    0  0.00000000000E+00  0.11102230246E-15 -0.25304631928E+02  0.96814515059E+02  0.93449055260E+02 0.  0.
    9000005    2    3    3    0    0 -0.43441119194E+02 -0.17342206611E+00  0.47085693325E+01  0.44013443460E+02  0.52774679571E+01 0.  0.
         22    1    3    3    0    0  0.43441119194E+02  0.17342206611E+00 -0.30013201261E+02  0.52801071598E+02  0.00000000000E+00 0.  1.
         22    1    4    4    0    0 -0.19907283505E+02 -0.22418322728E+01  0.36667673342E+01  0.20365925739E+02  0.00000000000E+00 0.  1.
         22    1    4    4    0    0 -0.23533835688E+02  0.20684102067E+01  0.10418019983E+01  0.23647517722E+02  0.00000000000E+00 0.  1.
<mgrwt>
<rscale>  0 0.93449055E+02</rscale>
<asrwt>0</asrwt>
<pdfrwt beam="1">  1        3 0.55007602E-02 0.93449055E+02</pdfrwt>
<pdfrwt beam="2">  1       -3 0.93937806E-02 0.93449055E+02</pdfrwt>
<totfact> 0.32640664E+04</totfact>
</mgrwt>
</event>
<event>
 7    1  0.1312339E-009  0.8773259E+02  0.7818608E-02  0.1308437E+00
          3   -1    0    0  501    0  0.00000000000E+00  0.00000000000E+00  0.48404011767E+02  0.48404117141E+02  0.10100000000E+00 0. -1.
         -3   -1    0    0    0  501 -0.00000000000E+00 -0.00000000000E+00 -0.39753762802E+02  0.39753891104E+02  0.10100000000E+00 0.  1.
         23    2    1    2    0    0  0.71054273576E-14 -0.35527136788E-14  0.86502489652E+01  0.88158008245E+02  0.87732591495E+02 0.  0.
    9000005    2    3    3    0    0 -0.33120895398E+02  0.26904475163E+02  0.41131001669E+01  0.45246119275E+02  0.14472360578E+02 0.  0.
         22    1    3    3    0    0  0.33120895398E+02 -0.26904475163E+02  0.45371487983E+01  0.42911888970E+02  0.00000000000E+00 0. -1.
         22    1    4    4    0    0 -0.18824488884E+02  0.23651079294E+02  0.46003691710E+01  0.30576107176E+02  0.00000000000E+00 0. -1.
         22    1    4    4    0    0 -0.14296406514E+02  0.32533958684E+01 -0.48726900413E+00  0.14670012099E+02  0.00000000000E+00 0. -1.
<mgrwt>
<rscale>  0 0.87732591E+02</rscale>
<asrwt>0</asrwt>
<pdfrwt beam="1">  1        3 0.74467890E-02 0.87732591E+02</pdfrwt>
<pdfrwt beam="2">  1       -3 0.61159815E-02 0.87732591E+02</pdfrwt>
<totfact> 0.39493849E+04</totfact>
</mgrwt>
</event>
<event>
 7    1  0.1312339E-009  0.9420591E+02  0.7818608E-02  0.1292975E+00
         -3   -1    0    0    0  501 -0.00000000000E+00  0.00000000000E+00  0.69610600840E+02  0.69610674112E+02  0.10100000000E+00 0.  1.
          3   -1    0    0  501    0  0.00000000000E+00 -0.00000000000E+00 -0.31872682187E+02  0.31872842214E+02  0.10100000000E+00 0. -1.
         23    2    1    2    0    0  0.00000000000E+00  0.00000000000E+00  0.37737918653E+02  0.10148351633E+03  0.94205910544E+02 0.  0.
    9000005    2    3    3    0    0  0.23601974111E+02  0.32244729286E+02  0.44971355682E+02  0.60874424241E+02  0.93003734430E+01 0.  0.
         22    1    3    3    0    0 -0.23601974111E+02 -0.32244729286E+02 -0.72334370287E+01  0.40609092084E+02  0.00000000000E+00 0. -1.
         22    1    4    4    0    0  0.89199628971E+01  0.13150231595E+02  0.11401126083E+02  0.19557096028E+02  0.00000000000E+00 0.  1.
         22    1    4    4    0    0  0.14682011213E+02  0.19094497691E+02  0.33570229599E+02  0.41317328213E+02  0.00000000000E+00 0.  1.
<mgrwt>
<rscale>  0 0.94205911E+02</rscale>
<asrwt>0</asrwt>
<pdfrwt beam="2">  1        3 0.49035075E-02 0.94205911E+02</pdfrwt>
<pdfrwt beam="1">  1       -3 0.10709341E-01 0.94205911E+02</pdfrwt>
<totfact> 0.31611470E+04</totfact>
</mgrwt>
</event>
<event>
 7    1  0.1312339E-009  0.9323526E+02  0.7818608E-02  0.1295201E+00
          3   -1    0    0  501    0  0.00000000000E+00  0.00000000000E+00  0.48931329686E+02  0.48931433924E+02  0.10100000000E+00 0.  1.
         -3   -1    0    0    0  501 -0.00000000000E+00 -0.00000000000E+00 -0.44413124853E+02  0.44413239695E+02  0.10100000000E+00 0. -1.
         23    2    1    2    0    0  0.00000000000E+00  0.00000000000E+00  0.45182048328E+01  0.93344673619E+02  0.93235261131E+02 0.  0.
    9000005    2    3    3    0    0  0.16249614636E+02  0.36326730770E+02 -0.20585441944E+02  0.46292846601E+02  0.11644135097E+02 0.  0.
         22    1    3    3    0    0 -0.16249614636E+02 -0.36326730770E+02  0.25103646777E+02  0.47051827018E+02  0.00000000000E+00 0.  1.
         22    1    4    4    0    0  0.71980403581E+01  0.58546087023E+01 -0.20731392235E+01  0.95071622629E+01  0.00000000000E+00 0.  1.
         22    1    4    4    0    0  0.90515742782E+01  0.30472122067E+02 -0.18512302721E+02  0.36785684338E+02  0.00000000000E+00 0.  1.
<mgrwt>
<rscale>  0 0.93235261E+02</rscale>
<asrwt>0</asrwt>
<pdfrwt beam="1">  1        3 0.75279137E-02 0.93235261E+02</pdfrwt>
<pdfrwt beam="2">  1       -3 0.68328053E-02 0.93235261E+02</pdfrwt>
<totfact> 0.33091268E+04</totfact>
</mgrwt>
</event>
<event>
 7    1  0.1312339E-009  0.9644142E+02  0.7818608E-02  0.1287962E+00
         -3   -1    0    0    0  501 -0.00000000000E+00  0.00000000000E+00  0.51331643021E+02  0.51331742385E+02  0.10100000000E+00 0.  1.
          3   -1    0    0  501    0  0.00000000000E+00 -0.00000000000E+00 -0.45298114162E+02  0.45298226760E+02  0.10100000000E+00 0. -1.
         23    2    1    2    0    0 -0.17763568394E-14  0.00000000000E+00  0.60335288597E+01  0.96629969145E+02  0.96441419870E+02 0.  0.
    9000005    2    3    3    0    0 -0.15118095706E+02  0.18986324728E+02  0.44667857200E+02  0.51004880972E+02  0.41524777754E+01 0.  0.
         22    1    3    3    0    0  0.15118095706E+02 -0.18986324728E+02 -0.38634328341E+02  0.45625088173E+02  0.00000000000E+00 0. -1.
         22    1    4    4    0    0 -0.41668876507E+01  0.30556415899E+01  0.74611459369E+01  0.90757146777E+01  0.00000000000E+00 0. -1.
         22    1    4    4    0    0 -0.10951208055E+02  0.15930683138E+02  0.37206711264E+02  0.41929166294E+02  0.00000000000E+00 0. -1.
<mgrwt>
<rscale>  0 0.96441420E+02</rscale>
<asrwt>0</asrwt>
<pdfrwt beam="2">  1        3 0.69689570E-02 0.96441420E+02</pdfrwt>
<pdfrwt beam="1">  1       -3 0.78971921E-02 0.96441420E+02</pdfrwt>
<totfact> 0.29951853E+04</totfact>
</mgrwt>
</event>
<event>
 7    1  0.1312339E-009  0.8386017E+02  0.7818608E-02  0.1318441E+00
          3   -1    0    0  501    0  0.00000000000E+00  0.00000000000E+00  0.12104839693E+03  0.12104843907E+03  0.10100000000E+00 0. -1.
         -3   -1    0    0    0  501 -0.00000000000E+00 -0.00000000000E+00 -0.14523986043E+02  0.14524337216E+02  0.10100000000E+00 0.  1.
         23    2    1    2    0    0  0.00000000000E+00  0.00000000000E+00  0.10652441089E+03  0.13557277628E+03  0.83860166670E+02 0.  0.
    9000005    2    3    3    0    0 -0.10474057898E+02 -0.18283956895E+02  0.11114614380E+03  0.11400035445E+03  0.14092784106E+02 0.  0.
         22    1    3    3    0    0  0.10474057898E+02  0.18283956895E+02 -0.46217329148E+01  0.21572421833E+02  0.00000000000E+00 0.  1.
         22    1    4    4    0    0  0.52630516253E+00 -0.68052586202E+01  0.61331323986E+02  0.61709965515E+02  0.00000000000E+00 0.  1.
         22    1    4    4    0    0 -0.11000363061E+02 -0.11478698275E+02  0.49814819816E+02  0.52290388934E+02  0.00000000000E+00 0.  1.
<mgrwt>
<rscale>  0 0.83860167E+02</rscale>
<asrwt>0</asrwt>
<pdfrwt beam="1">  1        3 0.18622860E-01 0.83860167E+02</pdfrwt>
<pdfrwt beam="2">  1       -3 0.22344897E-02 0.83860167E+02</pdfrwt>
<totfact> 0.40357688E+04</totfact>
</mgrwt>
</event>
<event>
 7    1  0.1312339E-009  0.8709779E+02  0.7818608E-02  0.1310036E+00
         -3   -1    0    0    0  501 -0.00000000000E+00  0.00000000000E+00  0.87209338417E+02  0.87209396903E+02  0.10100000000E+00 0.  1.
          3   -1    0    0  501    0  0.00000000000E+00 -0.00000000000E+00 -0.21746412086E+02  0.21746646629E+02  0.10100000000E+00 0. -1.
         23    2    1    2    0    0  0.00000000000E+00 -0.35527136788E-14  0.65462926331E+02  0.10895604353E+03  0.87097788136E+02 0.  0.
    9000005    2    3    3    0    0 -0.96290430572E+01 -0.31950756622E+02  0.10652432677E+00  0.35573289414E+02  0.12323889539E+02 0.  0.
         22    1    3    3    0    0  0.96290430572E+01  0.31950756622E+02  0.65356402005E+02  0.73382754118E+02  0.00000000000E+00 0.  1.
         22    1    4    4    0    0 -0.10747707251E+02 -0.24889415766E+02 -0.38807926496E+01  0.27387164510E+02  0.00000000000E+00 0. -1.
         22    1    4    4    0    0  0.11186641939E+01 -0.70613408562E+01  0.39873169764E+01  0.81861249035E+01  0.00000000000E+00 0. -1.
<mgrwt>
<rscale>  0 0.87097788E+02</rscale>
<asrwt>0</asrwt>
<pdfrwt beam="2">  1        3 0.33456244E-02 0.87097788E+02</pdfrwt>
<pdfrwt beam="1">  1       -3 0.13416844E-01 0.87097788E+02</pdfrwt>
<totfact> 0.38509178E+04</totfact>
</mgrwt>
</event>
<event>
 7    1  0.1312339E-009  0.9003536E+02  0.7818608E-02  0.1302766E+00
          3   -1    0    0  501    0  0.00000000000E+00  0.00000000000E+00  0.74624412549E+03  0.74624413233E+03  0.10100000000E+00 0. -1.
         -3   -1    0    0    0  501 -0.00000000000E+00 -0.00000000000E+00 -0.27147761725E+01  0.27166543149E+01  0.10100000000E+00 0.  1.
         23    2    1    2    0    0  0.17763568394E-14  0.00000000000E+00  0.74352934932E+03  0.74896078664E+03  0.90035363206E+02 0.  0.
    9000005    2    3    3    0    0 -0.15613634064E+02 -0.26618165187E+02  0.64057751575E+03  0.64148338287E+03  0.14459063760E+02 0.  0.
         22    1    3    3    0    0  0.15613634064E+02  0.26618165187E+02  0.10295183357E+03  0.10747740377E+03  0.00000000000E+00 0.  1.
         22    1    4    4    0    0  0.14158788876E+01 -0.51574773497E+00  0.81338534251E+01  0.82722596847E+01  0.00000000000E+00 0.  1.
         22    1    4    4    0    0 -0.17029512951E+02 -0.26102417452E+02  0.63244366232E+03  0.63321112318E+03  0.00000000000E+00 0.  1.
<mgrwt>
<rscale>  0 0.90035363E+02</rscale>
<asrwt>0</asrwt>
<pdfrwt beam="1">  1        3 0.11480716E+00 0.90035363E+02</pdfrwt>
<pdfrwt beam="2">  1       -3 0.41780206E-03 0.90035363E+02</pdfrwt>
<totfact> 0.13596043E+04</totfact>
</mgrwt>
</event>
<event>
 7    1  0.1312339E-009  0.9554543E+02  0.7818608E-02  0.1289952E+00
         -3   -1    0    0    0  501 -0.00000000000E+00  0.00000000000E+00  0.50796410163E+02  0.50796510574E+02  0.10100000000E+00 0.  1.
          3   -1    0    0  501    0  0.00000000000E+00 -0.00000000000E+00 -0.44928806412E+02  0.44928919936E+02  0.10100000000E+00 0. -1.
         23    2    1    2    0    0  0.00000000000E+00  0.00000000000E+00  0.58676037515E+01  0.95725430509E+02  0.95545430411E+02 0.  0.
    9000005    2    3    3    0    0  0.30722437663E+02 -0.18736574861E+02 -0.27264384544E+02  0.46810646835E+02  0.12367804134E+02 0.  0.
         22    1    3    3    0    0 -0.30722437663E+02  0.18736574861E+02  0.33131988296E+02  0.48914783674E+02  0.00000000000E+00 0.  1.
         22    1    4    4    0    0  0.65835372729E+01  0.23364948314E+00 -0.15602303024E+01  0.67699242020E+01  0.00000000000E+00 0. -1.
         22    1    4    4    0    0  0.24138900390E+02 -0.18970224344E+02 -0.25704154242E+02  0.40040722633E+02  0.00000000000E+00 0. -1.
<mgrwt>
<rscale>  0 0.95545430E+02</rscale>
<asrwt>0</asrwt>
<pdfrwt beam="2">  1        3 0.69121405E-02 0.95545430E+02</pdfrwt>
<pdfrwt beam="1">  1       -3 0.78148488E-02 0.95545430E+02</pdfrwt>
<totfact> 0.30788068E+04</totfact>
</mgrwt>
</event>
<event>
 7    1  0.1312339E-009  0.9064883E+02  0.7818608E-02  0.1301288E+00
          3   -1    0    0  501    0  0.00000000000E+00  0.00000000000E+00  0.34282316853E+02  0.34282465632E+02  0.10100000000E+00 0. -1.
         -3   -1    0    0    0  501 -0.00000000000E+00 -0.00000000000E+00 -0.59922778479E+02  0.59922863597E+02  0.10100000000E+00 0.  1.
         23    2    1    2    0    0  0.00000000000E+00  0.35527136788E-14 -0.25640461626E+02  0.94205329229E+02  0.90648832220E+02 0.  0.
    9000005    2    3    3    0    0  0.30231924290E+02 -0.19740952083E+02 -0.40135956292E+02  0.55297826083E+02  0.11969968533E+02 0.  0.
         22    1    3    3    0    0 -0.30231924290E+02  0.19740952083E+02  0.14495494666E+02  0.38907503146E+02  0.00000000000E+00 0. -1.
         22    1    4    4    0    0 -0.10446200872E+01 -0.39469715404E+00 -0.21692219200E+01  0.24397829223E+01  0.00000000000E+00 0.  1.
         22    1    4    4    0    0  0.31276544377E+02 -0.19346254929E+02 -0.37966734372E+02  0.52858043161E+02  0.00000000000E+00 0.  1.
<mgrwt>
<rscale>  0 0.90648832E+02</rscale>
<asrwt>0</asrwt>
<pdfrwt beam="1">  1        3 0.52742206E-02 0.90648832E+02</pdfrwt>
<pdfrwt beam="2">  1       -3 0.92189070E-02 0.90648832E+02</pdfrwt>
<totfact> 0.35666812E+04</totfact>
</mgrwt>
</event>
<event>
 7    1  0.1312339E-009  0.9148600E+02  0.7818608E-02  0.1299293E+00
          3   -1    0    0  501    0  0.00000000000E+00  0.00000000000E+00  0.25125752219E+02  0.25125955217E+02  0.10100000000E+00 0. -1.
         -3   -1    0    0    0  501 -0.00000000000E+00 -0.00000000000E+00 -0.83277416209E+02  0.83277477456E+02  0.10100000000E+00 0.  1.
         23    2    1    2    0    0  0.00000000000E+00  0.44408920985E-15 -0.58151663990E+02  0.10840343267E+03  0.91485999970E+02 0.  0.
    9000005    2    3    3    0    0  0.36799137370E+02 -0.35411135150E+01  0.11505421044E+01  0.38521620706E+02  0.10764549160E+02 0.  0.
         22    1    3    3    0    0 -0.36799137370E+02  0.35411135150E+01 -0.59302206094E+02  0.69881811967E+02  0.00000000000E+00 0.  1.
         22    1    4    4    0    0  0.11134795542E+02 -0.48748264358E+01  0.36760373169E+01  0.12698852503E+02  0.00000000000E+00 0.  1.
         22    1    4    4    0    0  0.25664341827E+02  0.13337129209E+01 -0.25254952125E+01  0.25822768203E+02  0.00000000000E+00 0.  1.
<mgrwt>
<rscale>  0 0.91486000E+02</rscale>
<asrwt>0</asrwt>
<pdfrwt beam="1">  1        3 0.38655207E-02 0.91486000E+02</pdfrwt>
<pdfrwt beam="2">  1       -3 0.12811930E-01 0.91486000E+02</pdfrwt>
<totfact> 0.33747948E+04</totfact>
</mgrwt>
</event>
<event>
 7    1  0.1312339E-009  0.9352578E+02  0.7818608E-02  0.1294531E+00
          3   -1    0    0  501    0  0.00000000000E+00  0.00000000000E+00  0.15971330750E+03  0.15971333944E+03  0.10100000000E+00 0. -1.
         -3   -1    0    0    0  501 -0.00000000000E+00 -0.00000000000E+00 -0.13691613305E+02  0.13691985827E+02  0.10100000000E+00 0.  1.
         23    2    1    2    0    0  0.35527136788E-14  0.00000000000E+00  0.14602169420E+03  0.17340532527E+03  0.93525780692E+02 0.  0.
    9000005    2    3    3    0    0  0.24639211391E+02 -0.18384087720E+02  0.13717929781E+03  0.14141699312E+03  0.15347337822E+02 0.  0.
         22    1    3    3    0    0 -0.24639211391E+02  0.18384087720E+02  0.88423963925E+01  0.31988332143E+02  0.00000000000E+00 0.  1.
         22    1    4    4    0    0  0.73100297390E+01 -0.13713546306E+02  0.48114469768E+02  0.50561844193E+02  0.00000000000E+00 0. -1.
         22    1    4    4    0    0  0.17329181652E+02 -0.46705414139E+01  0.89064828037E+02  0.90855148930E+02  0.00000000000E+00 0. -1.
<mgrwt>
<rscale>  0 0.93525781E+02</rscale>
<asrwt>0</asrwt>
<pdfrwt beam="1">  1        3 0.24571309E-01 0.93525781E+02</pdfrwt>
<pdfrwt beam="2">  1       -3 0.21064332E-02 0.93525781E+02</pdfrwt>
<totfact> 0.27938935E+04</totfact>
</mgrwt>
</event>
<event>
 7    1  0.1312339E-009  0.9823139E+02  0.7818608E-02  0.1284060E+00
         -3   -1    0    0    0  501 -0.00000000000E+00  0.00000000000E+00  0.22033830853E+03  0.22033833168E+03  0.10100000000E+00 0.  1.
          3   -1    0    0  501    0  0.00000000000E+00 -0.00000000000E+00 -0.10948141738E+02  0.10948607606E+02  0.10100000000E+00 0. -1.
         23    2    1    2    0    0 -0.35527136788E-14  0.00000000000E+00  0.20939016680E+03  0.23128693929E+03  0.98231391798E+02 0.  0.
    9000005    2    3    3    0    0  0.20604058490E+02 -0.43340115383E+02  0.88511844579E+02  0.10123132961E+03  0.10513925786E+02 0.  0.
         22    1    3    3    0    0 -0.20604058490E+02  0.43340115383E+02  0.12087832222E+03  0.13005560968E+03  0.00000000000E+00 0.  1.
         22    1    4    4    0    0 -0.13202162888E+00 -0.68322604960E+01  0.16736237308E+02  0.18077578721E+02  0.00000000000E+00 0.  1.
         22    1    4    4    0    0  0.20736080119E+02 -0.36507854887E+02  0.71775607271E+02  0.83153750885E+02  0.00000000000E+00 0.  1.
<mgrwt>
<rscale>  0 0.98231392E+02</rscale>
<asrwt>0</asrwt>
<pdfrwt beam="2">  1        3 0.16843672E-02 0.98231392E+02</pdfrwt>
<pdfrwt beam="1">  1       -3 0.33898237E-01 0.98231392E+02</pdfrwt>
<totfact> 0.22029182E+04</totfact>
</mgrwt>
</event>
<event>
 7    1  0.1312339E-009  0.9138192E+02  0.7818608E-02  0.1299539E+00
          3   -1    0    0  501    0  0.00000000000E+00  0.00000000000E+00  0.13198076320E+03  0.13198080184E+03  0.10100000000E+00 0. -1.
         -3   -1    0    0    0  501 -0.00000000000E+00 -0.00000000000E+00 -0.15817737611E+02  0.15818060062E+02  0.10100000000E+00 0.  1.
         23    2    1    2    0    0  0.00000000000E+00  0.00000000000E+00  0.11616302559E+03  0.14779886191E+03  0.91381918710E+02 0.  0.
    9000005    2    3    3    0    0 -0.53733914456E+01  0.35527200438E+02  0.10297858099E+03  0.10952504728E+03  0.10004625545E+02 0.  0.
         22    1    3    3    0    0  0.53733914456E+01 -0.35527200438E+02  0.13184444595E+02  0.38273814624E+02  0.00000000000E+00 0.  1.
         22    1    4    4    0    0 -0.80490812875E+00  0.17951471324E+01  0.14554791991E+01  0.24472127046E+01  0.00000000000E+00 0.  1.
         22    1    4    4    0    0 -0.45684833168E+01  0.33732053306E+02  0.10152310179E+03  0.10707783458E+03  0.00000000000E+00 0.  1.
<mgrwt>
<rscale>  0 0.91381919E+02</rscale>
<asrwt>0</asrwt>
<pdfrwt beam="1">  1        3 0.20304760E-01 0.91381919E+02</pdfrwt>
<pdfrwt beam="2">  1       -3 0.24335259E-02 0.91381919E+02</pdfrwt>
<totfact> 0.31251110E+04</totfact>
</mgrwt>
</event>
<event>
 7    1  0.1312339E-009  0.9136217E+02  0.7818608E-02  0.1299586E+00
         -3   -1    0    0    0  501 -0.00000000000E+00  0.00000000000E+00  0.36786657107E+01  0.36800519577E+01  0.10100000000E+00 0.  1.
          3   -1    0    0  501    0  0.00000000000E+00 -0.00000000000E+00 -0.56715223438E+03  0.56715224338E+03  0.10100000000E+00 0. -1.
         23    2    1    2    0    0 -0.17763568394E-14 -0.71054273576E-14 -0.56347356867E+03  0.57083229533E+03  0.91362173813E+02 0.  0.
    9000005    2    3    3    0    0 -0.10805927671E+02 -0.29874288385E+02 -0.48660799466E+03  0.48766043923E+03  0.40152639168E+01 0.  0.
         22    1    3    3    0    0  0.10805927671E+02  0.29874288385E+02 -0.76865574010E+02  0.83171856101E+02  0.00000000000E+00 0.  1.
         22    1    4    4    0    0 -0.29449787802E+01 -0.12250712944E+02 -0.17162333517E+03  0.17208521739E+03  0.00000000000E+00 0.  1.
         22    1    4    4    0    0 -0.78609488910E+01 -0.17623575442E+02 -0.31498465949E+03  0.31557522185E+03  0.00000000000E+00 0.  1.
<mgrwt>
<rscale>  0 0.91362174E+02</rscale>
<asrwt>0</asrwt>
<pdfrwt beam="2">  1        3 0.87254228E-01 0.91362174E+02</pdfrwt>
<pdfrwt beam="1">  1       -3 0.56605635E-03 0.91362174E+02</pdfrwt>
<totfact> 0.16231265E+04</totfact>
</mgrwt>
</event>
<event>
 7    1  0.1312339E-009  0.1202972E+03  0.7818608E-02  0.1242607E+00
          3   -1    0    0  501    0  0.00000000000E+00  0.00000000000E+00  0.11236140883E+02  0.11236594811E+02  0.10100000000E+00 0. -1.
         -3   -1    0    0    0  501 -0.00000000000E+00 -0.00000000000E+00 -0.32197698196E+03  0.32197699780E+03  0.10100000000E+00 0.  1.
         23    2    1    2    0    0  0.00000000000E+00  0.00000000000E+00 -0.31074084107E+03  0.33321359261E+03  0.12029724847E+03 0.  0.
    9000005    2    3    3    0    0  0.18888226054E+02  0.55316026056E+02 -0.18536754979E+03  0.19488395013E+03  0.14212588775E+02 0.  0.
         22    1    3    3    0    0 -0.18888226054E+02 -0.55316026056E+02 -0.12537329128E+03  0.13832964248E+03  0.00000000000E+00 0. -1.
         22    1    4    4    0    0  0.10565305918E+02  0.21218358289E+02 -0.95699362253E+02  0.98591137295E+02  0.00000000000E+00 0. -1.
         22    1    4    4    0    0  0.83229201361E+01  0.34097667767E+02 -0.89668187542E+02  0.96292812836E+02  0.00000000000E+00 0. -1.
<mgrwt>
<rscale>  0 0.12029725E+03</rscale>
<asrwt>0</asrwt>
<pdfrwt beam="1">  1        3 0.17286734E-02 0.12029725E+03</pdfrwt>
<pdfrwt beam="2">  1       -3 0.49534949E-01 0.12029725E+03</pdfrwt>
<totfact> 0.10706112E+04</totfact>
</mgrwt>
</event>
<event>
 7    1  0.1312339E-009  0.9700153E+02  0.7818608E-02  0.1286731E+00
         -3   -1    0    0    0  501 -0.00000000000E+00  0.00000000000E+00  0.10746398093E+03  0.10746402840E+03  0.10100000000E+00 0.  1.
          3   -1    0    0  501    0  0.00000000000E+00 -0.00000000000E+00 -0.21889250359E+02  0.21889483372E+02  0.10100000000E+00 0. -1.
         23    2    1    2    0    0  0.00000000000E+00  0.00000000000E+00  0.85574730575E+02  0.12935351177E+03  0.97001528306E+02 0.  0.
    9000005    2    3    3    0    0 -0.26747311560E+02  0.38666495471E+02  0.58515545080E+02  0.75106704790E+02  0.25360482239E+01 0.  0.
         22    1    3    3    0    0  0.26747311560E+02 -0.38666495471E+02  0.27059185495E+02  0.54246806978E+02  0.00000000000E+00 0. -1.
         22    1    4    4    0    0 -0.11854062112E+02  0.17740539609E+02  0.24621452740E+02  0.32580077796E+02  0.00000000000E+00 0.  1.
         22    1    4    4    0    0 -0.14893249448E+02  0.20925955862E+02  0.33894092340E+02  0.42526626993E+02  0.00000000000E+00 0.  1.
<mgrwt>
<rscale>  0 0.97001528E+02</rscale>
<asrwt>0</asrwt>
<pdfrwt beam="2">  1        3 0.33675985E-02 0.97001528E+02</pdfrwt>
<pdfrwt beam="1">  1       -3 0.16532942E-01 0.97001528E+02</pdfrwt>
<totfact> 0.27551307E+04</totfact>
</mgrwt>
</event>
<event>
 7    1  0.1312339E-009  0.9250340E+02  0.7818608E-02  0.1296900E+00
          3   -1    0    0  501    0  0.00000000000E+00  0.00000000000E+00  0.14187672918E+02  0.14188032416E+02  0.10100000000E+00 0. -1.
         -3   -1    0    0    0  501 -0.00000000000E+00 -0.00000000000E+00 -0.15077787121E+03  0.15077790504E+03  0.10100000000E+00 0.  1.
         23    2    1    2    0    0  0.00000000000E+00  0.00000000000E+00 -0.13659019829E+03  0.16496593745E+03  0.92503395887E+02 0.  0.
    9000005    2    3    3    0    0 -0.17643480082E+02 -0.29340635262E+02 -0.12333713638E+03  0.12825342028E+03  0.80452058352E+01 0.  0.
         22    1    3    3    0    0  0.17643480082E+02  0.29340635262E+02 -0.13253061913E+02  0.36712517171E+02  0.00000000000E+00 0. -1.
         22    1    4    4    0    0 -0.81079070546E+01 -0.64914419927E+01 -0.34322869792E+02  0.35859954918E+02  0.00000000000E+00 0. -1.
         22    1    4    4    0    0 -0.95355730277E+01 -0.22849193269E+02 -0.89014266587E+02  0.92393465364E+02  0.00000000000E+00 0. -1.
<mgrwt>
<rscale>  0 0.92503396E+02</rscale>
<asrwt>0</asrwt>
<pdfrwt beam="1">  1        3 0.21827493E-02 0.92503396E+02</pdfrwt>
<pdfrwt beam="2">  1       -3 0.23196625E-01 0.92503396E+02</pdfrwt>
<totfact> 0.29248124E+04</totfact>
</mgrwt>
</event>
<event>
 7    1  0.1312339E-009  0.9482013E+02  0.7818608E-02  0.1291582E+00
         -3   -1    0    0    0  501 -0.00000000000E+00  0.00000000000E+00  0.79393798781E+01  0.79400222826E+01  0.10100000000E+00 0.  1.
          3   -1    0    0  501    0  0.00000000000E+00 -0.00000000000E+00 -0.28309747228E+03  0.28309749030E+03  0.10100000000E+00 0. -1.
         23    2    1    2    0    0  0.00000000000E+00  0.00000000000E+00 -0.27515809241E+03  0.29103751258E+03  0.94820134540E+02 0.  0.
    9000005    2    3    3    0    0 -0.23798017187E+02 -0.34181079149E+02 -0.76745008570E+02  0.88300136574E+02  0.13131107522E+02 0.  0.
         22    1    3    3    0    0  0.23798017187E+02  0.34181079149E+02 -0.19841308384E+03  0.20273737601E+03  0.00000000000E+00 0.  1.
         22    1    4    4    0    0 -0.22970626830E+02 -0.34339193567E+02 -0.77030996204E+02  0.87410550210E+02  0.00000000000E+00 0.  1.
         22    1    4    4    0    0 -0.82739035734E+00  0.15811441814E+00  0.28598763396E+00  0.88958636423E+00  0.00000000000E+00 0.  1.
<mgrwt>
<rscale>  0 0.94820135E+02</rscale>
<asrwt>0</asrwt>
<pdfrwt beam="2">  1        3 0.43553500E-01 0.94820135E+02</pdfrwt>
<pdfrwt beam="1">  1       -3 0.12214941E-02 0.94820135E+02</pdfrwt>
<totfact> 0.21939457E+04</totfact>
</mgrwt>
</event>
<event>
 7    1  0.1312339E-009  0.9195709E+02  0.7818608E-02  0.1298180E+00
         -3   -1    0    0    0  501 -0.00000000000E+00  0.00000000000E+00  0.19386046064E+03  0.19386048695E+03  0.10100000000E+00 0.  1.
          3   -1    0    0  501    0  0.00000000000E+00 -0.00000000000E+00 -0.10904627929E+02  0.10905095656E+02  0.10100000000E+00 0. -1.
         23    2    1    2    0    0  0.00000000000E+00  0.00000000000E+00  0.18295583271E+03  0.20476558261E+03  0.91957093784E+02 0.  0.
    9000005    2    3    3    0    0  0.34521436480E+02  0.98103859038E+01  0.15332907042E+03  0.15822830409E+03  0.15440826726E+02 0.  0.
         22    1    3    3    0    0 -0.34521436480E+02 -0.98103859038E+01  0.29626762292E+02  0.46537278521E+02  0.00000000000E+00 0. -1.
         22    1    4    4    0    0  0.34110889750E+02  0.10194430678E+02  0.15355078314E+03  0.15762398999E+03  0.00000000000E+00 0. -1.
         22    1    4    4    0    0  0.41054672956E+00 -0.38404477394E+00 -0.22171271713E+00  0.60431410250E+00  0.00000000000E+00 0. -1.
<mgrwt>
<rscale>  0 0.91957094E+02</rscale>
<asrwt>0</asrwt>
<pdfrwt beam="2">  1        3 0.16776729E-02 0.91957094E+02</pdfrwt>
<pdfrwt beam="1">  1       -3 0.29824726E-01 0.91957094E+02</pdfrwt>
<totfact> 0.27609336E+04</totfact>
</mgrwt>
</event>
<event>
 7    1  0.1312339E-009  0.9066996E+02  0.7818608E-02  0.1301237E+00
         -3   -1    0    0    0  501 -0.00000000000E+00  0.00000000000E+00  0.17568405102E+03  0.17568408006E+03  0.10100000000E+00 0.  1.
          3   -1    0    0  501    0  0.00000000000E+00 -0.00000000000E+00 -0.11698368003E+02  0.11698803995E+02  0.10100000000E+00 0. -1.
         23    2    1    2    0    0  0.00000000000E+00  0.00000000000E+00  0.16398568302E+03  0.18738288405E+03  0.90669956433E+02 0.  0.
    9000005    2    3    3    0    0  0.24811240559E+02 -0.19465071683E+01  0.16018404726E+03  0.16220672504E+03  0.57189248943E+01 0.  0.
         22    1    3    3    0    0 -0.24811240559E+02  0.19465071683E+01  0.38016357593E+01  0.25176159014E+02  0.00000000000E+00 0. -1.
         22    1    4    4    0    0  0.11191218692E+02 -0.16612604392E+01  0.90414860878E+02  0.91119977116E+02  0.00000000000E+00 0.  1.
         22    1    4    4    0    0  0.13620021868E+02 -0.28524672906E+00  0.69769186384E+02  0.71086747922E+02  0.00000000000E+00 0.  1.
<mgrwt>
<rscale>  0 0.90669956E+02</rscale>
<asrwt>0</asrwt>
<pdfrwt beam="2">  1        3 0.17997847E-02 0.90669956E+02</pdfrwt>
<pdfrwt beam="1">  1       -3 0.27028352E-01 0.90669956E+02</pdfrwt>
<totfact> 0.29605536E+04</totfact>
</mgrwt>
</event>
<event>
 7    1  0.1312339E-009  0.9098235E+02  0.7818608E-02  0.1300490E+00
          3   -1    0    0  501    0  0.00000000000E+00  0.00000000000E+00  0.18733583986E+03  0.18733586709E+03  0.10100000000E+00 0. -1.
         -3   -1    0    0    0  501 -0.00000000000E+00 -0.00000000000E+00 -0.11046464298E+02  0.11046926020E+02  0.10100000000E+00 0.  1.
         23    2    1    2    0    0  0.00000000000E+00  0.00000000000E+00  0.17628937556E+03  0.19838279311E+03  0.90982353590E+02 0.  0.
    9000005    2    3    3    0    0  0.26872180161E+02  0.34330247104E+02  0.10959205765E+03  0.11870084942E+03  0.13371335780E+02 0.  0.
         22    1    3    3    0    0 -0.26872180161E+02 -0.34330247104E+02  0.66697317909E+02  0.79681943683E+02  0.00000000000E+00 0.  1.
         22    1    4    4    0    0  0.91082835027E+01  0.31260461651E+01  0.20673605550E+02  0.22806379797E+02  0.00000000000E+00 0. -1.
         22    1    4    4    0    0  0.17763896659E+02  0.31204200939E+02  0.88918452104E+02  0.95894469628E+02  0.00000000000E+00 0. -1.
<mgrwt>
<rscale>  0 0.90982354E+02</rscale>
<asrwt>0</asrwt>
<pdfrwt beam="1">  1        3 0.28820936E-01 0.90982354E+02</pdfrwt>
<pdfrwt beam="2">  1       -3 0.16994937E-02 0.90982354E+02</pdfrwt>
<totfact> 0.28747625E+04</totfact>
</mgrwt>
</event>
<event>
 7    1  0.1312339E-009  0.9175926E+02  0.7818608E-02  0.1298646E+00
          3   -1    0    0  501    0  0.00000000000E+00  0.00000000000E+00  0.11542449406E+03  0.11542453825E+03  0.10100000000E+00 0. -1.
         -3   -1    0    0    0  501 -0.00000000000E+00 -0.00000000000E+00 -0.18236328685E+02  0.18236608372E+02  0.10100000000E+00 0.  1.
         23    2    1    2    0    0  0.00000000000E+00  0.00000000000E+00  0.97188165375E+02  0.13366114662E+03  0.91759264529E+02 0.  0.
    9000005    2    3    3    0    0  0.80731613577E+01 -0.43920699767E+02  0.52552137605E+02  0.70521786650E+02  0.14744199644E+02 0.  0.
         22    1    3    3    0    0 -0.80731613577E+01  0.43920699767E+02  0.44636027771E+02  0.63139359971E+02  0.00000000000E+00 0.  1.
         22    1    4    4    0    0  0.96962905627E+01 -0.32082452543E+02  0.29914697170E+02  0.44924279834E+02  0.00000000000E+00 0.  1.
         22    1    4    4    0    0 -0.16231292050E+01 -0.11838247225E+02  0.22637440435E+02  0.25597506816E+02  0.00000000000E+00 0.  1.
<mgrwt>
<rscale>  0 0.91759265E+02</rscale>
<asrwt>0</asrwt>
<pdfrwt beam="1">  1        3 0.17757640E-01 0.91759265E+02</pdfrwt>
<pdfrwt beam="2">  1       -3 0.28056139E-02 0.91759265E+02</pdfrwt>
<totfact> 0.31781960E+04</totfact>
</mgrwt>
</event>
<event>
 7    1  0.1312339E-009  0.9347948E+02  0.7818608E-02  0.1294638E+00
          3   -1    0    0  501    0  0.00000000000E+00  0.00000000000E+00  0.54749593482E+01  0.54758908740E+01  0.10100000000E+00 0. -1.
         -3   -1    0    0    0  501 -0.00000000000E+00 -0.00000000000E+00 -0.39898236123E+03  0.39898237401E+03  0.10100000000E+00 0.  1.
         23    2    1    2    0    0 -0.88817841970E-15  0.71054273576E-14 -0.39350740188E+03  0.40445826489E+03  0.93479477428E+02 0.  0.
    9000005    2    3    3    0    0  0.70678271581E+01  0.45268497425E+02 -0.22423759555E+03  0.22909732746E+03  0.10192897110E+02 0.  0.
         22    1    3    3    0    0 -0.70678271581E+01 -0.45268497425E+02 -0.16926980633E+03  0.17536093743E+03  0.00000000000E+00 0.  1.
         22    1    4    4    0    0 -0.22700863137E+01  0.11033741426E+02 -0.63237850390E+02  0.64233343862E+02  0.00000000000E+00 0. -1.
         22    1    4    4    0    0  0.93379134718E+01  0.34234755999E+02 -0.16099974516E+03  0.16486398360E+03  0.00000000000E+00 0. -1.
<mgrwt>
<rscale>  0 0.93479477E+02</rscale>
<asrwt>0</asrwt>
<pdfrwt beam="1">  1        3 0.84237439E-03 0.93479477E+02</pdfrwt>
<pdfrwt beam="2">  1       -3 0.61381951E-01 0.93479477E+02</pdfrwt>
<totfact> 0.19142133E+04</totfact>
</mgrwt>
</event>
<event>
 7    1  0.1312339E-009  0.8810409E+02  0.7818608E-02  0.1307509E+00
          3   -1    0    0  501    0  0.00000000000E+00  0.00000000000E+00  0.10684898806E+02  0.10685376151E+02  0.10100000000E+00 0. -1.
         -3   -1    0    0    0  501 -0.00000000000E+00 -0.00000000000E+00 -0.18161462804E+03  0.18161465612E+03  0.10100000000E+00 0.  1.
         23    2    1    2    0    0  0.88817841970E-15  0.00000000000E+00 -0.17092972923E+03  0.19230003228E+03  0.88104086608E+02 0.  0.
    9000005    2    3    3    0    0  0.68397238601E+01 -0.26601641236E+02 -0.12555089953E+02  0.31561251931E+02  0.91680532736E+01 0.  0.
         22    1    3    3    0    0 -0.68397238601E+01  0.26601641236E+02 -0.15837463928E+03  0.16073878034E+03  0.00000000000E+00 0.  1.
         22    1    4    4    0    0  0.87133383000E+01 -0.23408392049E+02 -0.12322199492E+02  0.27851601085E+02  0.00000000000E+00 0.  1.
         22    1    4    4    0    0 -0.18736144399E+01 -0.31932491864E+01 -0.23289046080E+00  0.37096508465E+01  0.00000000000E+00 0.  1.
<mgrwt>
<rscale>  0 0.88104087E+02</rscale>
<asrwt>0</asrwt>
<pdfrwt beam="1">  1        3 0.16438696E-02 0.88104087E+02</pdfrwt>
<pdfrwt beam="2">  1       -3 0.27940749E-01 0.88104087E+02</pdfrwt>
<totfact> 0.31692903E+04</totfact>
</mgrwt>
</event>
<event>
 7    1  0.1312339E-009  0.9004353E+02  0.7818608E-02  0.1302746E+00
          3   -1    0    0  501    0  0.00000000000E+00  0.00000000000E+00  0.14329385282E+02  0.14329741224E+02  0.10100000000E+00 0. -1.
         -3   -1    0    0    0  501 -0.00000000000E+00 -0.00000000000E+00 -0.14145258909E+03  0.14145262515E+03  0.10100000000E+00 0.  1.
         23    2    1    2    0    0  0.00000000000E+00  0.00000000000E+00 -0.12712320381E+03  0.15578236638E+03  0.90043526843E+02 0.  0.
    9000005    2    3    3    0    0 -0.86503769904E+01 -0.23974527231E+02 -0.12734628406E+03  0.13029400152E+03  0.10480638848E+02 0.  0.
         22    1    3    3    0    0  0.86503769904E+01  0.23974527231E+02  0.22308024993E+00  0.25488364852E+02  0.00000000000E+00 0. -1.
         22    1    4    4    0    0 -0.21255261286E+01 -0.17902900620E+02 -0.71330686140E+02  0.73573762287E+02  0.00000000000E+00 0.  1.
         22    1    4    4    0    0 -0.65248508617E+01 -0.60716266115E+01 -0.56015597923E+02  0.56720239237E+02  0.00000000000E+00 0.  1.
<mgrwt>
<rscale>  0 0.90043527E+02</rscale>
<asrwt>0</asrwt>
<pdfrwt beam="1">  1        3 0.22045511E-02 0.90043527E+02</pdfrwt>
<pdfrwt beam="2">  1       -3 0.21761966E-01 0.90043527E+02</pdfrwt>
<totfact> 0.32021807E+04</totfact>
</mgrwt>
</event>
<event>
 7    1  0.1312339E-009  0.9121082E+02  0.7818608E-02  0.1299946E+00
         -3   -1    0    0    0  501 -0.00000000000E+00  0.00000000000E+00  0.13700071797E+02  0.13700444089E+02  0.10100000000E+00 0.  1.
          3   -1    0    0  501    0  0.00000000000E+00 -0.00000000000E+00 -0.15181087579E+03  0.15181090939E+03  0.10100000000E+00 0. -1.
         23    2    1    2    0    0  0.00000000000E+00  0.00000000000E+00 -0.13811080399E+03  0.16551135348E+03  0.91210821453E+02 0.  0.
    9000005    2    3    3    0    0  0.57139284173E+01  0.19304120021E+02 -0.14284885758E+03  0.14482930378E+03  0.12823146869E+02 0.  0.
         22    1    3    3    0    0 -0.57139284173E+01 -0.19304120021E+02  0.47380535846E+01  0.20682049693E+02  0.00000000000E+00 0.  1.
         22    1    4    4    0    0  0.55886367901E+01  0.19869930947E+02 -0.10682927998E+03  0.10880506458E+03  0.00000000000E+00 0.  1.
         22    1    4    4    0    0  0.12529162722E+00 -0.56581092609E+00 -0.36019577597E+02  0.36024239204E+02  0.00000000000E+00 0.  1.
<mgrwt>
<rscale>  0 0.91210821E+02</rscale>
<asrwt>0</asrwt>
<pdfrwt beam="2">  1        3 0.23355549E-01 0.91210821E+02</pdfrwt>
<pdfrwt beam="1">  1       -3 0.21077347E-02 0.91210821E+02</pdfrwt>
<totfact> 0.30353581E+04</totfact>
</mgrwt>
</event>
<event>
 7    1  0.1408786E-009  0.9144931E+02  0.7818608E-02  0.1299379E+00
         -3   -1    0    0    0  501 -0.00000000000E+00  0.00000000000E+00  0.86030320463E+02  0.86030379750E+02  0.10100000000E+00 0.  1.
          3   -1    0    0  501    0  0.00000000000E+00 -0.00000000000E+00 -0.24302234287E+02  0.24302444164E+02  0.10100000000E+00 0. -1.
         23    2    1    2    0    0  0.00000000000E+00  0.35527136788E-14  0.61728086175E+02  0.11033282391E+03  0.91449305137E+02 0.  0.
    9000005    2    3    3    0    0 -0.38693273323E+02  0.19198055550E+02  0.44209483704E+02  0.63721278457E+02  0.15498004433E+02 0.  0.
         22    1    3    3    0    0  0.38693273323E+02 -0.19198055550E+02  0.17518602471E+02  0.46611545458E+02  0.00000000000E+00 0. -1.
         22    1    4    4    0    0 -0.29669506728E+02  0.15009036070E+02  0.41932628686E+02  0.53515382291E+02  0.00000000000E+00 0. -1.
         22    1    4    4    0    0 -0.90237665953E+01  0.41890194802E+01  0.22768550181E+01  0.10205896166E+02  0.00000000000E+00 0. -1.
<mgrwt>
<rscale>  0 0.91449305E+02</rscale>
<asrwt>0</asrwt>
<pdfrwt beam="2">  1        3 0.37388260E-02 0.91449305E+02</pdfrwt>
<pdfrwt beam="1">  1       -3 0.13235455E-01 0.91449305E+02</pdfrwt>
<totfact> 0.33648149E+04</totfact>
</mgrwt>
</event>
<event>
 7    1  0.1312339E-009  0.9158032E+02  0.7818608E-02  0.1299069E+00
          3   -1    0    0  501    0  0.00000000000E+00  0.00000000000E+00  0.77305327780E+03  0.77305328440E+03  0.10100000000E+00 0. -1.
         -3   -1    0    0    0  501 -0.00000000000E+00 -0.00000000000E+00 -0.27113355220E+01  0.27132160461E+01  0.10100000000E+00 0.  1.
         23    2    1    2    0    0  0.00000000000E+00  0.00000000000E+00  0.77034194228E+03  0.77576650045E+03  0.91580320912E+02 0.  0.
    9000005    2    3    3    0    0 -0.14193474663E+02 -0.17031278338E+02  0.72356511892E+03  0.72400174054E+03  0.11854105533E+02 0.  0.
         22    1    3    3    0    0  0.14193474663E+02  0.17031278338E+02  0.46776823364E+02  0.51764759913E+02  0.00000000000E+00 0.  1.
         22    1    4    4    0    0 -0.15501682453E+02 -0.17749275453E+02  0.66436388230E+03  0.66478169879E+03  0.00000000000E+00 0.  1.
         22    1    4    4    0    0  0.13082077899E+01  0.71799711498E+00  0.59201236621E+02  0.59220041750E+02  0.00000000000E+00 0.  1.
<mgrwt>
<rscale>  0 0.91580321E+02</rscale>
<asrwt>0</asrwt>
<pdfrwt beam="1">  1        3 0.11893129E+00 0.91580321E+02</pdfrwt>
<pdfrwt beam="2">  1       -3 0.41727417E-03 0.91580321E+02</pdfrwt>
<totfact> 0.12606607E+04</totfact>
</mgrwt>
</event>
<event>
 7    1  0.1312339E-009  0.9187675E+02  0.7818608E-02  0.1298369E+00
         -3   -1    0    0    0  501 -0.00000000000E+00  0.00000000000E+00  0.29493439358E+02  0.29493612295E+02  0.10100000000E+00 0.  1.
          3   -1    0    0  501    0  0.00000000000E+00 -0.00000000000E+00 -0.71552251971E+02  0.71552323255E+02  0.10100000000E+00 0. -1.
         23    2    1    2    0    0 -0.35527136788E-14  0.00000000000E+00 -0.42058812613E+02  0.10104593555E+03  0.91876750991E+02 0.  0.
    9000005    2    3    3    0    0 -0.25222125695E+02 -0.35543455619E+02 -0.99956577778E+01  0.46939200664E+02  0.14278743735E+02 0.  0.
         22    1    3    3    0    0  0.25222125695E+02  0.35543455619E+02 -0.32063154835E+02  0.54106734885E+02  0.00000000000E+00 0. -1.
         22    1    4    4    0    0  0.21780600036E+00 -0.37019953586E+01 -0.44732967267E+01  0.58105587248E+01  0.00000000000E+00 0.  1.
         22    1    4    4    0    0 -0.25439931696E+02 -0.31841460261E+02 -0.55223610510E+01  0.41128641939E+02  0.00000000000E+00 0.  1.
<mgrwt>
<rscale>  0 0.91876751E+02</rscale>
<asrwt>0</asrwt>
<pdfrwt beam="2">  1        3 0.11008057E-01 0.91876751E+02</pdfrwt>
<pdfrwt beam="1">  1       -3 0.45374710E-02 0.91876751E+02</pdfrwt>
<totfact> 0.33879633E+04</totfact>
</mgrwt>
</event>
<event>
 7    1  0.1312339E-009  0.9226263E+02  0.7818608E-02  0.1297463E+00
          3   -1    0    0  501    0  0.00000000000E+00  0.00000000000E+00  0.89605151642E+02  0.89605208564E+02  0.10100000000E+00 0. -1.
         -3   -1    0    0    0  501 -0.00000000000E+00 -0.00000000000E+00 -0.23749559632E+02  0.23749774393E+02  0.10100000000E+00 0.  1.
         23    2    1    2    0    0 -0.35527136788E-14  0.00000000000E+00  0.65855592010E+02  0.11335498296E+03  0.92262631450E+02 0.  0.
    9000005    2    3    3    0    0  0.28269380826E+02  0.18188369184E+02 -0.39974398092E+01  0.35834529396E+02  0.11754118689E+02 0.  0.
         22    1    3    3    0    0 -0.28269380826E+02 -0.18188369184E+02  0.69853031820E+02  0.77520453561E+02  0.00000000000E+00 0. -1.
         22    1    4    4    0    0  0.64765813908E+01  0.10808293294E+02 -0.12264638047E+01  0.12659760025E+02  0.00000000000E+00 0. -1.
         22    1    4    4    0    0  0.21792799435E+02  0.73800758903E+01 -0.27709760045E+01  0.23174769371E+02  0.00000000000E+00 0. -1.
<mgrwt>
<rscale>  0 0.92262631E+02</rscale>
<asrwt>0</asrwt>
<pdfrwt beam="1">  1        3 0.13785429E-01 0.92262631E+02</pdfrwt>
<pdfrwt beam="2">  1       -3 0.36537993E-02 0.92262631E+02</pdfrwt>
<totfact> 0.32637573E+04</totfact>
</mgrwt>
</event>
<event>
 7    1  0.1312339E-009  0.9014606E+02  0.7818608E-02  0.1302498E+00
          3   -1    0    0  501    0  0.00000000000E+00  0.00000000000E+00  0.30187681533E+02  0.30187850492E+02  0.10100000000E+00 0.  1.
         -3   -1    0    0    0  501 -0.00000000000E+00 -0.00000000000E+00 -0.67297857815E+02  0.67297933605E+02  0.10100000000E+00 0. -1.
         23    2    1    2    0    0  0.00000000000E+00  0.17763568394E-14 -0.37110176282E+02  0.97485784097E+02  0.90146064348E+02 0.  0.
    9000005    2    3    3    0    0 -0.24001591173E+02  0.15219905660E+02 -0.56086607037E+02  0.63312302692E+02  0.74174305581E+01 0.  0.
         22    1    3    3    0    0  0.24001591173E+02 -0.15219905660E+02  0.18976430755E+02  0.34173481405E+02  0.00000000000E+00 0.  1.
         22    1    4    4    0    0 -0.15998358545E+02  0.80931487897E+01 -0.41544393054E+02  0.45248017942E+02  0.00000000000E+00 0. -1.
         22    1    4    4    0    0 -0.80032326288E+01  0.71267568706E+01 -0.14542213983E+02  0.18064284750E+02  0.00000000000E+00 0. -1.
<mgrwt>
<rscale>  0 0.90146064E+02</rscale>
<asrwt>0</asrwt>
<pdfrwt beam="1">  1        3 0.46442775E-02 0.90146064E+02</pdfrwt>
<pdfrwt beam="2">  1       -3 0.10353535E-01 0.90146064E+02</pdfrwt>
<totfact> 0.35953517E+04</totfact>
</mgrwt>
</event>
<event>
 7    1  0.1312339E-009  0.9186358E+02  0.7818608E-02  0.1298401E+00
         -3   -1    0    0    0  501 -0.00000000000E+00  0.00000000000E+00  0.13022794586E+02  0.13023186239E+02  0.10100000000E+00 0.  1.
          3   -1    0    0  501    0  0.00000000000E+00 -0.00000000000E+00 -0.16199996607E+03  0.16199999755E+03  0.10100000000E+00 0. -1.
         23    2    1    2    0    0  0.00000000000E+00  0.00000000000E+00 -0.14897717148E+03  0.17502318379E+03  0.91863579517E+02 0.  0.
    9000005    2    3    3    0    0  0.15743214489E+02 -0.36256195700E+02 -0.33521197044E+02  0.52988588030E+02  0.11034458803E+02 0.  0.
         22    1    3    3    0    0 -0.15743214489E+02  0.36256195700E+02 -0.11545597444E+03  0.12203459576E+03  0.00000000000E+00 0. -1.
         22    1    4    4    0    0  0.16801937322E+02 -0.27850401212E+02 -0.25631372769E+02  0.41411558960E+02  0.00000000000E+00 0. -1.
         22    1    4    4    0    0 -0.10587228328E+01 -0.84057944879E+01 -0.78898242746E+01  0.11577029070E+02  0.00000000000E+00 0. -1.
<mgrwt>
<rscale>  0 0.91863580E+02</rscale>
<asrwt>0</asrwt>
<pdfrwt beam="2">  1        3 0.24923103E-01 0.91863580E+02</pdfrwt>
<pdfrwt beam="1">  1       -3 0.20035395E-02 0.91863580E+02</pdfrwt>
<totfact> 0.29242457E+04</totfact>
</mgrwt>
</event>
<event>
 7    1  0.1312339E-009  0.9299727E+02  0.7818608E-02  0.1295752E+00
         -3   -1    0    0    0  501 -0.00000000000E+00  0.00000000000E+00  0.21661416707E+03  0.21661419062E+03  0.10100000000E+00 0. -1.
          3   -1    0    0  501    0  0.00000000000E+00 -0.00000000000E+00 -0.99811685076E+01  0.99816795068E+01  0.10100000000E+00 0.  1.
         23    2    1    2    0    0  0.71054273576E-14  0.88817841970E-15  0.20663299857E+03  0.22659587013E+03  0.92997270187E+02 0.  0.
    9000005    2    3    3    0    0  0.44886871973E+02 -0.41805887648E+01  0.11240272857E+03  0.12213701516E+03  0.15835671241E+02 0.  0.
         22    1    3    3    0    0 -0.44886871973E+02  0.41805887648E+01  0.94230269996E+02  0.10445885497E+03  0.00000000000E+00 0.  1.
         22    1    4    4    0    0  0.42585107973E+02 -0.77729222808E+01  0.98455846165E+02  0.10755214264E+03  0.00000000000E+00 0. -1.
         22    1    4    4    0    0  0.23017639999E+01  0.35923335160E+01  0.13946882406E+02  0.14584872521E+02  0.00000000000E+00 0. -1.
<mgrwt>
<rscale>  0 0.92997270E+02</rscale>
<asrwt>0</asrwt>
<pdfrwt beam="2">  1        3 0.15356055E-02 0.92997270E+02</pdfrwt>
<pdfrwt beam="1">  1       -3 0.33325297E-01 0.92997270E+02</pdfrwt>
<totfact> 0.25763862E+04</totfact>
</mgrwt>
</event>
<event>
 7    1  0.1312339E-009  0.9101652E+02  0.7818608E-02  0.1300409E+00
          3   -1    0    0  501    0  0.00000000000E+00  0.00000000000E+00  0.17901783961E+03  0.17901786810E+03  0.10100000000E+00 0. -1.
         -3   -1    0    0    0  501 -0.00000000000E+00 -0.00000000000E+00 -0.11568438963E+02  0.11568879852E+02  0.10100000000E+00 0.  1.
         23    2    1    2    0    0  0.00000000000E+00  0.35527136788E-14  0.16744940065E+03  0.19058674795E+03  0.91016518932E+02 0.  0.
    9000005    2    3    3    0    0 -0.35987522494E+02 -0.26493641385E+02  0.74082695280E+02  0.87076572221E+02  0.98523540692E+01 0.  0.
         22    1    3    3    0    0  0.35987522494E+02  0.26493641385E+02  0.93366705366E+02  0.10351017573E+03  0.00000000000E+00 0. -1.
         22    1    4    4    0    0 -0.24808017205E+02 -0.21291758466E+02  0.60233811684E+02  0.68533851243E+02  0.00000000000E+00 0. -1.
         22    1    4    4    0    0 -0.11179505289E+02 -0.52018829195E+01  0.13848883596E+02  0.18542720978E+02  0.00000000000E+00 0. -1.
<mgrwt>
<rscale>  0 0.91016519E+02</rscale>
<asrwt>0</asrwt>
<pdfrwt beam="1">  1        3 0.27541245E-01 0.91016519E+02</pdfrwt>
<pdfrwt beam="2">  1       -3 0.17797958E-02 0.91016519E+02</pdfrwt>
<totfact> 0.29130906E+04</totfact>
</mgrwt>
</event>
<event>
 7    1  0.1312339E-009  0.8988062E+02  0.7818608E-02  0.1303141E+00
          3   -1    0    0  501    0  0.00000000000E+00  0.00000000000E+00  0.21526924000E+03  0.21526926369E+03  0.10100000000E+00 0. -1.
         -3   -1    0    0    0  501 -0.00000000000E+00 -0.00000000000E+00 -0.93815894423E+01  0.93821330977E+01  0.10100000000E+00 0.  1.
         23    2    1    2    0    0  0.00000000000E+00  0.00000000000E+00  0.20588765056E+03  0.22465139679E+03  0.89880617644E+02 0.  0.
    9000005    2    3    3    0    0 -0.27385347377E+02  0.34328365622E+02  0.12486896206E+03  0.13249705982E+03  0.59007827382E+01 0.  0.
         22    1    3    3    0    0  0.27385347377E+02 -0.34328365622E+02  0.81018688493E+02  0.92154336970E+02  0.00000000000E+00 0.  1.
         22    1    4    4    0    0 -0.87207246535E+01  0.15030740265E+02  0.45140788844E+02  0.48370083821E+02  0.00000000000E+00 0.  1.
         22    1    4    4    0    0 -0.18664622723E+02  0.19297625357E+02  0.79728173219E+02  0.84126975998E+02  0.00000000000E+00 0.  1.
<mgrwt>
<rscale>  0 0.89880618E+02</rscale>
<asrwt>0</asrwt>
<pdfrwt beam="1">  1        3 0.33118389E-01 0.89880618E+02</pdfrwt>
<pdfrwt beam="2">  1       -3 0.14433651E-02 0.89880618E+02</pdfrwt>
<totfact> 0.28342699E+04</totfact>
</mgrwt>
</event>
<event>
 7    1  0.1312339E-009  0.9105712E+02  0.7818608E-02  0.1300312E+00
         -3   -1    0    0    0  501 -0.00000000000E+00  0.00000000000E+00  0.30791417603E+03  0.30791419259E+03  0.10100000000E+00 0.  1.
          3   -1    0    0  501    0  0.00000000000E+00 -0.00000000000E+00 -0.67315124854E+01  0.67322701477E+01  0.10100000000E+00 0. -1.
         23    2    1    2    0    0 -0.71054273576E-14  0.00000000000E+00  0.30118266354E+03  0.31464646274E+03  0.91057123260E+02 0.  0.
    9000005    2    3    3    0    0 -0.34944669415E+02  0.18944666167E+02  0.22608449989E+03  0.22967726549E+03  0.75772618791E+01 0.  0.
         22    1    3    3    0    0  0.34944669415E+02 -0.18944666167E+02  0.75098163653E+02  0.84969197247E+02  0.00000000000E+00 0. -1.
         22    1    4    4    0    0 -0.27457095499E+02  0.12679029188E+02  0.15473140180E+03  0.15765930540E+03  0.00000000000E+00 0. -1.
         22    1    4    4    0    0 -0.74875739164E+01  0.62656369782E+01  0.71353098088E+02  0.72017960098E+02  0.00000000000E+00 0. -1.
<mgrwt>
<rscale>  0 0.91057123E+02</rscale>
<asrwt>0</asrwt>
<pdfrwt beam="2">  1        3 0.10356772E-02 0.91057123E+02</pdfrwt>
<pdfrwt beam="1">  1       -3 0.47371455E-01 0.91057123E+02</pdfrwt>
<totfact> 0.23549666E+04</totfact>
</mgrwt>
</event>
<event>
 7    1  0.1312339E-009  0.9320328E+02  0.7818608E-02  0.1295275E+00
          3   -1    0    0  501    0  0.00000000000E+00  0.00000000000E+00  0.49208129359E+02  0.49208233010E+02  0.10100000000E+00 0. -1.
         -3   -1    0    0    0  501 -0.00000000000E+00 -0.00000000000E+00 -0.44133004507E+02  0.44133120078E+02  0.10100000000E+00 0.  1.
         23    2    1    2    0    0  0.71054273576E-14  0.00000000000E+00  0.50751248515E+01  0.93341353089E+02  0.93203279471E+02 0.  0.
    9000005    2    3    3    0    0 -0.37463892035E+02  0.16970096734E+02  0.22173854150E+02  0.48800428837E+02  0.14081003419E+02 0.  0.
         22    1    3    3    0    0  0.37463892035E+02 -0.16970096734E+02 -0.17098729298E+02  0.44540924251E+02  0.00000000000E+00 0.  1.
         22    1    4    4    0    0 -0.10383061200E+02 -0.17014603204E+01  0.64554981189E+01  0.12344082917E+02  0.00000000000E+00 0.  1.
         22    1    4    4    0    0 -0.27080830835E+02  0.18671557054E+02  0.15718356031E+02  0.36456345921E+02  0.00000000000E+00 0.  1.
<mgrwt>
<rscale>  0 0.93203279E+02</rscale>
<asrwt>0</asrwt>
<pdfrwt beam="1">  1        3 0.75704983E-02 0.93203279E+02</pdfrwt>
<pdfrwt beam="2">  1       -3 0.67897099E-02 0.93203279E+02</pdfrwt>
<totfact> 0.33122591E+04</totfact>
</mgrwt>
</event>
<event>
 7    1  0.1312339E-009  0.7621188E+02  0.7818608E-02  0.1340159E+00
          3   -1    0    0  501    0  0.00000000000E+00  0.00000000000E+00  0.29660867827E+02  0.29661039787E+02  0.10100000000E+00 0. -1.
         -3   -1    0    0    0  501 -0.00000000000E+00 -0.00000000000E+00 -0.48955131371E+02  0.48955235558E+02  0.10100000000E+00 0.  1.
         23    2    1    2    0    0  0.17763568394E-14  0.00000000000E+00 -0.19294263544E+02  0.78616275345E+02  0.76211876656E+02 0.  0.
    9000005    2    3    3    0    0 -0.15461197184E+02 -0.13118044155E+02  0.23340351254E+02  0.31405661287E+02  0.55146952204E+01 0.  0.
         22    1    3    3    0    0  0.15461197184E+02  0.13118044155E+02 -0.42634614798E+02  0.47210614059E+02  0.00000000000E+00 0.  1.
         22    1    4    4    0    0 -0.86493859374E+01 -0.70813101708E+01  0.86928422717E+01  0.14160591004E+02  0.00000000000E+00 0.  1.
         22    1    4    4    0    0 -0.68118112463E+01 -0.60367339843E+01  0.14647508983E+02  0.17245070282E+02  0.00000000000E+00 0.  1.
<mgrwt>
<rscale>  0 0.76211877E+02</rscale>
<asrwt>0</asrwt>
<pdfrwt beam="1">  1        3 0.45632317E-02 0.76211877E+02</pdfrwt>
<pdfrwt beam="2">  1       -3 0.75315799E-02 0.76211877E+02</pdfrwt>
<totfact> 0.58931869E+04</totfact>
</mgrwt>
</event>
<event>
 7    1  0.1312339E-009  0.9085988E+02  0.7818608E-02  0.1300783E+00
         -3   -1    0    0    0  501 -0.00000000000E+00  0.00000000000E+00  0.48093176724E+02  0.48093282778E+02  0.10100000000E+00 0.  1.
          3   -1    0    0  501    0  0.00000000000E+00 -0.00000000000E+00 -0.42913969663E+02  0.42914088517E+02  0.10100000000E+00 0. -1.
         23    2    1    2    0    0 -0.44408920985E-15  0.17763568394E-14  0.51792070610E+01  0.91007371295E+02  0.90859878078E+02 0.  0.
    9000005    2    3    3    0    0  0.22961409646E+01 -0.15760346187E+02  0.43834397542E+02  0.49199662360E+02  0.15668171344E+02 0.  0.
         22    1    3    3    0    0 -0.22961409646E+01  0.15760346187E+02 -0.38655190481E+02  0.41807708935E+02  0.00000000000E+00 0. -1.
         22    1    4    4    0    0 -0.64325911700E+01 -0.90326191628E+01  0.18446837892E+02  0.21523295898E+02  0.00000000000E+00 0. -1.
         22    1    4    4    0    0  0.87287321346E+01 -0.67277270240E+01  0.25387559650E+02  0.27676366463E+02  0.00000000000E+00 0. -1.
<mgrwt>
<rscale>  0 0.90859878E+02</rscale>
<asrwt>0</asrwt>
<pdfrwt beam="2">  1        3 0.66021665E-02 0.90859878E+02</pdfrwt>
<pdfrwt beam="1">  1       -3 0.73989675E-02 0.90859878E+02</pdfrwt>
<totfact> 0.35688762E+04</totfact>
</mgrwt>
</event>
<event>
 7    1  0.1312339E-009  0.8508958E+02  0.7818608E-02  0.1315198E+00
          3   -1    0    0  501    0  0.00000000000E+00  0.00000000000E+00  0.19163351375E+02  0.19163617532E+02  0.10100000000E+00 0. -1.
         -3   -1    0    0    0  501 -0.00000000000E+00 -0.00000000000E+00 -0.94453246890E+02  0.94453300890E+02  0.10100000000E+00 0.  1.
         23    2    1    2    0    0  0.35527136788E-14  0.00000000000E+00 -0.75289895515E+02  0.11361691842E+03  0.85089575067E+02 0.  0.
    9000005    2    3    3    0    0  0.29969769756E+02  0.35121333084E+01 -0.77414869342E+02  0.83367328452E+02  0.68210907013E+01 0.  0.
         22    1    3    3    0    0 -0.29969769756E+02 -0.35121333084E+01  0.21249738276E+01  0.30249589970E+02  0.00000000000E+00 0. -1.
         22    1    4    4    0    0  0.27140371732E+02  0.27203726578E+01 -0.62923264470E+02  0.68580882298E+02  0.00000000000E+00 0. -1.
         22    1    4    4    0    0  0.28293980237E+01  0.79176065064E+00 -0.14491604872E+02  0.14786446154E+02  0.00000000000E+00 0. -1.
<mgrwt>
<rscale>  0 0.85089575E+02</rscale>
<asrwt>0</asrwt>
<pdfrwt beam="1">  1        3 0.29482326E-02 0.85089575E+02</pdfrwt>
<pdfrwt beam="2">  1       -3 0.14531293E-01 0.85089575E+02</pdfrwt>
<totfact> 0.40608144E+04</totfact>
</mgrwt>
</event>
<event>
 7    1  0.1312339E-009  0.9321117E+02  0.7818608E-02  0.1295257E+00
          3   -1    0    0  501    0  0.00000000000E+00  0.00000000000E+00  0.28482106415E+01  0.28500008524E+01  0.10100000000E+00 0. -1.
         -3   -1    0    0    0  501 -0.00000000000E+00 -0.00000000000E+00 -0.76237090913E+03  0.76237091582E+03  0.10100000000E+00 0.  1.
         23    2    1    2    0    0  0.00000000000E+00  0.00000000000E+00 -0.75952269849E+03  0.76522091667E+03  0.93211167754E+02 0.  0.
    9000005    2    3    3    0    0 -0.35351013852E+01 -0.40131204581E+02 -0.56335968916E+03  0.56496374014E+03  0.13670324892E+02 0.  0.
         22    1    3    3    0    0  0.35351013852E+01  0.40131204581E+02 -0.19616300933E+03  0.20025717653E+03  0.00000000000E+00 0. -1.
         22    1    4    4    0    0  0.50742792905E+01 -0.12553733238E+02 -0.16119551645E+03  0.16176321909E+03  0.00000000000E+00 0.  1.
         22    1    4    4    0    0 -0.86093806757E+01 -0.27577471344E+02 -0.40216417271E+03  0.40320052105E+03  0.00000000000E+00 0.  1.
<mgrwt>
<rscale>  0 0.93211168E+02</rscale>
<asrwt>0</asrwt>
<pdfrwt beam="1">  1        3 0.43832508E-03 0.93211168E+02</pdfrwt>
<pdfrwt beam="2">  1       -3 0.11728781E+00 0.93211168E+02</pdfrwt>
<totfact> 0.12139919E+04</totfact>
</mgrwt>
</event>
<event>
 7    1  0.1312339E-009  0.8801880E+02  0.7818608E-02  0.1307722E+00
         -3   -1    0    0    0  501 -0.00000000000E+00  0.00000000000E+00  0.16058856078E+03  0.16058859254E+03  0.10100000000E+00 0.  1.
          3   -1    0    0  501    0  0.00000000000E+00 -0.00000000000E+00 -0.12060559254E+02  0.12060982154E+02  0.10100000000E+00 0. -1.
         23    2    1    2    0    0  0.00000000000E+00  0.00000000000E+00  0.14852800152E+03  0.17264957469E+03  0.88018795748E+02 0.  0.
    9000005    2    3    3    0    0 -0.24713306509E+02  0.23412532247E+02  0.12756429827E+03  0.13266994189E+03  0.13029547328E+02 0.  0.
         22    1    3    3    0    0  0.24713306509E+02 -0.23412532247E+02  0.20963703255E+02  0.39979632803E+02  0.00000000000E+00 0. -1.
         22    1    4    4    0    0 -0.13962889758E+02  0.45870753011E+01  0.47416194576E+02  0.49641706843E+02  0.00000000000E+00 0.  1.
         22    1    4    4    0    0 -0.10750416751E+02  0.18825456946E+02  0.80148103693E+02  0.83028235048E+02  0.00000000000E+00 0.  1.
<mgrwt>
<rscale>  0 0.88018796E+02</rscale>
<asrwt>0</asrwt>
<pdfrwt beam="2">  1        3 0.18555056E-02 0.88018796E+02</pdfrwt>
<pdfrwt beam="1">  1       -3 0.24705968E-01 0.88018796E+02</pdfrwt>
<totfact> 0.32962172E+04</totfact>
</mgrwt>
</event>
<event>
 7    1  0.1312339E-009  0.9069631E+02  0.7818608E-02  0.1301174E+00
          3   -1    0    0  501    0  0.00000000000E+00  0.00000000000E+00  0.11254236298E+02  0.11254689496E+02  0.10100000000E+00 0. -1.
         -3   -1    0    0    0  501 -0.00000000000E+00 -0.00000000000E+00 -0.18272305447E+03  0.18272308238E+03  0.10100000000E+00 0.  1.
         23    2    1    2    0    0  0.00000000000E+00  0.00000000000E+00 -0.17146881817E+03  0.19397777188E+03  0.90696308514E+02 0.  0.
    9000005    2    3    3    0    0 -0.23757558289E+02  0.33225854170E+02 -0.12491367400E+03  0.13204425583E+03  0.12801585230E+02 0.  0.
         22    1    3    3    0    0  0.23757558289E+02 -0.33225854170E+02 -0.46555144164E+02  0.61933516042E+02  0.00000000000E+00 0. -1.
         22    1    4    4    0    0 -0.25051604929E+02  0.30144961847E+02 -0.11847099998E+03  0.12478653561E+03  0.00000000000E+00 0.  1.
         22    1    4    4    0    0  0.12940466398E+01  0.30808923236E+01 -0.64426740235E+01  0.72577202198E+01  0.00000000000E+00 0.  1.
<mgrwt>
<rscale>  0 0.90696309E+02</rscale>
<asrwt>0</asrwt>
<pdfrwt beam="1">  1        3 0.17314581E-02 0.90696309E+02</pdfrwt>
<pdfrwt beam="2">  1       -3 0.28111274E-01 0.90696309E+02</pdfrwt>
<totfact> 0.29225467E+04</totfact>
</mgrwt>
</event>
<event>
 7    1  0.1312339E-009  0.8926771E+02  0.7818608E-02  0.1304635E+00
         -3   -1    0    0    0  501 -0.00000000000E+00  0.00000000000E+00  0.13254915222E+03  0.13254919070E+03  0.10100000000E+00 0.  1.
          3   -1    0    0  501    0  0.00000000000E+00 -0.00000000000E+00 -0.15029541860E+02  0.15029881222E+02  0.10100000000E+00 0. -1.
         23    2    1    2    0    0 -0.88817841970E-15  0.00000000000E+00  0.11751961036E+03  0.14757907192E+03  0.89267707767E+02 0.  0.
    9000005    2    3    3    0    0  0.75435251149E+01  0.37494972272E+02  0.95653775877E+02  0.10352351115E+03  0.10232047945E+02 0.  0.
         22    1    3    3    0    0 -0.75435251149E+01 -0.37494972272E+02  0.21865834479E+02  0.44055560765E+02  0.00000000000E+00 0.  1.
         22    1    4    4    0    0  0.66621222175E+01  0.10457243992E+02  0.34230584023E+02  0.36407014529E+02  0.00000000000E+00 0.  1.
         22    1    4    4    0    0  0.88140289745E+00  0.27037728280E+02  0.61423191855E+02  0.67116496625E+02  0.00000000000E+00 0.  1.
<mgrwt>
<rscale>  0 0.89267708E+02</rscale>
<asrwt>0</asrwt>
<pdfrwt beam="2">  1        3 0.23122662E-02 0.89267708E+02</pdfrwt>
<pdfrwt beam="1">  1       -3 0.20392207E-01 0.89267708E+02</pdfrwt>
<totfact> 0.33307612E+04</totfact>
</mgrwt>
</event>
<event>
 7    1  0.1312339E-009  0.9271497E+02  0.7818608E-02  0.1296407E+00
          3   -1    0    0  501    0  0.00000000000E+00  0.00000000000E+00  0.44633814779E+02  0.44633929053E+02  0.10100000000E+00 0. -1.
         -3   -1    0    0    0  501 -0.00000000000E+00 -0.00000000000E+00 -0.48147495523E+02  0.48147601458E+02  0.10100000000E+00 0.  1.
         23    2    1    2    0    0  0.22204460493E-15  0.00000000000E+00 -0.35136807441E+01  0.92781530511E+02  0.92714974258E+02 0.  0.
    9000005    2    3    3    0    0 -0.83724004508E+00 -0.42742283904E+02  0.14751099265E+02  0.46292757749E+02  0.98904340777E+01 0.  0.
         22    1    3    3    0    0  0.83724004508E+00  0.42742283904E+02 -0.18264780009E+02  0.46488772763E+02  0.00000000000E+00 0.  1.
         22    1    4    4    0    0 -0.27460711625E+01 -0.34393135035E+02  0.80785482785E+01  0.35435738833E+02  0.00000000000E+00 0. -1.
         22    1    4    4    0    0  0.19088311174E+01 -0.83491488692E+01  0.66725509861E+01  0.10857018916E+02  0.00000000000E+00 0. -1.
<mgrwt>
<rscale>  0 0.92714974E+02</rscale>
<asrwt>0</asrwt>
<pdfrwt beam="1">  1        3 0.68667576E-02 0.92714974E+02</pdfrwt>
<pdfrwt beam="2">  1       -3 0.74073240E-02 0.92714974E+02</pdfrwt>
<totfact> 0.33642612E+04</totfact>
</mgrwt>
</event>
<event>
 7    1  0.1312339E-009  0.8605934E+02  0.7818608E-02  0.1312685E+00
          3   -1    0    0  501    0  0.00000000000E+00  0.00000000000E+00  0.16360023287E+02  0.16360335050E+02  0.10100000000E+00 0. -1.
         -3   -1    0    0    0  501 -0.00000000000E+00 -0.00000000000E+00 -0.11317399651E+03  0.11317404158E+03  0.10100000000E+00 0.  1.
         23    2    1    2    0    0  0.00000000000E+00  0.00000000000E+00 -0.96813973228E+02  0.12953437663E+03  0.86059336027E+02 0.  0.
    9000005    2    3    3    0    0 -0.23776107986E+02  0.42494806202E+01 -0.10180176038E+03  0.10487186627E+03  0.71518195670E+01 0.  0.
         22    1    3    3    0    0  0.23776107986E+02 -0.42494806202E+01  0.49877871509E+01  0.24662510358E+02  0.00000000000E+00 0. -1.
         22    1    4    4    0    0 -0.18321438805E+02  0.80422675599E-01 -0.74694448948E+02  0.76908662005E+02  0.00000000000E+00 0. -1.
         22    1    4    4    0    0 -0.54546691809E+01  0.41690579446E+01 -0.27107311430E+02  0.27963204269E+02  0.00000000000E+00 0. -1.
<mgrwt>
<rscale>  0 0.86059336E+02</rscale>
<asrwt>0</asrwt>
<pdfrwt beam="1">  1        3 0.25169542E-02 0.86059336E+02</pdfrwt>
<pdfrwt beam="2">  1       -3 0.17411411E-01 0.86059336E+02</pdfrwt>
<totfact> 0.38111730E+04</totfact>
</mgrwt>
</event>
<event>
 7    1  0.1312339E-009  0.9072052E+02  0.7818608E-02  0.1301116E+00
         -3   -1    0    0    0  501 -0.00000000000E+00  0.00000000000E+00  0.89676186900E+02  0.89676243777E+02  0.10100000000E+00 0. -1.
          3   -1    0    0  501    0  0.00000000000E+00 -0.00000000000E+00 -0.22944080805E+02  0.22944303105E+02  0.10100000000E+00 0.  1.
         23    2    1    2    0    0  0.00000000000E+00  0.00000000000E+00  0.66732106095E+02  0.11262054688E+03  0.90720524669E+02 0.  0.
    9000005    2    3    3    0    0  0.33142603390E+02  0.26086138458E+02  0.17499021493E+02  0.47791422266E+02  0.14102677400E+02 0.  0.
         22    1    3    3    0    0 -0.33142603390E+02 -0.26086138458E+02  0.49233084602E+02  0.64829124616E+02  0.00000000000E+00 0. -1.
         22    1    4    4    0    0  0.26787440602E+02  0.19124038635E+02  0.19356906475E+02  0.38183578355E+02  0.00000000000E+00 0. -1.
         22    1    4    4    0    0  0.63551627877E+01  0.69620998233E+01 -0.18578849817E+01  0.96078439107E+01  0.00000000000E+00 0. -1.
<mgrwt>
<rscale>  0 0.90720525E+02</rscale>
<asrwt>0</asrwt>
<pdfrwt beam="2">  1        3 0.35298800E-02 0.90720525E+02</pdfrwt>
<pdfrwt beam="1">  1       -3 0.13796358E-01 0.90720525E+02</pdfrwt>
<totfact> 0.34223577E+04</totfact>
</mgrwt>
</event>
<event>
 6    1  0.1312339E-009  0.1947993E+03  0.7818608E-02  0.1154203E+00
         -3   -1    0    0    0  501 -0.00000000000E+00  0.00000000000E+00  0.12826166691E+03  0.12826170668E+03  0.10100000000E+00 0.  1.
          3   -1    0    0  501    0  0.00000000000E+00 -0.00000000000E+00 -0.73963489718E+02  0.73963558677E+02  0.10100000000E+00 0. -1.
    9000005    2    1    2    0    0  0.33018071203E+02  0.34251251383E+02 -0.61038019353E+02  0.77462372310E+02  0.33820215899E+01 0.  0.
         22    1    1    2    0    0 -0.33018071203E+02 -0.34251251383E+02  0.11533619654E+03  0.12476289304E+03  0.00000000000E+00 0.  1.
         22    1    3    3    0    0  0.26869235295E+02  0.25985442559E+02 -0.47081915633E+02  0.60115770061E+02  0.00000000000E+00 0. -1.
         22    1    3    3    0    0  0.61488359081E+01  0.82658088237E+01 -0.13956103720E+02  0.17346602249E+02  0.00000000000E+00 0. -1.
<mgrwt>
<rscale>  0 0.19479930E+03</rscale>
<asrwt>0</asrwt>
<pdfrwt beam="2">  1        3 0.11379007E-01 0.19479930E+03</pdfrwt>
<pdfrwt beam="1">  1       -3 0.19732572E-01 0.19479930E+03</pdfrwt>
<totfact> 0.33201363E+03</totfact>
</mgrwt>
</event>
<event>
 7    1  0.1312339E-009  0.8931192E+02  0.7818608E-02  0.1304527E+00
         -3   -1    0    0    0  501 -0.00000000000E+00  0.00000000000E+00  0.69472894675E+01  0.69480235999E+01  0.10100000000E+00 0.  1.
          3   -1    0    0  501    0  0.00000000000E+00 -0.00000000000E+00 -0.28702478546E+03  0.28702480323E+03  0.10100000000E+00 0. -1.
         23    2    1    2    0    0  0.00000000000E+00  0.00000000000E+00 -0.28007749600E+03  0.29397282683E+03  0.89311920555E+02 0.  0.
    9000005    2    3    3    0    0  0.23981605323E+02 -0.12550242034E+02 -0.25691698830E+03  0.25834930812E+03  0.23238239848E+01 0.  0.
         22    1    3    3    0    0 -0.23981605323E+02  0.12550242034E+02 -0.23160507692E+02  0.35623518714E+02  0.00000000000E+00 0.  1.
         22    1    4    4    0    0  0.12016713075E+02 -0.51059500283E+01 -0.11881230446E+03  0.11952755252E+03  0.00000000000E+00 0.  1.
         22    1    4    4    0    0  0.11964892249E+02 -0.74442920058E+01 -0.13810468384E+03  0.13882175560E+03  0.00000000000E+00 0.  1.
<mgrwt>
<rscale>  0 0.89311921E+02</rscale>
<asrwt>0</asrwt>
<pdfrwt beam="2">  1        3 0.44157708E-01 0.89311921E+02</pdfrwt>
<pdfrwt beam="1">  1       -3 0.10688718E-02 0.89311921E+02</pdfrwt>
<totfact> 0.25647207E+04</totfact>
</mgrwt>
</event>
<event>
 7    1  0.1312339E-009  0.9262641E+02  0.7818608E-02  0.1296613E+00
          3   -1    0    0  501    0  0.00000000000E+00  0.00000000000E+00  0.24724622569E+02  0.24724828860E+02  0.10100000000E+00 0. -1.
         -3   -1    0    0    0  501 -0.00000000000E+00 -0.00000000000E+00 -0.86751508956E+02  0.86751567750E+02  0.10100000000E+00 0.  1.
         23    2    1    2    0    0  0.00000000000E+00  0.00000000000E+00 -0.62026886387E+02  0.11147639661E+03  0.92626412898E+02 0.  0.
    9000005    2    3    3    0    0 -0.18631053293E+02 -0.48792081890E+01 -0.81110497929E+02  0.84363538980E+02  0.12937195038E+02 0.  0.
         22    1    3    3    0    0  0.18631053293E+02  0.48792081890E+01  0.19083611542E+02  0.27112857630E+02  0.00000000000E+00 0. -1.
         22    1    4    4    0    0 -0.11206147391E+02 -0.70354948606E+01 -0.31682400784E+02  0.34334391602E+02  0.00000000000E+00 0.  1.
         22    1    4    4    0    0 -0.74249059028E+01  0.21562866716E+01 -0.49428097146E+02  0.50029147377E+02  0.00000000000E+00 0.  1.
<mgrwt>
<rscale>  0 0.92626413E+02</rscale>
<asrwt>0</asrwt>
<pdfrwt beam="1">  1        3 0.38038085E-02 0.92626413E+02</pdfrwt>
<pdfrwt beam="2">  1       -3 0.13346406E-01 0.92626413E+02</pdfrwt>
<totfact> 0.32417731E+04</totfact>
</mgrwt>
</event>
<event>
 7    1  0.1312339E-009  0.9054422E+02  0.7818608E-02  0.1301539E+00
          3   -1    0    0  501    0  0.00000000000E+00  0.00000000000E+00  0.12099983241E+04  0.12099983283E+04  0.10100000000E+00 0. -1.
         -3   -1    0    0    0  501 -0.00000000000E+00 -0.00000000000E+00 -0.16923470019E+01  0.16953581849E+01  0.10100000000E+00 0.  1.
         23    2    1    2    0    0  0.00000000000E+00  0.35527136788E-14  0.12083059771E+04  0.12116936865E+04  0.90544219106E+02 0.  0.
    9000005    2    3    3    0    0 -0.49285707787E+01  0.23502422939E+02  0.11161883586E+04  0.11164975189E+04  0.10658474082E+02 0.  0.
         22    1    3    3    0    0  0.49285707787E+01 -0.23502422939E+02  0.92117618463E+02  0.95196167597E+02  0.00000000000E+00 0.  1.
         22    1    4    4    0    0 -0.75797743201E+01  0.15583320934E+02  0.85531141450E+03  0.85548694242E+03  0.00000000000E+00 0.  1.
         22    1    4    4    0    0  0.26512035415E+01  0.79191020055E+01  0.26087694413E+03  0.26101057649E+03  0.00000000000E+00 0.  1.
<mgrwt>
<rscale>  0 0.90544219E+02</rscale>
<asrwt>0</asrwt>
<pdfrwt beam="1">  1        3 0.18615420E+00 0.90544219E+02</pdfrwt>
<pdfrwt beam="2">  1       -3 0.26059249E-03 0.90544219E+02</pdfrwt>
<totfact> 0.82511435E+03</totfact>
</mgrwt>
</event>
<event>
 7    1  0.1312339E-009  0.9087343E+02  0.7818608E-02  0.1300750E+00
          3   -1    0    0  501    0  0.00000000000E+00  0.00000000000E+00  0.53354582527E+01  0.53364141299E+01  0.10100000000E+00 0. -1.
         -3   -1    0    0    0  501 -0.00000000000E+00 -0.00000000000E+00 -0.38690304270E+03  0.38690305588E+03  0.10100000000E+00 0.  1.
         23    2    1    2    0    0  0.00000000000E+00  0.00000000000E+00 -0.38156758445E+03  0.39223947001E+03  0.90873430303E+02 0.  0.
    9000005    2    3    3    0    0  0.26401014886E+02  0.60420140935E+00 -0.34923552176E+03  0.35049332140E+03  0.13518137498E+02 0.  0.
         22    1    3    3    0    0 -0.26401014886E+02 -0.60420140935E+00 -0.32332062692E+02  0.41746148616E+02  0.00000000000E+00 0. -1.
         22    1    4    4    0    0  0.23392696580E+02  0.33704513993E+01 -0.32908211577E+03  0.32992971542E+03  0.00000000000E+00 0.  1.
         22    1    4    4    0    0  0.30083183060E+01 -0.27662499900E+01 -0.20153405983E+02  0.20563605976E+02  0.00000000000E+00 0.  1.
<mgrwt>
<rscale>  0 0.90873430E+02</rscale>
<asrwt>0</asrwt>
<pdfrwt beam="1">  1        3 0.82091458E-03 0.90873430E+02</pdfrwt>
<pdfrwt beam="2">  1       -3 0.59523598E-01 0.90873430E+02</pdfrwt>
<totfact> 0.21023673E+04</totfact>
</mgrwt>
</event>
<event>
 7    1  0.1312339E-009  0.8938549E+02  0.7818608E-02  0.1304347E+00
          3   -1    0    0  501    0  0.00000000000E+00  0.00000000000E+00  0.74467464380E+01  0.74474313365E+01  0.10100000000E+00 0. -1.
         -3   -1    0    0    0  501 -0.00000000000E+00 -0.00000000000E+00 -0.26821707644E+03  0.26821709545E+03  0.10100000000E+00 0.  1.
         23    2    1    2    0    0  0.00000000000E+00  0.00000000000E+00 -0.26077033000E+03  0.27566452679E+03  0.89385492796E+02 0.  0.
    9000005    2    3    3    0    0  0.29055862787E+02  0.30972879570E+02 -0.97960368951E+02  0.10740684985E+03  0.11680542773E+02 0.  0.
         22    1    3    3    0    0 -0.29055862787E+02 -0.30972879570E+02 -0.16280996105E+03  0.16825767693E+03  0.00000000000E+00 0.  1.
         22    1    4    4    0    0  0.81060429262E+01  0.15255148071E+02 -0.47702044675E+02  0.50733741639E+02  0.00000000000E+00 0. -1.
         22    1    4    4    0    0  0.20949819861E+02  0.15717731499E+02 -0.50258324276E+02  0.56673108215E+02  0.00000000000E+00 0. -1.
<mgrwt>
<rscale>  0 0.89385493E+02</rscale>
<asrwt>0</asrwt>
<pdfrwt beam="1">  1        3 0.11457077E-02 0.89385493E+02</pdfrwt>
<pdfrwt beam="2">  1       -3 0.41264212E-01 0.89385493E+02</pdfrwt>
<totfact> 0.26363803E+04</totfact>
</mgrwt>
</event>
<event>
 7    1  0.1312339E-009  0.9284749E+02  0.7818608E-02  0.1296099E+00
          3   -1    0    0  501    0  0.00000000000E+00  0.00000000000E+00  0.36873663519E+03  0.36873664902E+03  0.10100000000E+00 0. -1.
         -3   -1    0    0    0  501 -0.00000000000E+00 -0.00000000000E+00 -0.58442746830E+01  0.58451473523E+01  0.10100000000E+00 0.  1.
         23    2    1    2    0    0  0.00000000000E+00  0.00000000000E+00  0.36289236051E+03  0.37458179638E+03  0.92847492486E+02 0.  0.
    9000005    2    3    3    0    0 -0.27077425415E+02 -0.24396554030E+02  0.29367493981E+03  0.29635500977E+03  0.15904173146E+02 0.  0.
         22    1    3    3    0    0  0.27077425415E+02  0.24396554030E+02  0.69217420696E+02  0.78226786611E+02  0.00000000000E+00 0.  1.
         22    1    4    4    0    0 -0.15698013369E+02 -0.49090351895E+01  0.96340365875E+02  0.97734294632E+02  0.00000000000E+00 0. -1.
         22    1    4    4    0    0 -0.11379412046E+02 -0.19487518840E+02  0.19733457394E+03  0.19862071513E+03  0.00000000000E+00 0. -1.
<mgrwt>
<rscale>  0 0.92847492E+02</rscale>
<asrwt>0</asrwt>
<pdfrwt beam="1">  1        3 0.56728789E-01 0.92847492E+02</pdfrwt>
<pdfrwt beam="2">  1       -3 0.89918725E-03 0.92847492E+02</pdfrwt>
<totfact> 0.20387752E+04</totfact>
</mgrwt>
</event>
<event>
 7    1  0.1312339E-009  0.9509937E+02  0.7818608E-02  0.1290952E+00
         -3   -1    0    0    0  501 -0.00000000000E+00  0.00000000000E+00  0.14145279404E+03  0.14145283010E+03  0.10100000000E+00 0.  1.
          3   -1    0    0  501    0  0.00000000000E+00 -0.00000000000E+00 -0.15983739546E+02  0.15984058648E+02  0.10100000000E+00 0. -1.
         23    2    1    2    0    0  0.00000000000E+00 -0.44408920985E-15  0.12546905449E+03  0.15743688875E+03  0.95099370673E+02 0.  0.
    9000005    2    3    3    0    0  0.46463984671E+02 -0.35271550508E+01  0.71053766548E+02  0.85796353736E+02  0.11875768586E+02 0.  0.
         22    1    3    3    0    0 -0.46463984671E+02  0.35271550508E+01  0.54415287945E+02  0.71640535009E+02  0.00000000000E+00 0.  1.
         22    1    4    4    0    0  0.72241110627E+00 -0.20069784606E+01  0.18259081763E+01  0.28078071543E+01  0.00000000000E+00 0.  1.
         22    1    4    4    0    0  0.45741573564E+02 -0.15201765902E+01  0.69227858371E+02  0.82988546581E+02  0.00000000000E+00 0.  1.
<mgrwt>
<rscale>  0 0.95099371E+02</rscale>
<asrwt>0</asrwt>
<pdfrwt beam="2">  1        3 0.24590642E-02 0.95099371E+02</pdfrwt>
<pdfrwt beam="1">  1       -3 0.21761995E-01 0.95099371E+02</pdfrwt>
<totfact> 0.27521990E+04</totfact>
</mgrwt>
</event>
<event>
 7    1  0.1312339E-009  0.8640972E+02  0.7818608E-02  0.1311787E+00
          3   -1    0    0  501    0  0.00000000000E+00  0.00000000000E+00  0.32931538825E+02  0.32931693706E+02  0.10100000000E+00 0. -1.
         -3   -1    0    0    0  501 -0.00000000000E+00 -0.00000000000E+00 -0.56682714451E+02  0.56682804435E+02  0.10100000000E+00 0.  1.
         23    2    1    2    0    0  0.00000000000E+00  0.00000000000E+00 -0.23751175627E+02  0.89614498141E+02  0.86409721290E+02 0.  0.
    9000005    2    3    3    0    0 -0.39102450712E+02  0.89991988092E+01 -0.27749759296E+02  0.49291106639E+02  0.70410810093E+01 0.  0.
         22    1    3    3    0    0  0.39102450712E+02 -0.89991988092E+01  0.39985836695E+01  0.40323391502E+02  0.00000000000E+00 0. -1.
         22    1    4    4    0    0 -0.26661454715E+02  0.84720440645E+01 -0.21929266484E+02  0.35545765243E+02  0.00000000000E+00 0. -1.
         22    1    4    4    0    0 -0.12440995997E+02  0.52715474469E+00 -0.58204928122E+01  0.13745341396E+02  0.00000000000E+00 0. -1.
<mgrwt>
<rscale>  0 0.86409721E+02</rscale>
<asrwt>0</asrwt>
<pdfrwt beam="1">  1        3 0.50664094E-02 0.86409721E+02</pdfrwt>
<pdfrwt beam="2">  1       -3 0.87204364E-02 0.86409721E+02</pdfrwt>
<totfact> 0.41020539E+04</totfact>
</mgrwt>
</event>
<event>
 7    1  0.1312339E-009  0.9210899E+02  0.7818608E-02  0.1297823E+00
          3   -1    0    0  501    0  0.00000000000E+00  0.00000000000E+00  0.20422943508E+02  0.20423193250E+02  0.10100000000E+00 0. -1.
         -3   -1    0    0    0  501 -0.00000000000E+00 -0.00000000000E+00 -0.10385369015E+03  0.10385373926E+03  0.10100000000E+00 0.  1.
         23    2    1    2    0    0  0.00000000000E+00  0.00000000000E+00 -0.83430746640E+02  0.12427693251E+03  0.92108992337E+02 0.  0.
    9000005    2    3    3    0    0  0.85579341354E+01 -0.27279754081E+02 -0.90174281898E+02  0.94901798687E+02  0.75846594413E+01 0.  0.
         22    1    3    3    0    0 -0.85579341354E+01  0.27279754081E+02  0.67435352574E+01  0.29375133824E+02  0.00000000000E+00 0. -1.
         22    1    4    4    0    0  0.52106773067E+00 -0.40426227942E+01 -0.63484846612E+01  0.75443732761E+01  0.00000000000E+00 0.  1.
         22    1    4    4    0    0  0.80368664047E+01 -0.23237131287E+02 -0.83825797237E+02  0.87357425411E+02  0.00000000000E+00 0.  1.
<mgrwt>
<rscale>  0 0.92108992E+02</rscale>
<asrwt>0</asrwt>
<pdfrwt beam="1">  1        3 0.31420143E-02 0.92108992E+02</pdfrwt>
<pdfrwt beam="2">  1       -3 0.15977514E-01 0.92108992E+02</pdfrwt>
<totfact> 0.32058362E+04</totfact>
</mgrwt>
</event>
<event>
 7    1  0.1312339E-009  0.8792407E+02  0.7818608E-02  0.1307958E+00
         -3   -1    0    0    0  501 -0.00000000000E+00  0.00000000000E+00  0.14990042895E+03  0.14990046297E+03  0.10100000000E+00 0.  1.
          3   -1    0    0  501    0  0.00000000000E+00 -0.00000000000E+00 -0.12892727325E+02  0.12893122930E+02  0.10100000000E+00 0. -1.
         23    2    1    2    0    0  0.71054273576E-14  0.00000000000E+00  0.13700770162E+03  0.16279358590E+03  0.87924065576E+02 0.  0.
    9000005    2    3    3    0    0  0.43018036955E+02 -0.14380630889E+01  0.79195082930E+02  0.90717803501E+02  0.10258615054E+02 0.  0.
         22    1    3    3    0    0 -0.43018036955E+02  0.14380630889E+01  0.57812618690E+02  0.72075782400E+02  0.00000000000E+00 0.  1.
         22    1    4    4    0    0  0.45860064202E+01  0.20964197745E+01  0.50891344183E+01  0.71641970858E+01  0.00000000000E+00 0. -1.
         22    1    4    4    0    0  0.38432030535E+02 -0.35344828634E+01  0.74105948512E+02  0.83553606415E+02  0.00000000000E+00 0. -1.
<mgrwt>
<rscale>  0 0.87924066E+02</rscale>
<asrwt>0</asrwt>
<pdfrwt beam="2">  1        3 0.19835297E-02 0.87924066E+02</pdfrwt>
<pdfrwt beam="1">  1       -3 0.23061636E-01 0.87924066E+02</pdfrwt>
<totfact> 0.33685296E+04</totfact>
</mgrwt>
</event>
<event>
 7    1  0.1312339E-009  0.9193584E+02  0.7818608E-02  0.1298230E+00
         -3   -1    0    0    0  501 -0.00000000000E+00  0.00000000000E+00  0.67562751781E+02  0.67562827274E+02  0.10100000000E+00 0.  1.
          3   -1    0    0  501    0  0.00000000000E+00 -0.00000000000E+00 -0.31275189956E+02  0.31275353040E+02  0.10100000000E+00 0. -1.
         23    2    1    2    0    0  0.00000000000E+00 -0.22204460493E-15  0.36287561824E+02  0.98838180314E+02  0.91935840370E+02 0.  0.
    9000005    2    3    3    0    0  0.37646102551E+02 -0.10118605530E+01 -0.71802257681E+01  0.41325560332E+02  0.15427034568E+02 0.  0.
         22    1    3    3    0    0 -0.37646102551E+02  0.10118605530E+01  0.43467787592E+02  0.57512619982E+02  0.00000000000E+00 0.  1.
         22    1    4    4    0    0  0.28889155435E+02  0.54043474330E+01 -0.24767709776E+01  0.29494485373E+02  0.00000000000E+00 0.  1.
         22    1    4    4    0    0  0.87569471156E+01 -0.64162079861E+01 -0.47034547904E+01  0.11831074958E+02  0.00000000000E+00 0.  1.
<mgrwt>
<rscale>  0 0.91935840E+02</rscale>
<asrwt>0</asrwt>
<pdfrwt beam="2">  1        3 0.48115861E-02 0.91935840E+02</pdfrwt>
<pdfrwt beam="1">  1       -3 0.10394288E-01 0.91935840E+02</pdfrwt>
<totfact> 0.33981300E+04</totfact>
</mgrwt>
</event>
<event>
 7    1  0.1312339E-009  0.8671034E+02  0.7818608E-02  0.1311019E+00
         -3   -1    0    0    0  501 -0.00000000000E+00  0.00000000000E+00  0.66867638048E+02  0.66867714325E+02  0.10100000000E+00 0.  1.
          3   -1    0    0  501    0  0.00000000000E+00 -0.00000000000E+00 -0.28110137854E+02  0.28110319301E+02  0.10100000000E+00 0. -1.
         23    2    1    2    0    0  0.00000000000E+00  0.00000000000E+00  0.38757500193E+02  0.94978033626E+02  0.86710339927E+02 0.  0.
    9000005    2    3    3    0    0  0.34879749532E+02  0.20444114900E+02  0.76229645994E+01  0.43949433135E+02  0.15455883090E+02 0.  0.
         22    1    3    3    0    0 -0.34879749532E+02 -0.20444114900E+02  0.31134535594E+02  0.51028600492E+02  0.00000000000E+00 0.  1.
         22    1    4    4    0    0  0.20160906029E-01  0.52530136827E+01  0.11316599888E+01  0.53735661849E+01  0.00000000000E+00 0. -1.
         22    1    4    4    0    0  0.34859588626E+02  0.15191101217E+02  0.64913046106E+01  0.38575866950E+02  0.00000000000E+00 0. -1.
<mgrwt>
<rscale>  0 0.86710340E+02</rscale>
<asrwt>0</asrwt>
<pdfrwt beam="2">  1        3 0.43246564E-02 0.86710340E+02</pdfrwt>
<pdfrwt beam="1">  1       -3 0.10287349E-01 0.86710340E+02</pdfrwt>
<totfact> 0.40162325E+04</totfact>
</mgrwt>
</event>
<event>
 7    1  0.1312339E-009  0.8826062E+02  0.7818608E-02  0.1307119E+00
         -3   -1    0    0    0  501 -0.00000000000E+00  0.00000000000E+00  0.72002968427E+02  0.72003039264E+02  0.10100000000E+00 0.  1.
          3   -1    0    0  501    0  0.00000000000E+00 -0.00000000000E+00 -0.27047100343E+02  0.27047288921E+02  0.10100000000E+00 0. -1.
         23    2    1    2    0    0  0.00000000000E+00  0.35527136788E-14  0.44955868083E+02  0.99050328185E+02  0.88260622242E+02 0.  0.
    9000005    2    3    3    0    0 -0.19217000915E+02  0.28631801882E+02 -0.53857331078E+01  0.38031068819E+02  0.15109032770E+02 0.  0.
         22    1    3    3    0    0  0.19217000915E+02 -0.28631801882E+02  0.50341601191E+02  0.61019259367E+02  0.00000000000E+00 0.  1.
         22    1    4    4    0    0 -0.13966907665E+02  0.10048889731E+02 -0.71660647195E+01  0.18638862039E+02  0.00000000000E+00 0. -1.
         22    1    4    4    0    0 -0.52500932498E+01  0.18582912151E+02  0.17803316117E+01  0.19392206780E+02  0.00000000000E+00 0. -1.
<mgrwt>
<rscale>  0 0.88260622E+02</rscale>
<asrwt>0</asrwt>
<pdfrwt beam="2">  1        3 0.41611123E-02 0.88260622E+02</pdfrwt>
<pdfrwt beam="1">  1       -3 0.11077400E-01 0.88260622E+02</pdfrwt>
<totfact> 0.37946085E+04</totfact>
</mgrwt>
</event>
<event>
 7    1  0.1312339E-009  0.8390187E+02  0.7818608E-02  0.1318329E+00
         -3   -1    0    0    0  501 -0.00000000000E+00  0.00000000000E+00  0.54394110180E+02  0.54394203949E+02  0.10100000000E+00 0.  1.
          3   -1    0    0  501    0  0.00000000000E+00 -0.00000000000E+00 -0.32354058644E+02  0.32354216290E+02  0.10100000000E+00 0. -1.
         23    2    1    2    0    0  0.00000000000E+00  0.00000000000E+00  0.22040051536E+02  0.86748420240E+02  0.83901874486E+02 0.  0.
    9000005    2    3    3    0    0 -0.19542947496E+02  0.19385318784E+02  0.42825632009E+02  0.52255555227E+02  0.11785198937E+02 0.  0.
         22    1    3    3    0    0  0.19542947496E+02 -0.19385318784E+02 -0.20785580473E+02  0.34492865012E+02  0.00000000000E+00 0. -1.
         22    1    4    4    0    0 -0.13533229592E+02  0.10379271464E+02  0.16242060573E+02  0.23551690193E+02  0.00000000000E+00 0. -1.
         22    1    4    4    0    0 -0.60097179039E+01  0.90060473203E+01  0.26583571435E+02  0.28703865034E+02  0.00000000000E+00 0. -1.
<mgrwt>
<rscale>  0 0.83901874E+02</rscale>
<asrwt>0</asrwt>
<pdfrwt beam="2">  1        3 0.49775669E-02 0.83901874E+02</pdfrwt>
<pdfrwt beam="1">  1       -3 0.83683438E-02 0.83901874E+02</pdfrwt>
<totfact> 0.44699025E+04</totfact>
</mgrwt>
</event>
<event>
 7    1  0.1312339E-009  0.9018653E+02  0.7818608E-02  0.1302401E+00
          3   -1    0    0  501    0  0.00000000000E+00  0.00000000000E+00  0.41157145719E+03  0.41157146958E+03  0.10100000000E+00 0. -1.
         -3   -1    0    0    0  501 -0.00000000000E+00 -0.00000000000E+00 -0.49400534909E+01  0.49410858617E+01  0.10100000000E+00 0.  1.
         23    2    1    2    0    0  0.00000000000E+00  0.35527136788E-14  0.40663140370E+03  0.41651255544E+03  0.90186530971E+02 0.  0.
    9000005    2    3    3    0    0  0.18969262919E+02 -0.25099016241E+02  0.35219844954E+03  0.35364173510E+03  0.53791631267E+01 0.  0.
         22    1    3    3    0    0 -0.18969262919E+02  0.25099016241E+02  0.54432954158E+02  0.62870820341E+02  0.00000000000E+00 0.  1.
         22    1    4    4    0    0  0.13497148720E+02 -0.20059020920E+02  0.24695271755E+03  0.24813339567E+03  0.00000000000E+00 0. -1.
         22    1    4    4    0    0  0.54721141998E+01 -0.50399953206E+01  0.10524573199E+03  0.10550833943E+03  0.00000000000E+00 0. -1.
<mgrwt>
<rscale>  0 0.90186531E+02</rscale>
<asrwt>0</asrwt>
<pdfrwt beam="1">  1        3 0.63318795E-01 0.90186531E+02</pdfrwt>
<pdfrwt beam="2">  1       -3 0.76008825E-03 0.90186531E+02</pdfrwt>
<totfact> 0.20721041E+04</totfact>
</mgrwt>
</event>
<event>
 7    1  0.1312339E-009  0.8861075E+02  0.7818608E-02  0.1306251E+00
          3   -1    0    0  501    0  0.00000000000E+00  0.00000000000E+00  0.18881972430E+03  0.18881975131E+03  0.10100000000E+00 0. -1.
         -3   -1    0    0    0  501 -0.00000000000E+00 -0.00000000000E+00 -0.10395707041E+02  0.10396197665E+02  0.10100000000E+00 0.  1.
         23    2    1    2    0    0  0.00000000000E+00  0.00000000000E+00  0.17842401726E+03  0.19921594898E+03  0.88610746484E+02 0.  0.
    9000005    2    3    3    0    0 -0.17060265380E+02  0.39666064615E+02  0.10601703520E+03  0.11491161702E+03  0.10030884080E+02 0.  0.
         22    1    3    3    0    0  0.17060265380E+02 -0.39666064615E+02  0.72406982057E+02  0.84304331961E+02  0.00000000000E+00 0.  1.
         22    1    4    4    0    0 -0.14118695190E+02  0.34424961666E+02  0.80297333031E+02  0.88499023902E+02  0.00000000000E+00 0.  1.
         22    1    4    4    0    0 -0.29415701899E+01  0.52411029489E+01  0.25719702171E+02  0.26412593115E+02  0.00000000000E+00 0.  1.
<mgrwt>
<rscale>  0 0.88610746E+02</rscale>
<asrwt>0</asrwt>
<pdfrwt beam="1">  1        3 0.29049227E-01 0.88610746E+02</pdfrwt>
<pdfrwt beam="2">  1       -3 0.15993794E-02 0.88610746E+02</pdfrwt>
<totfact> 0.30816956E+04</totfact>
</mgrwt>
</event>
<event>
 7    1  0.1312339E-009  0.9401668E+02  0.7818608E-02  0.1293406E+00
          3   -1    0    0  501    0  0.00000000000E+00  0.00000000000E+00  0.92826255602E+02  0.92826310549E+02  0.10100000000E+00 0. -1.
         -3   -1    0    0    0  501 -0.00000000000E+00 -0.00000000000E+00 -0.23805423614E+02  0.23805637871E+02  0.10100000000E+00 0.  1.
         23    2    1    2    0    0 -0.44408920985E-15  0.35527136788E-14  0.69020831987E+02  0.11663194842E+03  0.94016680137E+02 0.  0.
    9000005    2    3    3    0    0  0.21692434030E+01  0.31288639009E+02 -0.58872910033E+01  0.35422888347E+02  0.15376484498E+02 0.  0.
         22    1    3    3    0    0 -0.21692434030E+01 -0.31288639009E+02  0.74908122991E+02  0.81209060073E+02  0.00000000000E+00 0. -1.
         22    1    4    4    0    0  0.68628250485E+01  0.20416916591E+02  0.12863465855E+01  0.21577848323E+02  0.00000000000E+00 0.  1.
         22    1    4    4    0    0 -0.46935816456E+01  0.10871722418E+02 -0.71736375888E+01  0.13845040024E+02  0.00000000000E+00 0.  1.
<mgrwt>
<rscale>  0 0.94016680E+02</rscale>
<asrwt>0</asrwt>
<pdfrwt beam="1">  1        3 0.14280983E-01 0.94016680E+02</pdfrwt>
<pdfrwt beam="2">  1       -3 0.36623935E-02 0.94016680E+02</pdfrwt>
<totfact> 0.30793302E+04</totfact>
</mgrwt>
</event>
<event>
 7    1  0.1312339E-009  0.9387752E+02  0.7818608E-02  0.1293724E+00
          3   -1    0    0  501    0  0.00000000000E+00  0.00000000000E+00  0.32442957929E+02  0.32443115143E+02  0.10100000000E+00 0. -1.
         -3   -1    0    0    0  501 -0.00000000000E+00 -0.00000000000E+00 -0.67911056555E+02  0.67911131661E+02  0.10100000000E+00 0.  1.
         23    2    1    2    0    0  0.00000000000E+00  0.00000000000E+00 -0.35468098626E+02  0.10035424680E+03  0.93877520374E+02 0.  0.
    9000005    2    3    3    0    0 -0.81944516241E+01 -0.28510531233E+02  0.20170279911E+02  0.37301660855E+02  0.10226156769E+02 0.  0.
         22    1    3    3    0    0  0.81944516241E+01  0.28510531233E+02 -0.55638378537E+02  0.63052585949E+02  0.00000000000E+00 0.  1.
         22    1    4    4    0    0 -0.44541291137E+01 -0.14079742924E+02  0.39820801364E+01  0.15294946524E+02  0.00000000000E+00 0.  1.
         22    1    4    4    0    0 -0.37403225104E+01 -0.14430788309E+02  0.16188199775E+02  0.22006714331E+02  0.00000000000E+00 0.  1.
<mgrwt>
<rscale>  0 0.93877520E+02</rscale>
<asrwt>0</asrwt>
<pdfrwt beam="1">  1        3 0.49912422E-02 0.93877520E+02</pdfrwt>
<pdfrwt beam="2">  1       -3 0.10447873E-01 0.93877520E+02</pdfrwt>
<totfact> 0.31991528E+04</totfact>
</mgrwt>
</event>
<event>
 7    1  0.1312339E-009  0.9305551E+02  0.7818608E-02  0.1295617E+00
          3   -1    0    0  501    0  0.00000000000E+00  0.00000000000E+00  0.79970492445E+01  0.79976870169E+01  0.10100000000E+00 0. -1.
         -3   -1    0    0    0  501 -0.00000000000E+00 -0.00000000000E+00 -0.27069242088E+03  0.27069243972E+03  0.10100000000E+00 0.  1.
         23    2    1    2    0    0  0.00000000000E+00  0.00000000000E+00 -0.26269537164E+03  0.27869012674E+03  0.93055512804E+02 0.  0.
    9000005    2    3    3    0    0  0.18813892227E+02 -0.30564843929E+02 -0.21852279847E+03  0.22177450107E+03  0.11980970293E+02 0.  0.
         22    1    3    3    0    0 -0.18813892227E+02  0.30564843929E+02 -0.44172573167E+02  0.56915625669E+02  0.00000000000E+00 0. -1.
         22    1    4    4    0    0  0.13499791760E+02 -0.29456970701E+02 -0.18859445252E+03  0.19135784547E+03  0.00000000000E+00 0.  1.
         22    1    4    4    0    0  0.53141004665E+01 -0.11078732287E+01 -0.29928345951E+02  0.30416655606E+02  0.00000000000E+00 0.  1.
<mgrwt>
<rscale>  0 0.93055513E+02</rscale>
<asrwt>0</asrwt>
<pdfrwt beam="1">  1        3 0.12303660E-02 0.93055513E+02</pdfrwt>
<pdfrwt beam="2">  1       -3 0.41645031E-01 0.93055513E+02</pdfrwt>
<totfact> 0.23544145E+04</totfact>
</mgrwt>
</event>
<event>
 7    1  0.1312339E-009  0.9099574E+02  0.7818608E-02  0.1300458E+00
         -3   -1    0    0    0  501 -0.00000000000E+00  0.00000000000E+00  0.33277328695E+02  0.33277481967E+02  0.10100000000E+00 0.  1.
          3   -1    0    0  501    0  0.00000000000E+00 -0.00000000000E+00 -0.62205856898E+02  0.62205938892E+02  0.10100000000E+00 0. -1.
         23    2    1    2    0    0  0.00000000000E+00 -0.35527136788E-14 -0.28928528203E+02  0.95483420859E+02  0.90995735696E+02 0.  0.
    9000005    2    3    3    0    0 -0.84082441614E+01 -0.16801180475E+02 -0.57283419549E+02  0.61469040099E+02  0.12003103778E+02 0.  0.
         22    1    3    3    0    0  0.84082441614E+01  0.16801180475E+02  0.28354891345E+02  0.34014380759E+02  0.00000000000E+00 0.  1.
         22    1    4    4    0    0 -0.73819860735E+01 -0.18666385545E+02 -0.53260293419E+02  0.56917365740E+02  0.00000000000E+00 0. -1.
         22    1    4    4    0    0 -0.10262580879E+01  0.18652050702E+01 -0.40231261297E+01  0.45516743593E+01  0.00000000000E+00 0. -1.
<mgrwt>
<rscale>  0 0.90995736E+02</rscale>
<asrwt>0</asrwt>
<pdfrwt beam="2">  1        3 0.95701499E-02 0.90995736E+02</pdfrwt>
<pdfrwt beam="1">  1       -3 0.51196071E-02 0.90995736E+02</pdfrwt>
<totfact> 0.35199823E+04</totfact>
</mgrwt>
</event>
<event>
 7    1  0.2054275E-009  0.9107470E+02  0.7818608E-02  0.1300270E+00
         -3   -1    0    0    0  501 -0.00000000000E+00  0.00000000000E+00  0.49154299265E+02  0.49154403030E+02  0.10100000000E+00 0.  1.
          3   -1    0    0  501    0  0.00000000000E+00 -0.00000000000E+00 -0.42186339501E+02  0.42186460405E+02  0.10100000000E+00 0. -1.
         23    2    1    2    0    0 -0.71054273576E-14  0.00000000000E+00  0.69679597646E+01  0.91340863435E+02  0.91074699394E+02 0.  0.
    9000005    2    3    3    0    0  0.42533253837E+02 -0.13297013018E+02  0.17636506778E+01  0.46474694998E+02  0.13072818147E+02 0.  0.
         22    1    3    3    0    0 -0.42533253837E+02  0.13297013018E+02  0.52043090868E+01  0.44866168437E+02  0.00000000000E+00 0. -1.
         22    1    4    4    0    0  0.37290238627E+02 -0.13481755079E+02 -0.24756555176E+01  0.39729692764E+02  0.00000000000E+00 0. -1.
         22    1    4    4    0    0  0.52430152095E+01  0.18474206140E+00  0.42393061954E+01  0.67450022339E+01  0.00000000000E+00 0. -1.
<mgrwt>
<rscale>  0 0.91074699E+02</rscale>
<asrwt>0</asrwt>
<pdfrwt beam="2">  1        3 0.64902234E-02 0.91074699E+02</pdfrwt>
<pdfrwt beam="1">  1       -3 0.75622171E-02 0.91074699E+02</pdfrwt>
<totfact> 0.35434540E+04</totfact>
</mgrwt>
</event>
<event>
 7    1  0.1312339E-009  0.9058778E+02  0.7818608E-02  0.1301435E+00
         -3   -1    0    0    0  501 -0.00000000000E+00  0.00000000000E+00  0.23908913152E+01  0.23930236692E+01  0.10100000000E+00 0. -1.
          3   -1    0    0  501    0  0.00000000000E+00 -0.00000000000E+00 -0.85767879148E+03  0.85767879743E+03  0.10100000000E+00 0.  1.
         23    2    1    2    0    0  0.00000000000E+00  0.27755575616E-15 -0.85528790017E+03  0.86007182110E+03  0.90587776633E+02 0.  0.
    9000005    2    3    3    0    0  0.36199459742E+02 -0.20312385699E+00 -0.67973235922E+03  0.68082285987E+03  0.13162226385E+02 0.  0.
         22    1    3    3    0    0 -0.36199459742E+02  0.20312385699E+00 -0.17555554095E+03  0.17924896123E+03  0.00000000000E+00 0. -1.
         22    1    4    4    0    0  0.10487689817E+02  0.55055585678E+01 -0.17154738901E+03  0.17195583587E+03  0.00000000000E+00 0. -1.
         22    1    4    4    0    0  0.25711769925E+02 -0.57086824248E+01 -0.50818497021E+03  0.50886702400E+03  0.00000000000E+00 0. -1.
<mgrwt>
<rscale>  0 0.90587777E+02</rscale>
<asrwt>0</asrwt>
<pdfrwt beam="2">  1        3 0.13195050E+00 0.90587777E+02</pdfrwt>
<pdfrwt beam="1">  1       -3 0.36799460E-03 0.90587777E+02</pdfrwt>
<totfact> 0.11816585E+04</totfact>
</mgrwt>
</event>
<event>
 7    1  0.1312339E-009  0.9088019E+02  0.7818608E-02  0.1300734E+00
         -3   -1    0    0    0  501 -0.00000000000E+00  0.00000000000E+00  0.26654602405E+03  0.26654604318E+03  0.10100000000E+00 0.  1.
          3   -1    0    0  501    0  0.00000000000E+00 -0.00000000000E+00 -0.77461637403E+01  0.77468221673E+01  0.10100000000E+00 0. -1.
         23    2    1    2    0    0  0.00000000000E+00 -0.17763568394E-14  0.25879986031E+03  0.27429286535E+03  0.90880186439E+02 0.  0.
    9000005    2    3    3    0    0  0.26238990533E+02  0.12868941444E+02  0.23290466272E+03  0.23524602763E+03  0.15556905843E+02 0.  0.
         22    1    3    3    0    0 -0.26238990533E+02 -0.12868941444E+02  0.25895197586E+02  0.39046837722E+02  0.00000000000E+00 0. -1.
         22    1    4    4    0    0  0.39153191245E+01 -0.32472633675E+01  0.53447249698E+02  0.53688759937E+02  0.00000000000E+00 0. -1.
         22    1    4    4    0    0  0.22323671409E+02  0.16116204812E+02  0.17945741302E+03  0.18155726769E+03  0.00000000000E+00 0. -1.
<mgrwt>
<rscale>  0 0.90880186E+02</rscale>
<asrwt>0</asrwt>
<pdfrwt beam="2">  1        3 0.11917697E-02 0.90880186E+02</pdfrwt>
<pdfrwt beam="1">  1       -3 0.41007131E-01 0.90880186E+02</pdfrwt>
<totfact> 0.25275475E+04</totfact>
</mgrwt>
</event>
<event>
 7    1  0.1312339E-009  0.9118719E+02  0.7818608E-02  0.1300002E+00
          3   -1    0    0  501    0  0.00000000000E+00  0.00000000000E+00  0.18089734971E+03  0.18089737791E+03  0.10100000000E+00 0. -1.
         -3   -1    0    0    0  501 -0.00000000000E+00 -0.00000000000E+00 -0.11491215234E+02  0.11491659087E+02  0.10100000000E+00 0.  1.
         23    2    1    2    0    0  0.00000000000E+00 -0.17763568394E-14  0.16940613448E+03  0.19238903699E+03  0.91187187460E+02 0.  0.
    9000005    2    3    3    0    0  0.28828385926E+02 -0.15912269910E+02  0.15083798464E+03  0.15458622814E+03  0.77799840121E+01 0.  0.
         22    1    3    3    0    0 -0.28828385926E+02  0.15912269910E+02  0.18568149833E+02  0.37802808850E+02  0.00000000000E+00 0.  1.
         22    1    4    4    0    0  0.74315329422E+01 -0.99117474742E+00  0.26427328823E+02  0.27470235128E+02  0.00000000000E+00 0. -1.
         22    1    4    4    0    0  0.21396852984E+02 -0.14921095162E+02  0.12441065582E+03  0.12711599301E+03  0.00000000000E+00 0. -1.
<mgrwt>
<rscale>  0 0.91187187E+02</rscale>
<asrwt>0</asrwt>
<pdfrwt beam="1">  1        3 0.27830395E-01 0.91187187E+02</pdfrwt>
<pdfrwt beam="2">  1       -3 0.17679158E-02 0.91187187E+02</pdfrwt>
<totfact> 0.28888033E+04</totfact>
</mgrwt>
</event>
<event>
 7    1  0.1312339E-009  0.9090696E+02  0.7818608E-02  0.1300670E+00
          3   -1    0    0  501    0  0.00000000000E+00  0.00000000000E+00  0.57290889342E+02  0.57290978370E+02  0.10100000000E+00 0. -1.
         -3   -1    0    0    0  501 -0.00000000000E+00 -0.00000000000E+00 -0.36061720274E+02  0.36061861712E+02  0.10100000000E+00 0.  1.
         23    2    1    2    0    0  0.00000000000E+00  0.00000000000E+00  0.21229169068E+02  0.93352840082E+02  0.90906958656E+02 0.  0.
    9000005    2    3    3    0    0  0.15055632441E+02  0.11219156046E+02 -0.30809356402E+02  0.38030605278E+02  0.12023683518E+02 0.  0.
         22    1    3    3    0    0 -0.15055632441E+02 -0.11219156046E+02  0.52038525471E+02  0.55322234804E+02  0.00000000000E+00 0. -1.
         22    1    4    4    0    0  0.14159340378E+02  0.12516945572E+02 -0.21657500818E+02  0.28743837393E+02  0.00000000000E+00 0.  1.
         22    1    4    4    0    0  0.89629206273E+00 -0.12977895263E+01 -0.91518555843E+01  0.92867678852E+01  0.00000000000E+00 0.  1.
<mgrwt>
<rscale>  0 0.90906959E+02</rscale>
<asrwt>0</asrwt>
<pdfrwt beam="1">  1        3 0.88140007E-02 0.90906959E+02</pdfrwt>
<pdfrwt beam="2">  1       -3 0.55479747E-02 0.90906959E+02</pdfrwt>
<totfact> 0.35457240E+04</totfact>
</mgrwt>
</event>
<event>
 7    1  0.1312339E-009  0.9251654E+02  0.7818608E-02  0.1296869E+00
         -3   -1    0    0    0  501 -0.00000000000E+00  0.00000000000E+00  0.14970323094E+02  0.14970663798E+02  0.10100000000E+00 0.  1.
          3   -1    0    0  501    0  0.00000000000E+00 -0.00000000000E+00 -0.14293598515E+03  0.14293602083E+03  0.10100000000E+00 0. -1.
         23    2    1    2    0    0  0.00000000000E+00 -0.35527136788E-14 -0.12796566206E+03  0.15790668463E+03  0.92516541148E+02 0.  0.
    9000005    2    3    3    0    0 -0.37096386588E+02  0.26426107031E+02 -0.56076444095E+02  0.72803566653E+02  0.90172448339E+01 0.  0.
         22    1    3    3    0    0  0.37096386588E+02 -0.26426107031E+02 -0.71889217961E+02  0.85103117979E+02  0.00000000000E+00 0.  1.
         22    1    4    4    0    0 -0.15212177179E+02  0.90853127738E+01 -0.15458457030E+02  0.23514190109E+02  0.00000000000E+00 0.  1.
         22    1    4    4    0    0 -0.21884209409E+02  0.17340794257E+02 -0.40617987065E+02  0.49289376545E+02  0.00000000000E+00 0.  1.
<mgrwt>
<rscale>  0 0.92516541E+02</rscale>
<asrwt>0</asrwt>
<pdfrwt beam="2">  1        3 0.21990180E-01 0.92516541E+02</pdfrwt>
<pdfrwt beam="1">  1       -3 0.23031557E-02 0.92516541E+02</pdfrwt>
<totfact> 0.29634072E+04</totfact>
</mgrwt>
</event>
<event>
 7    1  0.1312339E-009  0.9060489E+02  0.7818608E-02  0.1301393E+00
          3   -1    0    0  501    0  0.00000000000E+00  0.00000000000E+00  0.68444133152E+01  0.68451584810E+01  0.10100000000E+00 0. -1.
         -3   -1    0    0    0  501 -0.00000000000E+00 -0.00000000000E+00 -0.29983502961E+03  0.29983504662E+03  0.10100000000E+00 0.  1.
         23    2    1    2    0    0  0.00000000000E+00  0.00000000000E+00 -0.29299061630E+03  0.30668020511E+03  0.90604894816E+02 0.  0.
    9000005    2    3    3    0    0 -0.40205177282E+02  0.17900113324E+02 -0.17533408990E+03  0.18106201955E+03  0.10224554091E+02 0.  0.
         22    1    3    3    0    0  0.40205177282E+02 -0.17900113324E+02 -0.11765652640E+03  0.12561818555E+03  0.00000000000E+00 0.  1.
         22    1    4    4    0    0 -0.37512826403E+02  0.18635323582E+02 -0.16944008908E+03  0.17454062913E+03  0.00000000000E+00 0. -1.
         22    1    4    4    0    0 -0.26923508794E+01 -0.73521025880E+00 -0.58940008188E+01  0.65213904219E+01  0.00000000000E+00 0. -1.
<mgrwt>
<rscale>  0 0.90604895E+02</rscale>
<asrwt>0</asrwt>
<pdfrwt beam="1">  1        3 0.10530455E-02 0.90604895E+02</pdfrwt>
<pdfrwt beam="2">  1       -3 0.46128514E-01 0.90604895E+02</pdfrwt>
<totfact> 0.24171141E+04</totfact>
</mgrwt>
</event>
<event>
 7    1  0.1312339E-009  0.8491494E+02  0.7818608E-02  0.1315655E+00
         -3   -1    0    0    0  501 -0.00000000000E+00  0.00000000000E+00  0.26946747603E+02  0.26946936883E+02  0.10100000000E+00 0.  1.
          3   -1    0    0  501    0  0.00000000000E+00 -0.00000000000E+00 -0.66895795957E+02  0.66895872202E+02  0.10100000000E+00 0. -1.
         23    2    1    2    0    0 -0.71054273576E-14  0.00000000000E+00 -0.39949048354E+02  0.93842809085E+02  0.84914935981E+02 0.  0.
    9000005    2    3    3    0    0  0.41437747008E+02 -0.86695280590E+01 -0.18105095359E+02  0.46204527459E+02  0.38491928884E+01 0.  0.
         22    1    3    3    0    0 -0.41437747008E+02  0.86695280590E+01 -0.21843952995E+02  0.47638281626E+02  0.00000000000E+00 0. -1.
         22    1    4    4    0    0  0.19810316027E+01 -0.19174556649E+00 -0.17811370716E+01  0.26708990698E+01  0.00000000000E+00 0.  1.
         22    1    4    4    0    0  0.39456715405E+02 -0.84777824925E+01 -0.16323958287E+02  0.43533628389E+02  0.00000000000E+00 0.  1.
<mgrwt>
<rscale>  0 0.84914936E+02</rscale>
<asrwt>0</asrwt>
<pdfrwt beam="2">  1        3 0.10291681E-01 0.84914936E+02</pdfrwt>
<pdfrwt beam="1">  1       -3 0.41456739E-02 0.84914936E+02</pdfrwt>
<totfact> 0.42600757E+04</totfact>
</mgrwt>
</event>
<event>
 7    1  0.1312339E-009  0.9885045E+02  0.7818608E-02  0.1282732E+00
          3   -1    0    0  501    0  0.00000000000E+00  0.00000000000E+00  0.41074746413E+02  0.41074870588E+02  0.10100000000E+00 0. -1.
         -3   -1    0    0    0  501 -0.00000000000E+00 -0.00000000000E+00 -0.59473090056E+02  0.59473175818E+02  0.10100000000E+00 0.  1.
         23    2    1    2    0    0  0.00000000000E+00  0.00000000000E+00 -0.18398343644E+02  0.10054804641E+03  0.98850445559E+02 0.  0.
    9000005    2    3    3    0    0  0.19579649480E+02  0.30018908094E+01 -0.54827758083E+02  0.59081478444E+02  0.96002091903E+01 0.  0.
         22    1    3    3    0    0 -0.19579649480E+02 -0.30018908094E+01  0.36429414439E+02  0.41466567962E+02  0.00000000000E+00 0. -1.
         22    1    4    4    0    0  0.43644215569E+01 -0.90949654544E+00 -0.24747858093E+02  0.25146209251E+02  0.00000000000E+00 0. -1.
         22    1    4    4    0    0  0.15215227923E+02  0.39113873548E+01 -0.30079899990E+02  0.33935269193E+02  0.00000000000E+00 0. -1.
<mgrwt>
<rscale>  0 0.98850446E+02</rscale>
<asrwt>0</asrwt>
<pdfrwt beam="1">  1        3 0.63192079E-02 0.98850446E+02</pdfrwt>
<pdfrwt beam="2">  1       -3 0.91497223E-02 0.98850446E+02</pdfrwt>
<totfact> 0.27758187E+04</totfact>
</mgrwt>
</event>
<event>
 7    1  0.1312339E-009  0.9121177E+02  0.7818608E-02  0.1299943E+00
         -3   -1    0    0    0  501 -0.00000000000E+00  0.00000000000E+00  0.40137797652E+02  0.40137924727E+02  0.10100000000E+00 0.  1.
          3   -1    0    0  501    0  0.00000000000E+00 -0.00000000000E+00 -0.51818646172E+02  0.51818744602E+02  0.10100000000E+00 0. -1.
         23    2    1    2    0    0  0.00000000000E+00 -0.17763568394E-14 -0.11680848520E+02  0.91956669329E+02  0.91211769043E+02 0.  0.
    9000005    2    3    3    0    0 -0.40803238553E+02  0.12751079877E+02  0.96923686731E+01  0.44162226894E+02  0.53727050214E+01 0.  0.
         22    1    3    3    0    0  0.40803238553E+02 -0.12751079877E+02 -0.21373217193E+02  0.47794442435E+02  0.00000000000E+00 0. -1.
         22    1    4    4    0    0 -0.60828067898E+01  0.34240933152E+01  0.21944730831E+00  0.69837748098E+01  0.00000000000E+00 0.  1.
         22    1    4    4    0    0 -0.34720431764E+02  0.93269865618E+01  0.94729213648E+01  0.37178452084E+02  0.00000000000E+00 0.  1.
<mgrwt>
<rscale>  0 0.91211769E+02</rscale>
<asrwt>0</asrwt>
<pdfrwt beam="2">  1        3 0.79721168E-02 0.91211769E+02</pdfrwt>
<pdfrwt beam="1">  1       -3 0.61750631E-02 0.91211769E+02</pdfrwt>
<totfact> 0.35242195E+04</totfact>
</mgrwt>
</event>
<event>
 6    1  0.1312339E-009  0.2432796E+03  0.7818608E-02  0.1117627E+00
         -3   -1    0    0    0  501 -0.00000000000E+00  0.00000000000E+00  0.64714480892E+02  0.64714559708E+02  0.10100000000E+00 0.  1.
          3   -1    0    0  501    0  0.00000000000E+00 -0.00000000000E+00 -0.22863864623E+03  0.22863866854E+03  0.10100000000E+00 0. -1.
    9000005    2    1    2    0    0  0.58943781134E+02  0.10617463562E+03 -0.80792973802E+02  0.14618591670E+03  0.97670385372E+01 0.  0.
         22    1    1    2    0    0 -0.58943781134E+02 -0.10617463562E+03 -0.83131191536E+02  0.14716731155E+03  0.00000000000E+00 0. -1.
         22    1    3    3    0    0  0.34275023823E+02  0.68156080995E+02 -0.46386631227E+02  0.89284647008E+02  0.00000000000E+00 0. -1.
         22    1    3    3    0    0  0.24668757311E+02  0.38018554622E+02 -0.34406342574E+02  0.56901269688E+02  0.00000000000E+00 0. -1.
<mgrwt>
<rscale>  0 0.24327964E+03</rscale>
<asrwt>0</asrwt>
<pdfrwt beam="2">  1        3 0.35175184E-01 0.24327964E+03</pdfrwt>
<pdfrwt beam="1">  1       -3 0.99560819E-02 0.24327964E+03</pdfrwt>
<totfact> 0.14832988E+03</totfact>
</mgrwt>
</event>
<event>
 7    1  0.1312339E-009  0.8910716E+02  0.7818608E-02  0.1305028E+00
         -3   -1    0    0    0  501 -0.00000000000E+00  0.00000000000E+00  0.87793623166E+01  0.87799432622E+01  0.10100000000E+00 0.  1.
          3   -1    0    0  501    0  0.00000000000E+00 -0.00000000000E+00 -0.22609282116E+03  0.22609284372E+03  0.10100000000E+00 0. -1.
         23    2    1    2    0    0 -0.35527136788E-14 -0.44408920985E-15 -0.21731345884E+03  0.23487278698E+03  0.89107163966E+02 0.  0.
    9000005    2    3    3    0    0 -0.19439305189E+02 -0.37542923498E+01 -0.21369451173E+03  0.21474623548E+03  0.76563706770E+01 0.  0.
         22    1    3    3    0    0  0.19439305189E+02  0.37542923498E+01 -0.36189471169E+01  0.20126551505E+02  0.00000000000E+00 0.  1.
         22    1    4    4    0    0 -0.35363765802E+01 -0.38442719734E+01 -0.62376086120E+02  0.62594412738E+02  0.00000000000E+00 0. -1.
         22    1    4    4    0    0 -0.15902928608E+02  0.89979623629E-01 -0.15131842561E+03  0.15215182274E+03  0.00000000000E+00 0. -1.
<mgrwt>
<rscale>  0 0.89107164E+02</rscale>
<asrwt>0</asrwt>
<pdfrwt beam="2">  1        3 0.34783553E-01 0.89107164E+02</pdfrwt>
<pdfrwt beam="1">  1       -3 0.13507177E-02 0.89107164E+02</pdfrwt>
<totfact> 0.28494389E+04</totfact>
</mgrwt>
</event>
<event>
 7    1  0.1312339E-009  0.9089916E+02  0.7818608E-02  0.1300689E+00
         -3   -1    0    0    0  501 -0.00000000000E+00  0.00000000000E+00  0.30157033957E+01  0.30173942353E+01  0.10100000000E+00 0.  1.
          3   -1    0    0  501    0  0.00000000000E+00 -0.00000000000E+00 -0.68477563374E+03  0.68477564119E+03  0.10100000000E+00 0. -1.
         23    2    1    2    0    0  0.00000000000E+00  0.00000000000E+00 -0.68175993035E+03  0.68779303542E+03  0.90899158161E+02 0.  0.
    9000005    2    3    3    0    0 -0.10613338097E+02  0.27203534754E+02 -0.60367142037E+03  0.60442343282E+03  0.74717547523E+01 0.  0.
         22    1    3    3    0    0  0.10613338097E+02 -0.27203534754E+02 -0.78088509973E+02  0.83369602605E+02  0.00000000000E+00 0.  1.
         22    1    4    4    0    0 -0.85683257000E+01  0.14948008795E+02 -0.40257562096E+03  0.40294415216E+03  0.00000000000E+00 0.  1.
         22    1    4    4    0    0 -0.20450123966E+01  0.12255525959E+02 -0.20109579941E+03  0.20147928066E+03  0.00000000000E+00 0.  1.
<mgrwt>
<rscale>  0 0.90899158E+02</rscale>
<asrwt>0</asrwt>
<pdfrwt beam="2">  1        3 0.10535010E+00 0.90899158E+02</pdfrwt>
<pdfrwt beam="1">  1       -3 0.46408555E-03 0.90899158E+02</pdfrwt>
<totfact> 0.14238024E+04</totfact>
</mgrwt>
</event>
<event>
 7    1  0.1312339E-009  0.9094392E+02  0.7818608E-02  0.1300582E+00
          3   -1    0    0  501    0  0.00000000000E+00  0.00000000000E+00  0.20267669623E+03  0.20267672140E+03  0.10100000000E+00 0. -1.
         -3   -1    0    0    0  501 -0.00000000000E+00 -0.00000000000E+00 -0.10201682423E+02  0.10202182377E+02  0.10100000000E+00 0.  1.
         23    2    1    2    0    0  0.00000000000E+00  0.35527136788E-14  0.19247501381E+03  0.21287890377E+03  0.90943920804E+02 0.  0.
    9000005    2    3    3    0    0 -0.22617189308E+02  0.29761011032E+02  0.40097892456E+02  0.55983900215E+02  0.11362265359E+02 0.  0.
         22    1    3    3    0    0  0.22617189308E+02 -0.29761011032E+02  0.15237712135E+03  0.15689500356E+03  0.00000000000E+00 0.  1.
         22    1    4    4    0    0  0.99647629142E+00  0.16423619890E+01  0.42681980521E+01  0.46805803608E+01  0.00000000000E+00 0. -1.
         22    1    4    4    0    0 -0.23613665599E+02  0.28118649043E+02  0.35829694404E+02  0.51303319855E+02  0.00000000000E+00 0. -1.
<mgrwt>
<rscale>  0 0.90943921E+02</rscale>
<asrwt>0</asrwt>
<pdfrwt beam="1">  1        3 0.31181071E-01 0.90943921E+02</pdfrwt>
<pdfrwt beam="2">  1       -3 0.15695300E-02 0.90943921E+02</pdfrwt>
<totfact> 0.28038881E+04</totfact>
</mgrwt>
</event>
<event>
 7    1  0.1312339E-009  0.8957011E+02  0.7818608E-02  0.1303896E+00
         -3   -1    0    0    0  501 -0.00000000000E+00  0.00000000000E+00  0.33356981999E+02  0.33357134905E+02  0.10100000000E+00 0.  1.
          3   -1    0    0  501    0  0.00000000000E+00 -0.00000000000E+00 -0.60128040525E+02  0.60128125352E+02  0.10100000000E+00 0. -1.
         23    2    1    2    0    0  0.00000000000E+00 -0.71054273576E-14 -0.26771058526E+02  0.93485260258E+02  0.89570108356E+02 0.  0.
    9000005    2    3    3    0    0  0.17679103329E+02 -0.40710751611E+02 -0.10448581644E+02  0.46195311613E+02  0.74106656480E+01 0.  0.
         22    1    3    3    0    0 -0.17679103329E+02  0.40710751611E+02 -0.16322476882E+02  0.47289948645E+02  0.00000000000E+00 0.  1.
         22    1    4    4    0    0  0.16357208782E+02 -0.39456347144E+02 -0.85428180277E+01  0.43558481940E+02  0.00000000000E+00 0. -1.
         22    1    4    4    0    0  0.13218945466E+01 -0.12544044675E+01 -0.19057636162E+01  0.26368296724E+01  0.00000000000E+00 0. -1.
<mgrwt>
<rscale>  0 0.89570108E+02</rscale>
<asrwt>0</asrwt>
<pdfrwt beam="2">  1        3 0.92504860E-02 0.89570108E+02</pdfrwt>
<pdfrwt beam="1">  1       -3 0.51318617E-02 0.89570108E+02</pdfrwt>
<totfact> 0.36901767E+04</totfact>
</mgrwt>
</event>
<event>
 7    1  0.1312339E-009  0.8590275E+02  0.7818608E-02  0.1313088E+00
          3   -1    0    0  501    0  0.00000000000E+00  0.00000000000E+00  0.60682465559E+02  0.60682549612E+02  0.10100000000E+00 0. -1.
         -3   -1    0    0    0  501 -0.00000000000E+00 -0.00000000000E+00 -0.30401022985E+02  0.30401190758E+02  0.10100000000E+00 0.  1.
         23    2    1    2    0    0  0.00000000000E+00  0.00000000000E+00  0.30281442574E+02  0.91083740370E+02  0.85902747310E+02 0.  0.
    9000005    2    3    3    0    0  0.36461299389E+02  0.22855327868E+01  0.38201935519E+02  0.53702137652E+02  0.94805958553E+01 0.  0.
         22    1    3    3    0    0 -0.36461299389E+02 -0.22855327868E+01 -0.79204929450E+01  0.37381602718E+02  0.00000000000E+00 0.  1.
         22    1    4    4    0    0  0.35576930564E+02  0.15158688371E+01  0.38549489246E+02  0.52479319429E+02  0.00000000000E+00 0.  1.
         22    1    4    4    0    0  0.88436882497E+00  0.76966394972E+00 -0.34755372617E+00  0.12228182231E+01  0.00000000000E+00 0.  1.
<mgrwt>
<rscale>  0 0.85902747E+02</rscale>
<asrwt>0</asrwt>
<pdfrwt beam="1">  1        3 0.93357833E-02 0.85902747E+02</pdfrwt>
<pdfrwt beam="2">  1       -3 0.46770998E-02 0.85902747E+02</pdfrwt>
<totfact> 0.41542278E+04</totfact>
</mgrwt>
</event>
<event>
 7    1  0.1312339E-009  0.1062069E+03  0.7818608E-02  0.1267760E+00
         -3   -1    0    0    0  501 -0.00000000000E+00  0.00000000000E+00  0.18926535674E+03  0.18926538369E+03  0.10100000000E+00 0.  1.
          3   -1    0    0  501    0  0.00000000000E+00 -0.00000000000E+00 -0.14899390733E+02  0.14899733059E+02  0.10100000000E+00 0. -1.
         23    2    1    2    0    0  0.00000000000E+00  0.30531133177E-15  0.17436596600E+03  0.20416511674E+03  0.10620689617E+03 0.  0.
    9000005    2    3    3    0    0  0.42815497547E+02  0.17110925325E+00  0.14568906370E+03  0.15263298275E+03  0.15437876552E+02 0.  0.
         22    1    3    3    0    0 -0.42815497547E+02 -0.17110925325E+00  0.28676902307E+02  0.51532133999E+02  0.00000000000E+00 0. -1.
         22    1    4    4    0    0  0.33023602419E+02  0.26926137227E+01  0.12838252007E+03  0.13258913962E+03  0.00000000000E+00 0.  1.
         22    1    4    4    0    0  0.97918951278E+01 -0.25215044695E+01  0.17306543627E+02  0.20043843127E+02  0.00000000000E+00 0.  1.
<mgrwt>
<rscale>  0 0.10620690E+03</rscale>
<asrwt>0</asrwt>
<pdfrwt beam="2">  1        3 0.22922423E-02 0.10620690E+03</pdfrwt>
<pdfrwt beam="1">  1       -3 0.29117776E-01 0.10620690E+03</pdfrwt>
<totfact> 0.18665885E+04</totfact>
</mgrwt>
</event>
<event>
 7    1  0.1312339E-009  0.9160030E+02  0.7818608E-02  0.1299022E+00
         -3   -1    0    0    0  501 -0.00000000000E+00  0.00000000000E+00  0.58727252862E+02  0.58727339713E+02  0.10100000000E+00 0.  1.
          3   -1    0    0  501    0  0.00000000000E+00 -0.00000000000E+00 -0.35718388266E+02  0.35718531063E+02  0.10100000000E+00 0. -1.
         23    2    1    2    0    0  0.00000000000E+00  0.00000000000E+00  0.23008864597E+02  0.94445870776E+02  0.91600298344E+02 0.  0.
    9000005    2    3    3    0    0  0.31288056662E+02 -0.92232026501E+01  0.44396918784E+02  0.55439988928E+02  0.62045159366E+01 0.  0.
         22    1    3    3    0    0 -0.31288056662E+02  0.92232026501E+01 -0.21388054187E+02  0.39005881848E+02  0.00000000000E+00 0. -1.
         22    1    4    4    0    0  0.28182755331E+02 -0.61912644854E+01  0.39023602667E+02  0.48532885955E+02  0.00000000000E+00 0.  1.
         22    1    4    4    0    0  0.31053013313E+01 -0.30319381647E+01  0.53733161170E+01  0.69071029735E+01  0.00000000000E+00 0.  1.
<mgrwt>
<rscale>  0 0.91600298E+02</rscale>
<asrwt>0</asrwt>
<pdfrwt beam="2">  1        3 0.54951544E-02 0.91600298E+02</pdfrwt>
<pdfrwt beam="1">  1       -3 0.90349796E-02 0.91600298E+02</pdfrwt>
<totfact> 0.34648740E+04</totfact>
</mgrwt>
</event>
<event>
 7    1  0.1312339E-009  0.9433400E+02  0.7818608E-02  0.1292683E+00
         -3   -1    0    0    0  501 -0.00000000000E+00  0.00000000000E+00  0.94496545258E+03  0.94496545798E+03  0.10100000000E+00 0.  1.
          3   -1    0    0  501    0  0.00000000000E+00 -0.00000000000E+00 -0.23532049324E+01  0.23553714046E+01  0.10100000000E+00 0. -1.
         23    2    1    2    0    0  0.00000000000E+00 -0.35527136788E-14  0.94261224765E+03  0.94732082938E+03  0.94334004294E+02 0.  0.
    9000005    2    3    3    0    0 -0.13091204584E+02  0.30653193992E+02  0.80252581614E+03  0.80332358555E+03  0.13042223222E+02 0.  0.
         22    1    3    3    0    0  0.13091204584E+02 -0.30653193992E+02  0.14008643151E+03  0.14399724383E+03  0.00000000000E+00 0. -1.
         22    1    4    4    0    0 -0.12713663907E+02  0.16764914156E+02  0.39377773371E+03  0.39433945169E+03  0.00000000000E+00 0. -1.
         22    1    4    4    0    0 -0.37754067740E+00  0.13888279837E+02  0.40874808243E+03  0.40898413385E+03  0.00000000000E+00 0. -1.
<mgrwt>
<rscale>  0 0.94334004E+02</rscale>
<asrwt>0</asrwt>
<pdfrwt beam="2">  1        3 0.36219873E-03 0.94334004E+02</pdfrwt>
<pdfrwt beam="1">  1       -3 0.14537941E+00 0.94334004E+02</pdfrwt>
<totfact> 0.96296080E+03</totfact>
</mgrwt>
</event>
<event>
 7    1  0.1312339E-009  0.9272502E+02  0.7818608E-02  0.1296384E+00
          3   -1    0    0  501    0  0.00000000000E+00  0.00000000000E+00  0.11877132717E+03  0.11877137011E+03  0.10100000000E+00 0. -1.
         -3   -1    0    0    0  501 -0.00000000000E+00 -0.00000000000E+00 -0.18097467522E+02  0.18097749355E+02  0.10100000000E+00 0.  1.
         23    2    1    2    0    0  0.00000000000E+00  0.00000000000E+00  0.10067385965E+03  0.13686911947E+03  0.92725022770E+02 0.  0.
    9000005    2    3    3    0    0  0.21696249332E+02  0.36059139616E+02  0.77280088744E+02  0.88720834950E+02  0.11321910311E+02 0.  0.
         22    1    3    3    0    0 -0.21696249332E+02 -0.36059139616E+02  0.23393770903E+02  0.48148284517E+02  0.00000000000E+00 0. -1.
         22    1    4    4    0    0  0.96603341251E+01  0.16423721358E+02  0.23764951885E+02  0.30460361402E+02  0.00000000000E+00 0. -1.
         22    1    4    4    0    0  0.12035915207E+02  0.19635418258E+02  0.53515136858E+02  0.58260473548E+02  0.00000000000E+00 0. -1.
<mgrwt>
<rscale>  0 0.92725023E+02</rscale>
<asrwt>0</asrwt>
<pdfrwt beam="1">  1        3 0.18272537E-01 0.92725023E+02</pdfrwt>
<pdfrwt beam="2">  1       -3 0.27842508E-02 0.92725023E+02</pdfrwt>
<totfact> 0.30692563E+04</totfact>
</mgrwt>
</event>
<event>
 7    1  0.1312339E-009  0.9097550E+02  0.7818608E-02  0.1300506E+00
          3   -1    0    0  501    0  0.00000000000E+00  0.00000000000E+00  0.12715054093E+03  0.12715058104E+03  0.10100000000E+00 0. -1.
         -3   -1    0    0    0  501 -0.00000000000E+00 -0.00000000000E+00 -0.16272916033E+02  0.16273229464E+02  0.10100000000E+00 0.  1.
         23    2    1    2    0    0  0.00000000000E+00  0.35527136788E-14  0.11087762489E+03  0.14342381051E+03  0.90975500645E+02 0.  0.
    9000005    2    3    3    0    0 -0.36216817531E+02 -0.19295173778E+02  0.26905157137E+02  0.49960786028E+02  0.93931388112E+01 0.  0.
         22    1    3    3    0    0  0.36216817531E+02  0.19295173778E+02  0.83972467757E+02  0.93463024478E+02  0.00000000000E+00 0. -1.
         22    1    4    4    0    0 -0.18605151429E+01 -0.41521047507E+01  0.30596230149E+01  0.54829538983E+01  0.00000000000E+00 0.  1.
         22    1    4    4    0    0 -0.34356302388E+02 -0.15143069028E+02  0.23845534123E+02  0.44477832130E+02  0.00000000000E+00 0.  1.
<mgrwt>
<rscale>  0 0.90975501E+02</rscale>
<asrwt>0</asrwt>
<pdfrwt beam="1">  1        3 0.19561649E-01 0.90975501E+02</pdfrwt>
<pdfrwt beam="2">  1       -3 0.25035527E-02 0.90975501E+02</pdfrwt>
<totfact> 0.31904842E+04</totfact>
</mgrwt>
</event>
<event>
 7    1  0.1443586E-009  0.8995955E+02  0.7818608E-02  0.1302950E+00
         -3   -1    0    0    0  501 -0.00000000000E+00  0.00000000000E+00  0.87501437307E+02  0.87501495598E+02  0.10100000000E+00 0.  1.
          3   -1    0    0  501    0  0.00000000000E+00 -0.00000000000E+00 -0.23121501516E+02  0.23121722111E+02  0.10100000000E+00 0. -1.
         23    2    1    2    0    0  0.00000000000E+00  0.17763568394E-14  0.64379935791E+02  0.11062321771E+03  0.89959547373E+02 0.  0.
    9000005    2    3    3    0    0 -0.51680235555E+01 -0.12739060358E+02 -0.18765062585E+02  0.26349361257E+02  0.12376152009E+02 0.  0.
         22    1    3    3    0    0  0.51680235555E+01  0.12739060358E+02  0.83144998376E+02  0.84273856451E+02  0.00000000000E+00 0.  1.
         22    1    4    4    0    0 -0.34081884961E+01 -0.41380701677E+00 -0.11350835097E+02  0.11858686372E+02  0.00000000000E+00 0.  1.
         22    1    4    4    0    0 -0.17598350594E+01 -0.12325253341E+02 -0.74142274875E+01  0.14490674884E+02  0.00000000000E+00 0.  1.
<mgrwt>
<rscale>  0 0.89959547E+02</rscale>
<asrwt>0</asrwt>
<pdfrwt beam="2">  1        3 0.35571755E-02 0.89959547E+02</pdfrwt>
<pdfrwt beam="1">  1       -3 0.13461781E-01 0.89959547E+02</pdfrwt>
<totfact> 0.35160806E+04</totfact>
</mgrwt>
</event>
<event>
 6    1  0.1312339E-009  0.2503451E+03  0.7818608E-02  0.1113087E+00
         -3   -1    0    0    0  501 -0.00000000000E+00  0.00000000000E+00  0.23552655266E+03  0.23552657432E+03  0.10100000000E+00 0.  1.
          3   -1    0    0  501    0  0.00000000000E+00 -0.00000000000E+00 -0.66523948771E+02  0.66524025443E+02  0.10100000000E+00 0. -1.
    9000005    2    1    2    0    0  0.65037187900E+02  0.44847778569E+02 -0.32280955923E+02  0.85818709181E+02  0.90350250484E+01 0.  0.
         22    1    1    2    0    0 -0.65037187900E+02 -0.44847778569E+02  0.20128355981E+03  0.21623189058E+03  0.00000000000E+00 0.  1.
         22    1    3    3    0    0  0.23320489724E+02  0.21269704842E+02 -0.11596860561E+02  0.33626370008E+02  0.00000000000E+00 0. -1.
         22    1    3    3    0    0  0.41716698177E+02  0.23578073727E+02 -0.20684095361E+02  0.52192339173E+02  0.00000000000E+00 0. -1.
<mgrwt>
<rscale>  0 0.25034513E+03</rscale>
<asrwt>0</asrwt>
<pdfrwt beam="2">  1        3 0.10234461E-01 0.25034513E+03</pdfrwt>
<pdfrwt beam="1">  1       -3 0.36234862E-01 0.25034513E+03</pdfrwt>
<totfact> 0.13426943E+03</totfact>
</mgrwt>
</event>
<event>
 7    1  0.1312339E-009  0.9262296E+02  0.7818608E-02  0.1296621E+00
         -3   -1    0    0    0  501 -0.00000000000E+00  0.00000000000E+00  0.93608315733E+02  0.93608370221E+02  0.10100000000E+00 0.  1.
          3   -1    0    0  501    0  0.00000000000E+00 -0.00000000000E+00 -0.22911822579E+02  0.22912045192E+02  0.10100000000E+00 0. -1.
         23    2    1    2    0    0 -0.88817841970E-15  0.71054273576E-14  0.70696493154E+02  0.11652041541E+03  0.92622961859E+02 0.  0.
    9000005    2    3    3    0    0  0.76734561557E+01 -0.38592900333E+02  0.53039220487E+01  0.40202119826E+02  0.63075323120E+01 0.  0.
         22    1    3    3    0    0 -0.76734561557E+01  0.38592900333E+02  0.65392571106E+02  0.76318295587E+02  0.00000000000E+00 0.  1.
         22    1    4    4    0    0  0.53852653695E+01 -0.13978683870E+02  0.31541890201E+00  0.14983463382E+02  0.00000000000E+00 0.  1.
         22    1    4    4    0    0  0.22881907862E+01 -0.24614216463E+02  0.49885031467E+01  0.25218656444E+02  0.00000000000E+00 0.  1.
<mgrwt>
<rscale>  0 0.92622962E+02</rscale>
<asrwt>0</asrwt>
<pdfrwt beam="2">  1        3 0.35249171E-02 0.92622962E+02</pdfrwt>
<pdfrwt beam="1">  1       -3 0.14401301E-01 0.92622962E+02</pdfrwt>
<totfact> 0.32082756E+04</totfact>
</mgrwt>
</event>
<event>
 7    1  0.1363046E-009  0.9109961E+02  0.7818608E-02  0.1300210E+00
         -3   -1    0    0    0  501 -0.00000000000E+00  0.00000000000E+00  0.22957049144E+03  0.22957051366E+03  0.10100000000E+00 0.  1.
          3   -1    0    0  501    0  0.00000000000E+00 -0.00000000000E+00 -0.90373764435E+01  0.90379408042E+01  0.10100000000E+00 0. -1.
         23    2    1    2    0    0  0.00000000000E+00  0.35527136788E-14  0.22053311499E+03  0.23860845446E+03  0.91099614327E+02 0.  0.
    9000005    2    3    3    0    0  0.14634790694E+02  0.26443826629E+02  0.19817155566E+03  0.20101201312E+03  0.14846241276E+02 0.  0.
         22    1    3    3    0    0 -0.14634790694E+02 -0.26443826629E+02  0.22361559329E+02  0.37596441336E+02  0.00000000000E+00 0. -1.
         22    1    4    4    0    0  0.68087240035E+01  0.24730295144E+02  0.14878791146E+03  0.15098274344E+03  0.00000000000E+00 0. -1.
         22    1    4    4    0    0  0.78260666909E+01  0.17135314847E+01  0.49383644207E+02  0.50029269684E+02  0.00000000000E+00 0. -1.
<mgrwt>
<rscale>  0 0.91099614E+02</rscale>
<asrwt>0</asrwt>
<pdfrwt beam="2">  1        3 0.13904107E-02 0.91099614E+02</pdfrwt>
<pdfrwt beam="1">  1       -3 0.35318582E-01 0.91099614E+02</pdfrwt>
<totfact> 0.26675523E+04</totfact>
</mgrwt>
</event>
<event>
 7    1  0.1312339E-009  0.9116929E+02  0.7818608E-02  0.1300045E+00
          3   -1    0    0  501    0  0.00000000000E+00  0.00000000000E+00  0.88702825432E+02  0.88702882933E+02  0.10100000000E+00 0. -1.
         -3   -1    0    0    0  501 -0.00000000000E+00 -0.00000000000E+00 -0.23425910490E+02  0.23426128218E+02  0.10100000000E+00 0.  1.
         23    2    1    2    0    0  0.00000000000E+00  0.00000000000E+00  0.65276914941E+02  0.11212901115E+03  0.91169290430E+02 0.  0.
    9000005    2    3    3    0    0  0.20629182744E+02  0.27488642012E+02  0.69121469409E+02  0.77546223244E+02  0.73790640224E+01 0.  0.
         22    1    3    3    0    0 -0.20629182744E+02 -0.27488642012E+02 -0.38445544673E+01  0.34582787907E+02  0.00000000000E+00 0.  1.
         22    1    4    4    0    0  0.17725616567E+02  0.19896959413E+02  0.57382655092E+02  0.63268124533E+02  0.00000000000E+00 0.  1.
         22    1    4    4    0    0  0.29035661776E+01  0.75916825994E+01  0.11738814317E+02  0.14278098711E+02  0.00000000000E+00 0.  1.
<mgrwt>
<rscale>  0 0.91169290E+02</rscale>
<asrwt>0</asrwt>
<pdfrwt beam="1">  1        3 0.13646610E-01 0.91169290E+02</pdfrwt>
<pdfrwt beam="2">  1       -3 0.36040074E-02 0.91169290E+02</pdfrwt>
<totfact> 0.33801149E+04</totfact>
</mgrwt>
</event>
<event>
 7    1  0.1865991E-009  0.9251202E+02  0.7818608E-02  0.1296880E+00
          3   -1    0    0  501    0  0.00000000000E+00  0.00000000000E+00  0.35661633863E+01  0.35675933481E+01  0.10100000000E+00 0. -1.
         -3   -1    0    0    0  501 -0.00000000000E+00 -0.00000000000E+00 -0.59985599392E+03  0.59985600242E+03  0.10100000000E+00 0.  1.
         23    2    1    2    0    0  0.00000000000E+00  0.00000000000E+00 -0.59628983053E+03  0.60342359577E+03  0.92512020491E+02 0.  0.
    9000005    2    3    3    0    0 -0.24757637891E+02  0.35996917977E+02 -0.37400982781E+03  0.37689077619E+03  0.15955786995E+02 0.  0.
         22    1    3    3    0    0  0.24757637891E+02 -0.35996917977E+02 -0.22228000272E+03  0.22653281958E+03  0.00000000000E+00 0. -1.
         22    1    4    4    0    0 -0.25121546047E+02  0.25790958558E+02 -0.30768447551E+03  0.30978379894E+03  0.00000000000E+00 0. -1.
         22    1    4    4    0    0  0.36390815600E+00  0.10205959419E+02 -0.66325352308E+02  0.67106977250E+02  0.00000000000E+00 0. -1.
<mgrwt>
<rscale>  0 0.92512020E+02</rscale>
<asrwt>0</asrwt>
<pdfrwt beam="1">  1        3 0.54875165E-03 0.92512020E+02</pdfrwt>
<pdfrwt beam="2">  1       -3 0.92285568E-01 0.92512020E+02</pdfrwt>
<totfact> 0.15038349E+04</totfact>
</mgrwt>
</event>
<event>
 7    1  0.1312339E-009  0.9184852E+02  0.7818608E-02  0.1298436E+00
         -3   -1    0    0    0  501 -0.00000000000E+00  0.00000000000E+00  0.39751944863E+01  0.39764773612E+01  0.10100000000E+00 0.  1.
          3   -1    0    0  501    0  0.00000000000E+00 -0.00000000000E+00 -0.53046265301E+03  0.53046266263E+03  0.10100000000E+00 0. -1.
         23    2    1    2    0    0  0.00000000000E+00  0.71054273576E-14 -0.52648745853E+03  0.53443913999E+03  0.91848518587E+02 0.  0.
    9000005    2    3    3    0    0  0.11736249037E+02 -0.42627756528E+02 -0.33286095998E+03  0.33582875228E+03  0.54467429366E+01 0.  0.
         22    1    3    3    0    0 -0.11736249037E+02  0.42627756528E+02 -0.19362649855E+03  0.19861038771E+03  0.00000000000E+00 0. -1.
         22    1    4    4    0    0  0.19352410685E+01 -0.14516472899E+02 -0.12225261212E+03  0.12312665964E+03  0.00000000000E+00 0.  1.
         22    1    4    4    0    0  0.98010079682E+01 -0.28111283629E+02 -0.21060834786E+03  0.21270209264E+03  0.00000000000E+00 0.  1.
<mgrwt>
<rscale>  0 0.91848519E+02</rscale>
<asrwt>0</asrwt>
<pdfrwt beam="2">  1        3 0.81609682E-01 0.91848519E+02</pdfrwt>
<pdfrwt beam="1">  1       -3 0.61166823E-03 0.91848519E+02</pdfrwt>
<totfact> 0.16776241E+04</totfact>
</mgrwt>
</event>
<event>
 7    1  0.1312339E-009  0.9472437E+02  0.7818608E-02  0.1291798E+00
         -3   -1    0    0    0  501 -0.00000000000E+00  0.00000000000E+00  0.18998834841E+02  0.18999103303E+02  0.10100000000E+00 0.  1.
          3   -1    0    0  501    0  0.00000000000E+00 -0.00000000000E+00 -0.11806804106E+03  0.11806808426E+03  0.10100000000E+00 0. -1.
         23    2    1    2    0    0 -0.35527136788E-14  0.00000000000E+00 -0.99069206216E+02  0.13706718756E+03  0.94724370071E+02 0.  0.
    9000005    2    3    3    0    0 -0.26701564367E+02 -0.28920386002E+01 -0.10519646697E+03  0.10951939724E+03  0.14382777262E+02 0.  0.
         22    1    3    3    0    0  0.26701564367E+02  0.28920386002E+01  0.61272607584E+01  0.27547790316E+02  0.00000000000E+00 0.  1.
         22    1    4    4    0    0 -0.17857054196E+02 -0.77982937954E+01 -0.55977792829E+02  0.59272262153E+02  0.00000000000E+00 0. -1.
         22    1    4    4    0    0 -0.88445101708E+01  0.49062551952E+01 -0.49218674145E+02  0.50247135090E+02  0.00000000000E+00 0. -1.
<mgrwt>
<rscale>  0 0.94724370E+02</rscale>
<asrwt>0</asrwt>
<pdfrwt beam="2">  1        3 0.18164338E-01 0.94724370E+02</pdfrwt>
<pdfrwt beam="1">  1       -3 0.29229217E-02 0.94724370E+02</pdfrwt>
<totfact> 0.28948722E+04</totfact>
</mgrwt>
</event>
<event>
 7    1  0.1312339E-009  0.9203635E+02  0.7818608E-02  0.1297994E+00
         -3   -1    0    0    0  501 -0.00000000000E+00  0.00000000000E+00  0.13068169163E+03  0.13068173066E+03  0.10100000000E+00 0.  1.
          3   -1    0    0  501    0  0.00000000000E+00 -0.00000000000E+00 -0.16204615322E+02  0.16204930075E+02  0.10100000000E+00 0. -1.
         23    2    1    2    0    0 -0.35527136788E-14  0.00000000000E+00  0.11447707631E+03  0.14688666074E+03  0.92036352068E+02 0.  0.
    9000005    2    3    3    0    0 -0.28075831020E+02 -0.20282438766E+02  0.10494693233E+03  0.11096378148E+03  0.99735943885E+01 0.  0.
         22    1    3    3    0    0  0.28075831020E+02  0.20282438766E+02  0.95301439777E+01  0.35922879255E+02  0.00000000000E+00 0. -1.
         22    1    4    4    0    0 -0.19659069209E+02 -0.11495435156E+02  0.54429692924E+02  0.59001826272E+02  0.00000000000E+00 0. -1.
         22    1    4    4    0    0 -0.84167618107E+01 -0.87870036100E+01  0.50517239408E+02  0.51961955209E+02  0.00000000000E+00 0. -1.
<mgrwt>
<rscale>  0 0.92036352E+02</rscale>
<asrwt>0</asrwt>
<pdfrwt beam="2">  1        3 0.24930450E-02 0.92036352E+02</pdfrwt>
<pdfrwt beam="1">  1       -3 0.20104903E-01 0.92036352E+02</pdfrwt>
<totfact> 0.30707590E+04</totfact>
</mgrwt>
</event>
<event>
 7    1  0.1312339E-009  0.1213949E+03  0.7818608E-02  0.1240814E+00
          3   -1    0    0  501    0  0.00000000000E+00  0.00000000000E+00  0.45119103227E+03  0.45119104358E+03  0.10100000000E+00 0. -1.
         -3   -1    0    0    0  501 -0.00000000000E+00 -0.00000000000E+00 -0.81651282359E+01  0.81657528807E+01  0.10100000000E+00 0.  1.
         23    2    1    2    0    0 -0.35527136788E-14  0.00000000000E+00  0.44302590404E+03  0.45935679646E+03  0.12139487141E+03 0.  0.
    9000005    2    3    3    0    0 -0.30835492094E+02  0.14615146290E+02  0.41060436113E+03  0.41228677927E+03  0.14832966861E+02 0.  0.
         22    1    3    3    0    0  0.30835492094E+02 -0.14615146290E+02  0.32421542904E+02  0.47070017188E+02  0.00000000000E+00 0.  1.
         22    1    4    4    0    0  0.12327485562E+01  0.27467007842E+01  0.31723185487E+02  0.31865726599E+02  0.00000000000E+00 0. -1.
         22    1    4    4    0    0 -0.32068240651E+02  0.11868445506E+02  0.37888117565E+03  0.38042105267E+03  0.00000000000E+00 0. -1.
<mgrwt>
<rscale>  0 0.12139487E+03</rscale>
<asrwt>0</asrwt>
<pdfrwt beam="1">  1        3 0.69414040E-01 0.12139487E+03</pdfrwt>
<pdfrwt beam="2">  1       -3 0.12562227E-02 0.12139487E+03</pdfrwt>
<totfact> 0.87037802E+03</totfact>
</mgrwt>
</event>
<event>
 7    1  0.1501519E-009  0.9055975E+02  0.7818608E-02  0.1301502E+00
          3   -1    0    0  501    0  0.00000000000E+00  0.00000000000E+00  0.15298835575E+02  0.15299168963E+02  0.10100000000E+00 0. -1.
         -3   -1    0    0    0  501 -0.00000000000E+00 -0.00000000000E+00 -0.13401276878E+03  0.13401280684E+03  0.10100000000E+00 0.  1.
         23    2    1    2    0    0 -0.35527136788E-14  0.00000000000E+00 -0.11871393321E+03  0.14931197581E+03  0.90559749233E+02 0.  0.
    9000005    2    3    3    0    0  0.26239412328E+02  0.79473955796E+00 -0.11960608219E+03  0.12304537534E+03  0.12058653514E+02 0.  0.
         22    1    3    3    0    0 -0.26239412328E+02 -0.79473955796E+00  0.89214898337E+00  0.26266600467E+02  0.00000000000E+00 0. -1.
         22    1    4    4    0    0  0.16806130433E+02  0.85810834878E+00 -0.48938593275E+02  0.51751022036E+02  0.00000000000E+00 0. -1.
         22    1    4    4    0    0  0.94332818951E+01 -0.63368790823E-01 -0.70667488918E+02  0.71294353303E+02  0.00000000000E+00 0. -1.
<mgrwt>
<rscale>  0 0.90559749E+02</rscale>
<asrwt>0</asrwt>
<pdfrwt beam="1">  1        3 0.23536957E-02 0.90559749E+02</pdfrwt>
<pdfrwt beam="2">  1       -3 0.20617377E-01 0.90559749E+02</pdfrwt>
<totfact> 0.31931415E+04</totfact>
</mgrwt>
</event>
<event>
 7    1  0.1312339E-009  0.9387297E+02  0.7818608E-02  0.1293735E+00
          3   -1    0    0  501    0  0.00000000000E+00  0.00000000000E+00  0.84114327075E+02  0.84114387713E+02  0.10100000000E+00 0. -1.
         -3   -1    0    0    0  501 -0.00000000000E+00 -0.00000000000E+00 -0.26190777847E+02  0.26190972591E+02  0.10100000000E+00 0.  1.
         23    2    1    2    0    0  0.00000000000E+00  0.00000000000E+00  0.57923549228E+02  0.11030536030E+03  0.93872972450E+02 0.  0.
    9000005    2    3    3    0    0  0.44992774947E+02 -0.92197214961E+01  0.32936354658E+02  0.58020439396E+02  0.13123066243E+02 0.  0.
         22    1    3    3    0    0 -0.44992774947E+02  0.92197214961E+01  0.24987194570E+02  0.52284920908E+02  0.00000000000E+00 0.  1.
         22    1    4    4    0    0  0.35815111692E+02 -0.12335555067E+02  0.24040084947E+02  0.44864393773E+02  0.00000000000E+00 0. -1.
         22    1    4    4    0    0  0.91776632546E+01  0.31158335710E+01  0.88962697108E+01  0.13156045623E+02  0.00000000000E+00 0. -1.
<mgrwt>
<rscale>  0 0.93872972E+02</rscale>
<asrwt>0</asrwt>
<pdfrwt beam="1">  1        3 0.12940685E-01 0.93872972E+02</pdfrwt>
<pdfrwt beam="2">  1       -3 0.40293700E-02 0.93872972E+02</pdfrwt>
<totfact> 0.31331577E+04</totfact>
</mgrwt>
</event>
<event>
 7    1  0.1312339E-009  0.9242372E+02  0.7818608E-02  0.1297086E+00
          3   -1    0    0  501    0  0.00000000000E+00  0.00000000000E+00  0.11344548645E+02  0.11344998236E+02  0.10100000000E+00 0. -1.
         -3   -1    0    0    0  501 -0.00000000000E+00 -0.00000000000E+00 -0.18823918989E+03  0.18823921699E+03  0.10100000000E+00 0.  1.
         23    2    1    2    0    0  0.00000000000E+00 -0.35527136788E-14 -0.17689464125E+03  0.19958421522E+03  0.92423724577E+02 0.  0.
    9000005    2    3    3    0    0 -0.30009366967E+02 -0.28942555488E+02 -0.48633952078E+02  0.64717473549E+02  0.92117568303E+01 0.  0.
         22    1    3    3    0    0  0.30009366967E+02  0.28942555488E+02 -0.12826068917E+03  0.13486674167E+03  0.00000000000E+00 0.  1.
         22    1    4    4    0    0 -0.36086582113E+01 -0.27780904480E+01 -0.17307083836E+01  0.48719146270E+01  0.00000000000E+00 0. -1.
         22    1    4    4    0    0 -0.26400708756E+02 -0.26164465040E+02 -0.46903243695E+02  0.59845558922E+02  0.00000000000E+00 0. -1.
<mgrwt>
<rscale>  0 0.92423725E+02</rscale>
<asrwt>0</asrwt>
<pdfrwt beam="1">  1        3 0.17453520E-02 0.92423725E+02</pdfrwt>
<pdfrwt beam="2">  1       -3 0.28959910E-01 0.92423725E+02</pdfrwt>
<totfact> 0.27490361E+04</totfact>
</mgrwt>
</event>
<event>
 7    1  0.1312339E-009  0.9119989E+02  0.7818608E-02  0.1299972E+00
         -3   -1    0    0    0  501 -0.00000000000E+00  0.00000000000E+00  0.25284433030E+03  0.25284435047E+03  0.10100000000E+00 0.  1.
          3   -1    0    0  501    0  0.00000000000E+00 -0.00000000000E+00 -0.82235245142E+01  0.82241447237E+01  0.10100000000E+00 0. -1.
         23    2    1    2    0    0  0.00000000000E+00  0.71054273576E-14  0.24462080578E+03  0.26106849519E+03  0.91199893424E+02 0.  0.
    9000005    2    3    3    0    0 -0.11963513765E+02  0.35715127282E+02  0.58985617853E+02  0.71650652907E+02  0.15356333227E+02 0.  0.
         22    1    3    3    0    0  0.11963513765E+02 -0.35715127282E+02  0.18563518793E+03  0.18941784228E+03  0.00000000000E+00 0.  1.
         22    1    4    4    0    0 -0.15510721103E+02  0.28588052422E+02  0.49976410177E+02  0.59628020130E+02  0.00000000000E+00 0. -1.
         22    1    4    4    0    0  0.35472073378E+01  0.71270748601E+01  0.90092076761E+01  0.12022632778E+02  0.00000000000E+00 0. -1.
<mgrwt>
<rscale>  0 0.91199893E+02</rscale>
<asrwt>0</asrwt>
<pdfrwt beam="2">  1        3 0.12652070E-02 0.91199893E+02</pdfrwt>
<pdfrwt beam="1">  1       -3 0.38899174E-01 0.91199893E+02</pdfrwt>
<totfact> 0.25597483E+04</totfact>
</mgrwt>
</event>
<event>
 7    1  0.1312339E-009  0.1152873E+03  0.7818608E-02  0.1251080E+00
         -3   -1    0    0    0  501 -0.00000000000E+00  0.00000000000E+00  0.80082670252E+02  0.80082733943E+02  0.10100000000E+00 0.  1.
          3   -1    0    0  501    0  0.00000000000E+00 -0.00000000000E+00 -0.41491837804E+02  0.41491960732E+02  0.10100000000E+00 0. -1.
         23    2    1    2    0    0  0.17763568394E-14  0.35527136788E-14  0.38590832448E+02  0.12157469467E+03  0.11528726745E+03 0.  0.
    9000005    2    3    3    0    0  0.10804872699E+02  0.26485147934E+02  0.71560979073E+02  0.77925652261E+02  0.11542322961E+02 0.  0.
         22    1    3    3    0    0 -0.10804872699E+02 -0.26485147934E+02 -0.32970146625E+02  0.43649042413E+02  0.00000000000E+00 0. -1.
         22    1    4    4    0    0  0.13241232044E+02  0.23353339292E+02  0.61112811510E+02  0.66749415075E+02  0.00000000000E+00 0.  1.
         22    1    4    4    0    0 -0.24363593456E+01  0.31318086425E+01  0.10448167563E+02  0.11176237187E+02  0.00000000000E+00 0.  1.
<mgrwt>
<rscale>  0 0.11528727E+03</rscale>
<asrwt>0</asrwt>
<pdfrwt beam="2">  1        3 0.63833741E-02 0.11528727E+03</pdfrwt>
<pdfrwt beam="1">  1       -3 0.12320425E-01 0.11528727E+03</pdfrwt>
<totfact> 0.17358421E+04</totfact>
</mgrwt>
</event>
<event>
 7    1  0.1312339E-009  0.9123355E+02  0.7818608E-02  0.1299892E+00
         -3   -1    0    0    0  501 -0.00000000000E+00  0.00000000000E+00  0.72999409842E+03  0.72999410541E+03  0.10100000000E+00 0. -1.
          3   -1    0    0  501    0  0.00000000000E+00 -0.00000000000E+00 -0.28496560151E+01  0.28514453185E+01  0.10100000000E+00 0.  1.
         23    2    1    2    0    0  0.00000000000E+00 -0.35527136788E-14  0.72714444241E+03  0.73284555073E+03  0.91233552479E+02 0.  0.
    9000005    2    3    3    0    0 -0.13382987425E+02  0.18127551268E+02  0.68038195813E+03  0.68093753205E+03  0.15767090302E+02 0.  0.
         22    1    3    3    0    0  0.13382987425E+02 -0.18127551268E+02  0.46762484276E+02  0.51908018678E+02  0.00000000000E+00 0.  1.
         22    1    4    4    0    0 -0.77394757928E+01  0.64154827916E+01  0.12505181617E+03  0.12545522959E+03  0.00000000000E+00 0.  1.
         22    1    4    4    0    0 -0.56435116325E+01  0.11712068476E+02  0.55533014197E+03  0.55548230246E+03  0.00000000000E+00 0.  1.
<mgrwt>
<rscale>  0 0.91233552E+02</rscale>
<asrwt>0</asrwt>
<pdfrwt beam="2">  1        3 0.43854648E-03 0.91233552E+02</pdfrwt>
<pdfrwt beam="1">  1       -3 0.11230700E+00 0.91233552E+02</pdfrwt>
<totfact> 0.13339803E+04</totfact>
</mgrwt>
</event>
<event>
 7    1  0.1312339E-009  0.9135062E+02  0.7818608E-02  0.1299614E+00
          3   -1    0    0  501    0  0.00000000000E+00  0.00000000000E+00  0.39814638496E+02  0.39814766602E+02  0.10100000000E+00 0. -1.
         -3   -1    0    0    0  501 -0.00000000000E+00 -0.00000000000E+00 -0.52398404689E+02  0.52398502030E+02  0.10100000000E+00 0.  1.
         23    2    1    2    0    0  0.71054273576E-14  0.71054273576E-14 -0.12583766193E+02  0.92213268632E+02  0.91350619813E+02 0.  0.
    9000005    2    3    3    0    0 -0.37353072903E+02 -0.25323136299E+02 -0.10501982817E+02  0.47037532785E+02  0.81070685277E+01 0.  0.
         22    1    3    3    0    0  0.37353072903E+02  0.25323136299E+02 -0.20817833754E+01  0.45175735847E+02  0.00000000000E+00 0.  1.
         22    1    4    4    0    0 -0.32653904165E+02 -0.18856798483E+02 -0.10086612801E+02  0.39033268682E+02  0.00000000000E+00 0. -1.
         22    1    4    4    0    0 -0.46991687382E+01 -0.64663378157E+01 -0.41537001662E+00  0.80042641029E+01  0.00000000000E+00 0. -1.
<mgrwt>
<rscale>  0 0.91350620E+02</rscale>
<asrwt>0</asrwt>
<pdfrwt beam="1">  1        3 0.61253463E-02 0.91350620E+02</pdfrwt>
<pdfrwt beam="2">  1       -3 0.80613104E-02 0.91350620E+02</pdfrwt>
<totfact> 0.35077125E+04</totfact>
</mgrwt>
</event>
<event>
 7    1  0.1312339E-009  0.9219210E+02  0.7818608E-02  0.1297628E+00
          3   -1    0    0  501    0  0.00000000000E+00  0.00000000000E+00  0.68528474550E+03  0.68528475294E+03  0.10100000000E+00 0. -1.
         -3   -1    0    0    0  501 -0.00000000000E+00 -0.00000000000E+00 -0.30998459589E+01  0.31014909268E+01  0.10100000000E+00 0.  1.
         23    2    1    2    0    0  0.00000000000E+00  0.22204460493E-15  0.68218489954E+03  0.68838624387E+03  0.92192101543E+02 0.  0.
    9000005    2    3    3    0    0 -0.27380355493E+02  0.19858513961E+01  0.61517549412E+03  0.61597155000E+03  0.15047736585E+02 0.  0.
         22    1    3    3    0    0  0.27380355493E+02 -0.19858513961E+01  0.67009405418E+02  0.72414693862E+02  0.00000000000E+00 0.  1.
         22    1    4    4    0    0 -0.10636012987E+02  0.82152008345E+01  0.26153302345E+03  0.26187809502E+03  0.00000000000E+00 0.  1.
         22    1    4    4    0    0 -0.16744342506E+02 -0.62293494385E+01  0.35364247067E+03  0.35409345498E+03  0.00000000000E+00 0.  1.
<mgrwt>
<rscale>  0 0.92192102E+02</rscale>
<asrwt>0</asrwt>
<pdfrwt beam="1">  1        3 0.10542856E+00 0.92192102E+02</pdfrwt>
<pdfrwt beam="2">  1       -3 0.47702643E-03 0.92192102E+02</pdfrwt>
<totfact> 0.13702552E+04</totfact>
</mgrwt>
</event>
<event>
 7    1  0.1312339E-009  0.8793952E+02  0.7818608E-02  0.1307920E+00
         -3   -1    0    0    0  501 -0.00000000000E+00  0.00000000000E+00  0.16680252548E+03  0.16680255606E+03  0.10100000000E+00 0.  1.
          3   -1    0    0  501    0  0.00000000000E+00 -0.00000000000E+00 -0.11590337991E+02  0.11590778048E+02  0.10100000000E+00 0. -1.
         23    2    1    2    0    0  0.35527136788E-14 -0.35527136788E-14  0.15521218749E+03  0.17839333410E+03  0.87939516193E+02 0.  0.
    9000005    2    3    3    0    0  0.27306775350E+02 -0.31004455721E+02  0.10133511507E+03  0.11049874532E+03  0.15304604380E+02 0.  0.
         22    1    3    3    0    0 -0.27306775350E+02  0.31004455721E+02  0.53877072414E+02  0.67894588786E+02  0.00000000000E+00 0. -1.
         22    1    4    4    0    0  0.26628324616E+02 -0.27344995268E+02  0.99005410228E+02  0.10610790589E+03  0.00000000000E+00 0.  1.
         22    1    4    4    0    0  0.67845073405E+00 -0.36594604535E+01  0.23297048459E+01  0.43908394275E+01  0.00000000000E+00 0.  1.
<mgrwt>
<rscale>  0 0.87939516E+02</rscale>
<asrwt>0</asrwt>
<pdfrwt beam="2">  1        3 0.17831652E-02 0.87939516E+02</pdfrwt>
<pdfrwt beam="1">  1       -3 0.25661962E-01 0.87939516E+02</pdfrwt>
<totfact> 0.32686318E+04</totfact>
</mgrwt>
</event>
<event>
 7    1  0.1312339E-009  0.9104012E+02  0.7818608E-02  0.1300352E+00
         -3   -1    0    0    0  501 -0.00000000000E+00  0.00000000000E+00  0.25216608110E+02  0.25216810376E+02  0.10100000000E+00 0.  1.
          3   -1    0    0  501    0  0.00000000000E+00 -0.00000000000E+00 -0.82170521245E+02  0.82170583317E+02  0.10100000000E+00 0. -1.
         23    2    1    2    0    0  0.00000000000E+00  0.00000000000E+00 -0.56953913136E+02  0.10738739369E+03  0.91040123588E+02 0.  0.
    9000005    2    3    3    0    0 -0.11821226043E+02 -0.30702291244E+02 -0.64183721201E+02  0.73702943313E+02  0.15172399714E+02 0.  0.
         22    1    3    3    0    0  0.11821226043E+02  0.30702291244E+02  0.72298080654E+01  0.33684450381E+02  0.00000000000E+00 0.  1.
         22    1    4    4    0    0  0.31140816535E+01 -0.79185568818E+01 -0.20823001449E+02  0.22494409016E+02  0.00000000000E+00 0. -1.
         22    1    4    4    0    0 -0.14935307697E+02 -0.22783734362E+02 -0.43360719752E+02  0.51208534297E+02  0.00000000000E+00 0. -1.
<mgrwt>
<rscale>  0 0.91040124E+02</rscale>
<asrwt>0</asrwt>
<pdfrwt beam="2">  1        3 0.12641639E-01 0.91040124E+02</pdfrwt>
<pdfrwt beam="1">  1       -3 0.38794985E-02 0.91040124E+02</pdfrwt>
<totfact> 0.34271603E+04</totfact>
</mgrwt>
</event>
<event>
 7    1  0.1312339E-009  0.9194836E+02  0.7818608E-02  0.1298201E+00
          3   -1    0    0  501    0  0.00000000000E+00  0.00000000000E+00  0.16603429561E+02  0.16603736753E+02  0.10100000000E+00 0. -1.
         -3   -1    0    0    0  501 -0.00000000000E+00 -0.00000000000E+00 -0.12729902933E+03  0.12729906939E+03  0.10100000000E+00 0.  1.
         23    2    1    2    0    0 -0.88817841970E-15  0.00000000000E+00 -0.11069559976E+03  0.14390280615E+03  0.91948364909E+02 0.  0.
    9000005    2    3    3    0    0  0.67137379555E+01 -0.15023122578E+02 -0.12212294377E+03  0.12386901768E+03  0.12599668970E+02 0.  0.
         22    1    3    3    0    0 -0.67137379555E+01  0.15023122578E+02  0.11427344000E+02  0.20033788465E+02  0.00000000000E+00 0. -1.
         22    1    4    4    0    0 -0.32777581479E+01 -0.90425831455E+00 -0.17783614291E+02  0.18105753749E+02  0.00000000000E+00 0. -1.
         22    1    4    4    0    0  0.99914961034E+01 -0.14118864264E+02 -0.10433932947E+03  0.10576326393E+03  0.00000000000E+00 0. -1.
<mgrwt>
<rscale>  0 0.91948365E+02</rscale>
<asrwt>0</asrwt>
<pdfrwt beam="1">  1        3 0.25544006E-02 0.91948365E+02</pdfrwt>
<pdfrwt beam="2">  1       -3 0.19584492E-01 0.91948365E+02</pdfrwt>
<totfact> 0.30968837E+04</totfact>
</mgrwt>
</event>
<event>
 7    1  0.1312339E-009  0.8985639E+02  0.7818608E-02  0.1303200E+00
         -3   -1    0    0    0  501 -0.00000000000E+00  0.00000000000E+00  0.90519002448E+01  0.90524637001E+01  0.10100000000E+00 0.  1.
          3   -1    0    0  501    0  0.00000000000E+00 -0.00000000000E+00 -0.22298904070E+03  0.22298906358E+03  0.10100000000E+00 0. -1.
         23    2    1    2    0    0  0.00000000000E+00  0.00000000000E+00 -0.21393714046E+03  0.23204152728E+03  0.89856387160E+02 0.  0.
    9000005    2    3    3    0    0  0.43935320494E+02 -0.47452450817E+01 -0.11452258144E+03  0.12324775778E+03  0.11034418827E+02 0.  0.
         22    1    3    3    0    0 -0.43935320494E+02  0.47452450817E+01 -0.99414559017E+02  0.10879376950E+03  0.00000000000E+00 0. -1.
         22    1    4    4    0    0  0.44799371557E+01  0.25744215757E+01 -0.94019287905E+01  0.10728175444E+02  0.00000000000E+00 0.  1.
         22    1    4    4    0    0  0.39455383338E+02 -0.73196666574E+01 -0.10512065265E+03  0.11251958233E+03  0.00000000000E+00 0.  1.
<mgrwt>
<rscale>  0 0.89856387E+02</rscale>
<asrwt>0</asrwt>
<pdfrwt beam="2">  1        3 0.34306047E-01 0.89856387E+02</pdfrwt>
<pdfrwt beam="1">  1       -3 0.13926453E-02 0.89856387E+02</pdfrwt>
<totfact> 0.27999025E+04</totfact>
</mgrwt>
</event>
<event>
 7    1  0.1312339E-009  0.9153208E+02  0.7818608E-02  0.1299183E+00
          3   -1    0    0  501    0  0.00000000000E+00  0.00000000000E+00  0.23306590968E+02  0.23306809810E+02  0.10100000000E+00 0. -1.
         -3   -1    0    0    0  501 -0.00000000000E+00 -0.00000000000E+00 -0.89867926536E+02  0.89867983292E+02  0.10100000000E+00 0.  1.
         23    2    1    2    0    0  0.00000000000E+00  0.00000000000E+00 -0.66561335569E+02  0.11317479310E+03  0.91532083998E+02 0.  0.
    9000005    2    3    3    0    0  0.25837465613E+02 -0.19647953270E+02  0.40274160594E+01  0.35480594133E+02  0.13749028436E+02 0.  0.
         22    1    3    3    0    0 -0.25837465613E+02  0.19647953270E+02 -0.70588751628E+02  0.77694198969E+02  0.00000000000E+00 0.  1.
         22    1    4    4    0    0  0.19725309306E+02 -0.12842181920E+02  0.88420261249E+01  0.25143406485E+02  0.00000000000E+00 0.  1.
         22    1    4    4    0    0  0.61121563075E+01 -0.68057713497E+01 -0.48146100655E+01  0.10337187648E+02  0.00000000000E+00 0.  1.
<mgrwt>
<rscale>  0 0.91532084E+02</rscale>
<asrwt>0</asrwt>
<pdfrwt beam="1">  1        3 0.35856506E-02 0.91532084E+02</pdfrwt>
<pdfrwt beam="2">  1       -3 0.13825856E-01 0.91532084E+02</pdfrwt>
<totfact> 0.33366326E+04</totfact>
</mgrwt>
</event>
<event>
 7    1  0.1312339E-009  0.8988627E+02  0.7818608E-02  0.1303127E+00
          3   -1    0    0  501    0  0.00000000000E+00  0.00000000000E+00  0.62888062452E+02  0.62888143557E+02  0.10100000000E+00 0. -1.
         -3   -1    0    0    0  501 -0.00000000000E+00 -0.00000000000E+00 -0.32118556505E+02  0.32118715307E+02  0.10100000000E+00 0.  1.
         23    2    1    2    0    0  0.00000000000E+00  0.00000000000E+00  0.30769505948E+02  0.95006858863E+02  0.89886265552E+02 0.  0.
    9000005    2    3    3    0    0  0.24954236691E+02 -0.37293100886E+02  0.14349810606E+02  0.47225108187E+02  0.32870163289E+01 0.  0.
         22    1    3    3    0    0 -0.24954236691E+02  0.37293100886E+02  0.16419695342E+02  0.47781750676E+02  0.00000000000E+00 0.  1.
         22    1    4    4    0    0  0.77306843608E+01 -0.10915993343E+02  0.58260066751E+01  0.14589885028E+02  0.00000000000E+00 0.  1.
         22    1    4    4    0    0  0.17223552331E+02 -0.26377107542E+02  0.85238039306E+01  0.32635223159E+02  0.00000000000E+00 0.  1.
<mgrwt>
<rscale>  0 0.89886266E+02</rscale>
<asrwt>0</asrwt>
<pdfrwt beam="1">  1        3 0.96751049E-02 0.89886266E+02</pdfrwt>
<pdfrwt beam="2">  1       -3 0.49413349E-02 0.89886266E+02</pdfrwt>
<totfact> 0.36429733E+04</totfact>
</mgrwt>
</event>
<event>
 7    1  0.1312339E-009  0.9350909E+02  0.7818608E-02  0.1294570E+00
          3   -1    0    0  501    0  0.00000000000E+00  0.00000000000E+00  0.47135047815E+01  0.47145867608E+01  0.10100000000E+00 0. -1.
         -3   -1    0    0    0  501 -0.00000000000E+00 -0.00000000000E+00 -0.46371686103E+03  0.46371687203E+03  0.10100000000E+00 0.  1.
         23    2    1    2    0    0  0.00000000000E+00 -0.35527136788E-14 -0.45900335625E+03  0.46843145879E+03  0.93509093337E+02 0.  0.
    9000005    2    3    3    0    0 -0.35400187224E+02 -0.27501157909E+02 -0.29427453950E+03  0.29771218627E+03  0.50551275761E+01 0.  0.
         22    1    3    3    0    0  0.35400187224E+02  0.27501157909E+02 -0.16472881675E+03  0.17071927252E+03  0.00000000000E+00 0. -1.
         22    1    4    4    0    0 -0.26934851973E+01 -0.38515246806E+01 -0.26650865458E+02  0.27062108833E+02  0.00000000000E+00 0. -1.
         22    1    4    4    0    0 -0.32706702026E+02 -0.23649633229E+02 -0.26762367404E+03  0.27065007744E+03  0.00000000000E+00 0. -1.
<mgrwt>
<rscale>  0 0.93509093E+02</rscale>
<asrwt>0</asrwt>
<pdfrwt beam="1">  1        3 0.72523902E-03 0.93509093E+02</pdfrwt>
<pdfrwt beam="2">  1       -3 0.71341104E-01 0.93509093E+02</pdfrwt>
<totfact> 0.17461586E+04</totfact>
</mgrwt>
</event>
<event>
 7    1  0.1312339E-009  0.9109827E+02  0.7818608E-02  0.1300214E+00
          3   -1    0    0  501    0  0.00000000000E+00  0.00000000000E+00  0.14850098056E+03  0.14850101491E+03  0.10100000000E+00 0. -1.
         -3   -1    0    0    0  501 -0.00000000000E+00 -0.00000000000E+00 -0.13970891528E+02  0.13971256604E+02  0.10100000000E+00 0.  1.
         23    2    1    2    0    0  0.00000000000E+00  0.00000000000E+00  0.13453008903E+03  0.16247227151E+03  0.91098266476E+02 0.  0.
    9000005    2    3    3    0    0  0.28968561547E+02 -0.15419943451E+02  0.12335296118E+03  0.12780412473E+03  0.64022693083E+01 0.  0.
         22    1    3    3    0    0 -0.28968561547E+02  0.15419943451E+02  0.11177127852E+02  0.34668146780E+02  0.00000000000E+00 0.  1.
         22    1    4    4    0    0  0.13527566982E+02 -0.59116044922E+01  0.44188933551E+02  0.46589741193E+02  0.00000000000E+00 0.  1.
         22    1    4    4    0    0  0.15440994564E+02 -0.95083389588E+01  0.79164027629E+02  0.81214383538E+02  0.00000000000E+00 0.  1.
<mgrwt>
<rscale>  0 0.91098266E+02</rscale>
<asrwt>0</asrwt>
<pdfrwt beam="1">  1        3 0.22846335E-01 0.91098266E+02</pdfrwt>
<pdfrwt beam="2">  1       -3 0.21493987E-02 0.91098266E+02</pdfrwt>
<totfact> 0.30632509E+04</totfact>
</mgrwt>
</event>
<event>
 7    1  0.1312339E-009  0.9443448E+02  0.7818608E-02  0.1292455E+00
          3   -1    0    0  501    0  0.00000000000E+00  0.00000000000E+00  0.19413424011E+02  0.19413686740E+02  0.10100000000E+00 0. -1.
         -3   -1    0    0    0  501 -0.00000000000E+00 -0.00000000000E+00 -0.11484050118E+03  0.11484054559E+03  0.10100000000E+00 0.  1.
         23    2    1    2    0    0  0.00000000000E+00  0.00000000000E+00 -0.95427077166E+02  0.13425423233E+03  0.94434484391E+02 0.  0.
    9000005    2    3    3    0    0  0.31134191916E+02  0.15597769376E+02 -0.64665987823E+01  0.38721018053E+02  0.15648387250E+02 0.  0.
         22    1    3    3    0    0 -0.31134191916E+02 -0.15597769376E+02 -0.88960478384E+02  0.95533214277E+02  0.00000000000E+00 0.  1.
         22    1    4    4    0    0  0.45930842346E+00  0.36356852800E+01 -0.44074768673E+01  0.57319302176E+01  0.00000000000E+00 0. -1.
         22    1    4    4    0    0  0.30674883492E+02  0.11962084096E+02 -0.20591219150E+01  0.32989087836E+02  0.00000000000E+00 0. -1.
<mgrwt>
<rscale>  0 0.94434484E+02</rscale>
<asrwt>0</asrwt>
<pdfrwt beam="1">  1        3 0.29867043E-02 0.94434484E+02</pdfrwt>
<pdfrwt beam="2">  1       -3 0.17667793E-01 0.94434484E+02</pdfrwt>
<totfact> 0.29356637E+04</totfact>
</mgrwt>
</event>
<event>
 7    1  0.1312339E-009  0.9191127E+02  0.7818608E-02  0.1298288E+00
          3   -1    0    0  501    0  0.00000000000E+00  0.00000000000E+00  0.13576169858E+03  0.13576173615E+03  0.10100000000E+00 0. -1.
         -3   -1    0    0    0  501 -0.00000000000E+00 -0.00000000000E+00 -0.15555880104E+02  0.15556207983E+02  0.10100000000E+00 0.  1.
         23    2    1    2    0    0 -0.88817841970E-15 -0.71054273576E-14  0.12020581848E+03  0.15131794414E+03  0.91911269284E+02 0.  0.
    9000005    2    3    3    0    0 -0.57704058966E+01 -0.42419148365E+02  0.32864096110E+02  0.54048944970E+02  0.29253900639E+01 0.  0.
         22    1    3    3    0    0  0.57704058966E+01  0.42419148365E+02  0.87341722370E+02  0.97268999166E+02  0.00000000000E+00 0.  1.
         22    1    4    4    0    0 -0.31703985171E+01 -0.15879549248E+02  0.11160217764E+02  0.19666264811E+02  0.00000000000E+00 0. -1.
         22    1    4    4    0    0 -0.26000073795E+01 -0.26539599118E+02  0.21703878345E+02  0.34382680159E+02  0.00000000000E+00 0. -1.
<mgrwt>
<rscale>  0 0.91911269E+02</rscale>
<asrwt>0</asrwt>
<pdfrwt beam="1">  1        3 0.20886443E-01 0.91911269E+02</pdfrwt>
<pdfrwt beam="2">  1       -3 0.23932405E-02 0.91911269E+02</pdfrwt>
<totfact> 0.30554177E+04</totfact>
</mgrwt>
</event>
<event>
 7    1  0.1312339E-009  0.9347501E+02  0.7818608E-02  0.1294648E+00
         -3   -1    0    0    0  501 -0.00000000000E+00  0.00000000000E+00  0.13737090693E+03  0.13737094406E+03  0.10100000000E+00 0.  1.
          3   -1    0    0  501    0  0.00000000000E+00 -0.00000000000E+00 -0.15901233816E+02  0.15901554574E+02  0.10100000000E+00 0. -1.
         23    2    1    2    0    0 -0.35527136788E-14  0.00000000000E+00  0.12146967311E+03  0.15327249863E+03  0.93475009232E+02 0.  0.
    9000005    2    3    3    0    0 -0.31181991102E+02  0.60606504895E+00  0.45331188564E+01  0.32248362175E+02  0.68354818733E+01 0.  0.
         22    1    3    3    0    0  0.31181991102E+02 -0.60606504895E+00  0.11693655426E+03  0.12102413646E+03  0.00000000000E+00 0.  1.
         22    1    4    4    0    0 -0.20578709517E+02 -0.56888730328E+00 -0.17536840515E+00  0.20587318237E+02  0.00000000000E+00 0.  1.
         22    1    4    4    0    0 -0.10603281586E+02  0.11749523522E+01  0.47084872615E+01  0.11661043937E+02  0.00000000000E+00 0.  1.
<mgrwt>
<rscale>  0 0.93475009E+02</rscale>
<asrwt>0</asrwt>
<pdfrwt beam="2">  1        3 0.24463712E-02 0.93475009E+02</pdfrwt>
<pdfrwt beam="1">  1       -3 0.21134013E-01 0.93475009E+02</pdfrwt>
<totfact> 0.29075685E+04</totfact>
</mgrwt>
</event>
<event>
 7    1  0.1312339E-009  0.1060985E+03  0.7818608E-02  0.1267970E+00
         -3   -1    0    0    0  501 -0.00000000000E+00  0.00000000000E+00  0.14085444840E+02  0.14085806946E+02  0.10100000000E+00 0.  1.
          3   -1    0    0  501    0  0.00000000000E+00 -0.00000000000E+00 -0.19979370277E+03  0.19979372830E+03  0.10100000000E+00 0. -1.
         23    2    1    2    0    0 -0.35527136788E-14  0.00000000000E+00 -0.18570825793E+03  0.21387953524E+03  0.10609853219E+03 0.  0.
    9000005    2    3    3    0    0  0.29207749977E+02  0.42957562250E+02 -0.10244605992E+03  0.11574168102E+03  0.14230134241E+02 0.  0.
         22    1    3    3    0    0 -0.29207749977E+02 -0.42957562250E+02 -0.83262198014E+02  0.98137854222E+02  0.00000000000E+00 0. -1.
         22    1    4    4    0    0  0.16731868168E+01  0.20007142010E+00 -0.41014854735E+00  0.17343023174E+01  0.00000000000E+00 0. -1.
         22    1    4    4    0    0  0.27534563160E+02  0.42757490830E+02 -0.10203591137E+03  0.11400737870E+03  0.00000000000E+00 0. -1.
<mgrwt>
<rscale>  0 0.10609853E+03</rscale>
<asrwt>0</asrwt>
<pdfrwt beam="2">  1        3 0.30737520E-01 0.10609853E+03</pdfrwt>
<pdfrwt beam="1">  1       -3 0.21670215E-02 0.10609853E+03</pdfrwt>
<totfact> 0.18401217E+04</totfact>
</mgrwt>
</event>
<event>
 7    1  0.1312339E-009  0.9552647E+02  0.7818608E-02  0.1289995E+00
         -3   -1    0    0    0  501 -0.00000000000E+00  0.00000000000E+00  0.32768233572E+02  0.32768389226E+02  0.10100000000E+00 0.  1.
          3   -1    0    0  501    0  0.00000000000E+00 -0.00000000000E+00 -0.69619715625E+02  0.69619788888E+02  0.10100000000E+00 0. -1.
         23    2    1    2    0    0 -0.71054273576E-14  0.35527136788E-14 -0.36851482053E+02  0.10238817811E+03  0.95526474277E+02 0.  0.
    9000005    2    3    3    0    0 -0.35226358703E+02  0.27194511382E+02 -0.35145100577E+01  0.46784297865E+02  0.13999319591E+02 0.  0.
         22    1    3    3    0    0  0.35226358703E+02 -0.27194511382E+02 -0.33336971996E+02  0.55603880248E+02  0.00000000000E+00 0. -1.
         22    1    4    4    0    0 -0.11504186131E+02  0.10180443843E+02 -0.78830325544E+01  0.17266439634E+02  0.00000000000E+00 0. -1.
         22    1    4    4    0    0 -0.23722172572E+02  0.17014067538E+02  0.43685224967E+01  0.29517858231E+02  0.00000000000E+00 0. -1.
<mgrwt>
<rscale>  0 0.95526474E+02</rscale>
<asrwt>0</asrwt>
<pdfrwt beam="2">  1        3 0.10710743E-01 0.95526474E+02</pdfrwt>
<pdfrwt beam="1">  1       -3 0.50412843E-02 0.95526474E+02</pdfrwt>
<totfact> 0.30370252E+04</totfact>
</mgrwt>
</event>
<event>
 7    1  0.1312339E-009  0.9156840E+02  0.7818608E-02  0.1299097E+00
         -3   -1    0    0    0  501 -0.00000000000E+00  0.00000000000E+00  0.29246029494E+02  0.29246203894E+02  0.10100000000E+00 0.  1.
          3   -1    0    0  501    0  0.00000000000E+00 -0.00000000000E+00 -0.71674016160E+02  0.71674087322E+02  0.10100000000E+00 0. -1.
         23    2    1    2    0    0  0.00000000000E+00  0.00000000000E+00 -0.42427986665E+02  0.10092029122E+03  0.91568395894E+02 0.  0.
    9000005    2    3    3    0    0 -0.19833468573E+02 -0.30360776323E+02  0.84500007855E+01  0.38440591940E+02  0.95463805113E+01 0.  0.
         22    1    3    3    0    0  0.19833468573E+02  0.30360776323E+02 -0.50877987451E+02  0.62479699276E+02  0.00000000000E+00 0. -1.
         22    1    4    4    0    0 -0.96061659417E+01 -0.17897423306E+02  0.16311977425E+00  0.20313118745E+02  0.00000000000E+00 0. -1.
         22    1    4    4    0    0 -0.10227302632E+02 -0.12463353016E+02  0.82868810112E+01  0.18127473195E+02  0.00000000000E+00 0. -1.
<mgrwt>
<rscale>  0 0.91568396E+02</rscale>
<asrwt>0</asrwt>
<pdfrwt beam="2">  1        3 0.11026791E-01 0.91568396E+02</pdfrwt>
<pdfrwt beam="1">  1       -3 0.44994081E-02 0.91568396E+02</pdfrwt>
<totfact> 0.34200944E+04</totfact>
</mgrwt>
</event>
<event>
 7    1  0.1312339E-009  0.9440414E+02  0.7818608E-02  0.1292524E+00
          3   -1    0    0  501    0  0.00000000000E+00  0.00000000000E+00  0.12506754467E+03  0.12506758545E+03  0.10100000000E+00 0. -1.
         -3   -1    0    0    0  501 -0.00000000000E+00 -0.00000000000E+00 -0.17814471428E+02  0.17814757737E+02  0.10100000000E+00 0.  1.
         23    2    1    2    0    0  0.00000000000E+00  0.00000000000E+00  0.10725307324E+03  0.14288234319E+03  0.94404143317E+02 0.  0.
    9000005    2    3    3    0    0 -0.39488269774E+02 -0.21328980724E+02  0.39893474717E+02  0.61940608701E+02  0.15195420784E+02 0.  0.
         22    1    3    3    0    0  0.39488269774E+02  0.21328980724E+02  0.67359598525E+02  0.80941734488E+02  0.00000000000E+00 0. -1.
         22    1    4    4    0    0 -0.15841930951E+02 -0.16827010013E+02  0.22393269132E+02  0.32180328536E+02  0.00000000000E+00 0. -1.
         22    1    4    4    0    0 -0.23646338823E+02 -0.45019707105E+01  0.17500205585E+02  0.29760280166E+02  0.00000000000E+00 0. -1.
<mgrwt>
<rscale>  0 0.94404143E+02</rscale>
<asrwt>0</asrwt>
<pdfrwt beam="1">  1        3 0.19241186E-01 0.94404143E+02</pdfrwt>
<pdfrwt beam="2">  1       -3 0.27407131E-02 0.94404143E+02</pdfrwt>
<totfact> 0.28883119E+04</totfact>
</mgrwt>
</event>
<event>
 7    1  0.1312339E-009  0.9170437E+02  0.7818608E-02  0.1298776E+00
          3   -1    0    0  501    0  0.00000000000E+00  0.00000000000E+00  0.81328411652E+02  0.81328474367E+02  0.10100000000E+00 0. -1.
         -3   -1    0    0    0  501 -0.00000000000E+00 -0.00000000000E+00 -0.25850853007E+02  0.25851050311E+02  0.10100000000E+00 0.  1.
         23    2    1    2    0    0  0.00000000000E+00 -0.71054273576E-14  0.55477558645E+02  0.10717952468E+03  0.91704367383E+02 0.  0.
    9000005    2    3    3    0    0  0.56742887530E+01  0.44420949998E+02  0.33168462993E+02  0.57148393365E+02  0.12663868893E+02 0.  0.
         22    1    3    3    0    0 -0.56742887530E+01 -0.44420949998E+02  0.22309095652E+02  0.50031131313E+02  0.00000000000E+00 0. -1.
         22    1    4    4    0    0 -0.15265331701E+01  0.53467611214E+01  0.27508393001E+00  0.55672101790E+01  0.00000000000E+00 0.  1.
         22    1    4    4    0    0  0.72008219230E+01  0.39074188877E+02  0.32893379063E+02  0.51581183186E+02  0.00000000000E+00 0.  1.
<mgrwt>
<rscale>  0 0.91704367E+02</rscale>
<asrwt>0</asrwt>
<pdfrwt beam="1">  1        3 0.12512083E-01 0.91704367E+02</pdfrwt>
<pdfrwt beam="2">  1       -3 0.39770743E-02 0.91704367E+02</pdfrwt>
<totfact> 0.33614201E+04</totfact>
</mgrwt>
</event>
<event>
 7    1  0.1312339E-009  0.9227947E+02  0.7818608E-02  0.1297424E+00
         -3   -1    0    0    0  501 -0.00000000000E+00  0.00000000000E+00  0.18049206955E+03  0.18049209781E+03  0.10100000000E+00 0.  1.
          3   -1    0    0  501    0  0.00000000000E+00 -0.00000000000E+00 -0.11794595737E+02  0.11795028173E+02  0.10100000000E+00 0. -1.
         23    2    1    2    0    0  0.00000000000E+00 -0.88817841970E-15  0.16869747382E+03  0.19228712599E+03  0.92279473058E+02 0.  0.
    9000005    2    3    3    0    0  0.44867707197E+02 -0.76962497622E+01  0.72823092822E+02  0.86154000429E+02  0.68531403197E+01 0.  0.
         22    1    3    3    0    0 -0.44867707197E+02  0.76962497622E+01  0.95874380994E+02  0.10613312556E+03  0.00000000000E+00 0.  1.
         22    1    4    4    0    0  0.23401384606E+02 -0.74825884842E+01  0.38894179632E+02  0.46004033966E+02  0.00000000000E+00 0.  1.
         22    1    4    4    0    0  0.21466322591E+02 -0.21366127799E+00  0.33928913190E+02  0.40149966463E+02  0.00000000000E+00 0.  1.
<mgrwt>
<rscale>  0 0.92279473E+02</rscale>
<asrwt>0</asrwt>
<pdfrwt beam="2">  1        3 0.18145887E-02 0.92279473E+02</pdfrwt>
<pdfrwt beam="1">  1       -3 0.27768045E-01 0.92279473E+02</pdfrwt>
<totfact> 0.27976780E+04</totfact>
</mgrwt>
</event>
<event>
 7    1  0.1312339E-009  0.1043544E+03  0.7818608E-02  0.1271397E+00
         -3   -1    0    0    0  501 -0.00000000000E+00  0.00000000000E+00  0.32229756360E+03  0.32229757942E+03  0.10100000000E+00 0.  1.
          3   -1    0    0  501    0  0.00000000000E+00 -0.00000000000E+00 -0.84467201930E+01  0.84473240153E+01  0.10100000000E+00 0. -1.
         23    2    1    2    0    0 -0.17763568394E-14  0.71054273576E-14  0.31385084341E+03  0.33074490344E+03  0.10435439255E+03 0.  0.
    9000005    2    3    3    0    0  0.13556678153E+02  0.46427368693E+02  0.10669660001E+03  0.11801934164E+03  0.14321887480E+02 0.  0.
         22    1    3    3    0    0 -0.13556678153E+02 -0.46427368693E+02  0.20715424339E+03  0.21272556180E+03  0.00000000000E+00 0.  1.
         22    1    4    4    0    0  0.11533211030E+01  0.60903705735E+00  0.12211965326E+02  0.12281415750E+02  0.00000000000E+00 0.  1.
         22    1    4    4    0    0  0.12403357050E+02  0.45818331636E+02  0.94484634686E+02  0.10573792589E+03  0.00000000000E+00 0.  1.
<mgrwt>
<rscale>  0 0.10435439E+03</rscale>
<asrwt>0</asrwt>
<pdfrwt beam="2">  1        3 0.12995429E-02 0.10435439E+03</pdfrwt>
<pdfrwt beam="1">  1       -3 0.49584294E-01 0.10435439E+03</pdfrwt>
<totfact> 0.15883017E+04</totfact>
</mgrwt>
</event>
<event>
 7    1  0.1312339E-009  0.1038860E+03  0.7818608E-02  0.1272330E+00
         -3   -1    0    0    0  501 -0.00000000000E+00  0.00000000000E+00  0.23363273747E+03  0.23363275930E+03  0.10100000000E+00 0.  1.
          3   -1    0    0  501    0  0.00000000000E+00 -0.00000000000E+00 -0.11548110364E+02  0.11548552029E+02  0.10100000000E+00 0. -1.
         23    2    1    2    0    0  0.17763568394E-14  0.00000000000E+00  0.22208462710E+03  0.24518131133E+03  0.10388596550E+03 0.  0.
    9000005    2    3    3    0    0  0.10040220032E+02  0.27865528059E+02  0.21173491182E+03  0.21380599812E+03  0.20095465433E+01 0.  0.
         22    1    3    3    0    0 -0.10040220032E+02 -0.27865528059E+02  0.10349715284E+02  0.31375313206E+02  0.00000000000E+00 0. -1.
         22    1    4    4    0    0  0.67138138708E+01  0.19151486763E+02  0.15149413965E+03  0.15284740459E+03  0.00000000000E+00 0. -1.
         22    1    4    4    0    0  0.33264061610E+01  0.87140412961E+01  0.60240772166E+02  0.60958593527E+02  0.00000000000E+00 0. -1.
<mgrwt>
<rscale>  0 0.10388597E+03</rscale>
<asrwt>0</asrwt>
<pdfrwt beam="2">  1        3 0.17766680E-02 0.10388597E+03</pdfrwt>
<pdfrwt beam="1">  1       -3 0.35943534E-01 0.10388597E+03</pdfrwt>
<totfact> 0.18468011E+04</totfact>
</mgrwt>
</event>
<event>
 7    1  0.1312339E-009  0.9101742E+02  0.7818608E-02  0.1300406E+00
         -3   -1    0    0    0  501 -0.00000000000E+00  0.00000000000E+00  0.10890488235E+02  0.10890956570E+02  0.10100000000E+00 0.  1.
          3   -1    0    0  501    0  0.00000000000E+00 -0.00000000000E+00 -0.19016528227E+03  0.19016530909E+03  0.10100000000E+00 0. -1.
         23    2    1    2    0    0 -0.22204460493E-15  0.00000000000E+00 -0.17927479404E+03  0.20105626566E+03  0.91017416936E+02 0.  0.
    9000005    2    3    3    0    0 -0.48598047672E+00  0.10058367737E+02 -0.18750290844E+03  0.18805208152E+03  0.10239030868E+02 0.  0.
         22    1    3    3    0    0  0.48598047672E+00 -0.10058367737E+02  0.82281144024E+01  0.13004184141E+02  0.00000000000E+00 0.  1.
         22    1    4    4    0    0 -0.50562113652E+01  0.50023283329E+01 -0.11854724321E+03  0.11876042032E+03  0.00000000000E+00 0.  1.
         22    1    4    4    0    0  0.45702308885E+01  0.50560394044E+01 -0.68955665232E+02  0.69291661204E+02  0.00000000000E+00 0.  1.
<mgrwt>
<rscale>  0 0.91017417E+02</rscale>
<asrwt>0</asrwt>
<pdfrwt beam="2">  1        3 0.29256233E-01 0.91017417E+02</pdfrwt>
<pdfrwt beam="1">  1       -3 0.16754980E-02 0.91017417E+02</pdfrwt>
<totfact> 0.28578791E+04</totfact>
</mgrwt>
</event>
<event>
 7    1  0.1312339E-009  0.9135728E+02  0.7818608E-02  0.1299598E+00
         -3   -1    0    0    0  501 -0.00000000000E+00  0.00000000000E+00  0.26252113760E+03  0.26252115703E+03  0.10100000000E+00 0.  1.
          3   -1    0    0  501    0  0.00000000000E+00 -0.00000000000E+00 -0.79477363097E+01  0.79483780389E+01  0.10100000000E+00 0. -1.
         23    2    1    2    0    0  0.00000000000E+00  0.00000000000E+00  0.25457340129E+03  0.27046953507E+03  0.91357280801E+02 0.  0.
    9000005    2    3    3    0    0  0.38944325431E+02  0.13233153370E+02  0.69640016638E+02  0.81017341651E+02  0.47223828154E+01 0.  0.
         22    1    3    3    0    0 -0.38944325431E+02 -0.13233153370E+02  0.18493338465E+03  0.18945219342E+03  0.00000000000E+00 0.  1.
         22    1    4    4    0    0  0.80753388868E+01  0.27373811500E+01  0.18460660008E+02  0.20334707316E+02  0.00000000000E+00 0.  1.
         22    1    4    4    0    0  0.30868986545E+02  0.10495772220E+02  0.51179356629E+02  0.60682634334E+02  0.00000000000E+00 0.  1.
<mgrwt>
<rscale>  0 0.91357281E+02</rscale>
<asrwt>0</asrwt>
<pdfrwt beam="2">  1        3 0.12227793E-02 0.91357281E+02</pdfrwt>
<pdfrwt beam="1">  1       -3 0.40387925E-01 0.91357281E+02</pdfrwt>
<totfact> 0.25081094E+04</totfact>
</mgrwt>
</event>
<event>
 6    1  0.1312339E-009  0.5082217E+02  0.7818608E-02  0.1440957E+00
         -3   -1    0    0    0  501 -0.00000000000E+00  0.00000000000E+00  0.31863754790E+02  0.31863914861E+02  0.10100000000E+00 0.  1.
          3   -1    0    0  501    0  0.00000000000E+00 -0.00000000000E+00 -0.20264793486E+02  0.20265045177E+02  0.10100000000E+00 0. -1.
    9000005    2    1    2    0    0  0.61188879566E+01 -0.18220734862E+02  0.21624870044E+02  0.30450518794E+02  0.94954263583E+01 0.  0.
         22    1    1    2    0    0 -0.61188879566E+01  0.18220734862E+02 -0.10025908740E+02  0.21678441244E+02  0.00000000000E+00 0. -1.
         22    1    3    3    0    0 -0.30291862251E+00 -0.11386982115E+01 -0.88411807457E+00  0.14731116993E+01  0.00000000000E+00 0. -1.
         22    1    3    3    0    0  0.64218065791E+01 -0.17082036650E+02  0.22508988118E+02  0.28977407095E+02  0.00000000000E+00 0. -1.
<mgrwt>
<rscale>  0 0.50822166E+02</rscale>
<asrwt>0</asrwt>
<pdfrwt beam="2">  1        3 0.31176922E-02 0.50822166E+02</pdfrwt>
<pdfrwt beam="1">  1       -3 0.49021478E-02 0.50822166E+02</pdfrwt>
<totfact> 0.18038659E+05</totfact>
</mgrwt>
</event>
<event>
 7    1  0.1312339E-009  0.9245633E+02  0.7818608E-02  0.1297010E+00
         -3   -1    0    0    0  501 -0.00000000000E+00  0.00000000000E+00  0.47338498360E+03  0.47338499437E+03  0.10100000000E+00 0.  1.
          3   -1    0    0  501    0  0.00000000000E+00 -0.00000000000E+00 -0.45138121771E+01  0.45149420118E+01  0.10100000000E+00 0. -1.
         23    2    1    2    0    0  0.17763568394E-14  0.00000000000E+00  0.46887117142E+03  0.47789993638E+03  0.92456334594E+02 0.  0.
    9000005    2    3    3    0    0 -0.90130908147E+01  0.19151621466E+02  0.44667867872E+03  0.44723192140E+03  0.68212231154E+01 0.  0.
         22    1    3    3    0    0  0.90130908147E+01 -0.19151621466E+02  0.22192492700E+02  0.30668014984E+02  0.00000000000E+00 0. -1.
         22    1    4    4    0    0 -0.30543627657E+01  0.42531931188E+01  0.17613927493E+03  0.17621709042E+03  0.00000000000E+00 0. -1.
         22    1    4    4    0    0 -0.59587280490E+01  0.14898428348E+02  0.27053940379E+03  0.27101483098E+03  0.00000000000E+00 0. -1.
<mgrwt>
<rscale>  0 0.92456335E+02</rscale>
<asrwt>0</asrwt>
<pdfrwt beam="2">  1        3 0.69452070E-03 0.92456335E+02</pdfrwt>
<pdfrwt beam="1">  1       -3 0.72828514E-01 0.92456335E+02</pdfrwt>
<totfact> 0.17765232E+04</totfact>
</mgrwt>
</event>
<event>
 7    1  0.1312339E-009  0.9453957E+02  0.7818608E-02  0.1292216E+00
         -3   -1    0    0    0  501 -0.00000000000E+00  0.00000000000E+00  0.82833053448E+01  0.82839210785E+01  0.10100000000E+00 0.  1.
          3   -1    0    0  501    0  0.00000000000E+00 -0.00000000000E+00 -0.26974069454E+03  0.26974071345E+03  0.10100000000E+00 0. -1.
         23    2    1    2    0    0  0.00000000000E+00  0.00000000000E+00 -0.26145738919E+03  0.27802463452E+03  0.94539573932E+02 0.  0.
    9000005    2    3    3    0    0 -0.35693452733E+02 -0.27960902055E+02 -0.16186668009E+03  0.16859820284E+03  0.12988351153E+02 0.  0.
         22    1    3    3    0    0  0.35693452733E+02  0.27960902055E+02 -0.99590709106E+02  0.10942643169E+03  0.00000000000E+00 0. -1.
         22    1    4    4    0    0 -0.11159352627E+01 -0.41153449198E+01 -0.27230908155E+02  0.27562723637E+02  0.00000000000E+00 0.  1.
         22    1    4    4    0    0 -0.34577517471E+02 -0.23845557136E+02 -0.13463577193E+03  0.14103547920E+03  0.00000000000E+00 0.  1.
<mgrwt>
<rscale>  0 0.94539574E+02</rscale>
<asrwt>0</asrwt>
<pdfrwt beam="2">  1        3 0.41498610E-01 0.94539574E+02</pdfrwt>
<pdfrwt beam="1">  1       -3 0.12744037E-02 0.94539574E+02</pdfrwt>
<totfact> 0.22590546E+04</totfact>
</mgrwt>
</event>
<event>
 7    1  0.1312339E-009  0.8934750E+02  0.7818608E-02  0.1304440E+00
         -3   -1    0    0    0  501 -0.00000000000E+00  0.00000000000E+00  0.35543072753E+02  0.35543216255E+02  0.10100000000E+00 0.  1.
          3   -1    0    0  501    0  0.00000000000E+00 -0.00000000000E+00 -0.56149708341E+02  0.56149799179E+02  0.10100000000E+00 0. -1.
         23    2    1    2    0    0  0.00000000000E+00  0.71054273576E-14 -0.20606635588E+02  0.91693015434E+02  0.89347499400E+02 0.  0.
    9000005    2    3    3    0    0 -0.74067431479E+01 -0.40766300978E+02  0.20740616900E+01  0.44457804325E+02  0.15982599728E+02 0.  0.
         22    1    3    3    0    0  0.74067431479E+01  0.40766300978E+02 -0.22680697278E+02  0.47235211109E+02  0.00000000000E+00 0. -1.
         22    1    4    4    0    0 -0.12184635354E+02 -0.33255334444E+02  0.27914394323E+01  0.35527098696E+02  0.00000000000E+00 0.  1.
         22    1    4    4    0    0  0.47778922060E+01 -0.75109665338E+01 -0.71737774232E+00  0.89307056289E+01  0.00000000000E+00 0.  1.
<mgrwt>
<rscale>  0 0.89347499E+02</rscale>
<asrwt>0</asrwt>
<pdfrwt beam="2">  1        3 0.86384347E-02 0.89347499E+02</pdfrwt>
<pdfrwt beam="1">  1       -3 0.54681830E-02 0.89347499E+02</pdfrwt>
<totfact> 0.37297436E+04</totfact>
</mgrwt>
</event>
<event>
 7    1  0.1312339E-009  0.1004198E+03  0.7818608E-02  0.1279416E+00
          3   -1    0    0  501    0  0.00000000000E+00  0.00000000000E+00  0.16239293364E+03  0.16239296505E+03  0.10100000000E+00 0. -1.
         -3   -1    0    0    0  501 -0.00000000000E+00 -0.00000000000E+00 -0.15524094573E+02  0.15524423123E+02  0.10100000000E+00 0.  1.
         23    2    1    2    0    0  0.00000000000E+00  0.00000000000E+00  0.14686883906E+03  0.17791738817E+03  0.10041982436E+03 0.  0.
    9000005    2    3    3    0    0 -0.38502192463E+02  0.24421519297E+02  0.36390650614E+02  0.58400612976E+02  0.27427567523E+01 0.  0.
         22    1    3    3    0    0  0.38502192463E+02 -0.24421519297E+02  0.11047818845E+03  0.11951677519E+03  0.00000000000E+00 0. -1.
         22    1    4    4    0    0 -0.36522448597E+01  0.29800304411E+01  0.45793441165E+01  0.65718997620E+01  0.00000000000E+00 0. -1.
         22    1    4    4    0    0 -0.34849947604E+02  0.21441488855E+02  0.31811306497E+02  0.51828713214E+02  0.00000000000E+00 0. -1.
<mgrwt>
<rscale>  0 0.10041982E+03</rscale>
<asrwt>0</asrwt>
<pdfrwt beam="1">  1        3 0.24983557E-01 0.10041982E+03</pdfrwt>
<pdfrwt beam="2">  1       -3 0.23883498E-02 0.10041982E+03</pdfrwt>
<totfact> 0.22824380E+04</totfact>
</mgrwt>
</event>
<event>
 7    1  0.1312339E-009  0.9065207E+02  0.7818608E-02  0.1301280E+00
         -3   -1    0    0    0  501 -0.00000000000E+00  0.00000000000E+00  0.11793763418E+03  0.11793767743E+03  0.10100000000E+00 0.  1.
          3   -1    0    0  501    0  0.00000000000E+00 -0.00000000000E+00 -0.17419603893E+02  0.17419896693E+02  0.10100000000E+00 0. -1.
         23    2    1    2    0    0  0.00000000000E+00  0.00000000000E+00  0.10051803029E+03  0.13535757412E+03  0.90652073660E+02 0.  0.
    9000005    2    3    3    0    0  0.22404634641E+02  0.38460798227E+02  0.48637083194E+02  0.66999448598E+02  0.11923069957E+02 0.  0.
         22    1    3    3    0    0 -0.22404634641E+02 -0.38460798227E+02  0.51880947092E+02  0.68358125521E+02  0.00000000000E+00 0.  1.
         22    1    4    4    0    0  0.23868487328E+02  0.35646040697E+02  0.45597527508E+02  0.62605745898E+02  0.00000000000E+00 0. -1.
         22    1    4    4    0    0 -0.14638526873E+01  0.28147575300E+01  0.30395556862E+01  0.43937026995E+01  0.00000000000E+00 0. -1.
<mgrwt>
<rscale>  0 0.90652074E+02</rscale>
<asrwt>0</asrwt>
<pdfrwt beam="2">  1        3 0.26799650E-02 0.90652074E+02</pdfrwt>
<pdfrwt beam="1">  1       -3 0.18144277E-01 0.90652074E+02</pdfrwt>
<totfact> 0.32736269E+04</totfact>
</mgrwt>
</event>
<event>
 7    1  0.1312339E-009  0.9100241E+02  0.7818608E-02  0.1300442E+00
          3   -1    0    0  501    0  0.00000000000E+00  0.00000000000E+00  0.10519167362E+02  0.10519652227E+02  0.10100000000E+00 0. -1.
         -3   -1    0    0    0  501 -0.00000000000E+00 -0.00000000000E+00 -0.19681279876E+03  0.19681282468E+03  0.10100000000E+00 0.  1.
         23    2    1    2    0    0  0.00000000000E+00 -0.35527136788E-14 -0.18629363140E+03  0.20733247691E+03  0.91002411393E+02 0.  0.
    9000005    2    3    3    0    0 -0.68131302500E+01 -0.28570389114E+02 -0.17227393149E+03  0.17478654224E+03  0.30564680567E+01 0.  0.
         22    1    3    3    0    0  0.68131302500E+01  0.28570389114E+02 -0.14019699906E+02  0.32545934667E+02  0.00000000000E+00 0. -1.
         22    1    4    4    0    0 -0.20424147423E+01 -0.46205683984E+01 -0.33881276851E+02  0.34255832078E+02  0.00000000000E+00 0. -1.
         22    1    4    4    0    0 -0.47707155077E+01 -0.23949820715E+02 -0.13839265464E+03  0.14053071016E+03  0.00000000000E+00 0. -1.
<mgrwt>
<rscale>  0 0.91002411E+02</rscale>
<asrwt>0</asrwt>
<pdfrwt beam="1">  1        3 0.16183729E-02 0.91002411E+02</pdfrwt>
<pdfrwt beam="2">  1       -3 0.30278929E-01 0.91002411E+02</pdfrwt>
<totfact> 0.28267929E+04</totfact>
</mgrwt>
</event>
<event>
 7    1  0.1312339E-009  0.9199902E+02  0.7818608E-02  0.1298082E+00
          3   -1    0    0  501    0  0.00000000000E+00  0.00000000000E+00  0.69183292494E+01  0.69190664546E+01  0.10100000000E+00 0. -1.
         -3   -1    0    0    0  501 -0.00000000000E+00 -0.00000000000E+00 -0.30583064116E+03  0.30583065784E+03  0.10100000000E+00 0.  1.
         23    2    1    2    0    0  0.00000000000E+00  0.71054273576E-14 -0.29891231191E+03  0.31274972430E+03  0.91999020827E+02 0.  0.
    9000005    2    3    3    0    0  0.37222234768E+01  0.42613409069E+02 -0.20509253600E+03  0.20963858070E+03  0.74584594170E+01 0.  0.
         22    1    3    3    0    0 -0.37222234768E+01 -0.42613409069E+02 -0.93819775914E+02  0.10311114359E+03  0.00000000000E+00 0. -1.
         22    1    4    4    0    0  0.30391488802E+01  0.53623715908E+01 -0.29055906162E+02  0.29702476966E+02  0.00000000000E+00 0.  1.
         22    1    4    4    0    0  0.68307459663E+00  0.37251037478E+02 -0.17603662984E+03  0.17993610374E+03  0.00000000000E+00 0.  1.
<mgrwt>
<rscale>  0 0.91999021E+02</rscale>
<asrwt>0</asrwt>
<pdfrwt beam="1">  1        3 0.10644166E-02 0.91999021E+02</pdfrwt>
<pdfrwt beam="2">  1       -3 0.47050915E-01 0.91999021E+02</pdfrwt>
<totfact> 0.22976500E+04</totfact>
</mgrwt>
</event>
<event>
 7    1  0.1312339E-009  0.9182880E+02  0.7818608E-02  0.1298482E+00
         -3   -1    0    0    0  501 -0.00000000000E+00  0.00000000000E+00  0.17662652928E+03  0.17662655815E+03  0.10100000000E+00 0.  1.
          3   -1    0    0  501    0  0.00000000000E+00 -0.00000000000E+00 -0.11935290441E+02  0.11935717779E+02  0.10100000000E+00 0. -1.
         23    2    1    2    0    0  0.00000000000E+00  0.35527136788E-14  0.16469123883E+03  0.18856227593E+03  0.91828795897E+02 0.  0.
    9000005    2    3    3    0    0 -0.34488208659E+02  0.28224049429E+02  0.60597123566E+02  0.75329690798E+02  0.40641639501E+01 0.  0.
         22    1    3    3    0    0  0.34488208659E+02 -0.28224049429E+02  0.10409411527E+03  0.11323258513E+03  0.00000000000E+00 0. -1.
         22    1    4    4    0    0 -0.68371088233E+01  0.65730104561E+01  0.15495417596E+02  0.18167511937E+02  0.00000000000E+00 0.  1.
         22    1    4    4    0    0 -0.27651099836E+02  0.21651038973E+02  0.45101705970E+02  0.57162178861E+02  0.00000000000E+00 0.  1.
<mgrwt>
<rscale>  0 0.91828796E+02</rscale>
<asrwt>0</asrwt>
<pdfrwt beam="2">  1        3 0.18362338E-02 0.91828796E+02</pdfrwt>
<pdfrwt beam="1">  1       -3 0.27173345E-01 0.91828796E+02</pdfrwt>
<totfact> 0.28544815E+04</totfact>
</mgrwt>
</event>
<event>
 7    1  0.1312339E-009  0.9419351E+02  0.7818608E-02  0.1293003E+00
          3   -1    0    0  501    0  0.00000000000E+00  0.00000000000E+00  0.47758610114E+02  0.47758716911E+02  0.10100000000E+00 0. -1.
         -3   -1    0    0    0  501 -0.00000000000E+00 -0.00000000000E+00 -0.46443854347E+02  0.46443964168E+02  0.10100000000E+00 0.  1.
         23    2    1    2    0    0  0.00000000000E+00  0.00000000000E+00  0.13147557671E+01  0.94202681079E+02  0.94193505826E+02 0.  0.
    9000005    2    3    3    0    0 -0.35212055699E+02 -0.82158809845E+01  0.30630438055E+02  0.47653795003E+02  0.50270146079E+01 0.  0.
         22    1    3    3    0    0  0.35212055699E+02  0.82158809845E+01 -0.29315682288E+02  0.46548886076E+02  0.00000000000E+00 0.  1.
         22    1    4    4    0    0 -0.12968658589E+02 -0.19200991521E+01  0.13973322512E+02  0.19160548749E+02  0.00000000000E+00 0. -1.
         22    1    4    4    0    0 -0.22243397110E+02 -0.62957818323E+01  0.16657115544E+02  0.28493246254E+02  0.00000000000E+00 0. -1.
<mgrwt>
<rscale>  0 0.94193506E+02</rscale>
<asrwt>0</asrwt>
<pdfrwt beam="1">  1        3 0.73474951E-02 0.94193506E+02</pdfrwt>
<pdfrwt beam="2">  1       -3 0.71452250E-02 0.94193506E+02</pdfrwt>
<totfact> 0.32118560E+04</totfact>
</mgrwt>
</event>
<event>
 7    1  0.1312339E-009  0.9028625E+02  0.7818608E-02  0.1302160E+00
         -3   -1    0    0    0  501 -0.00000000000E+00  0.00000000000E+00  0.72042011327E+02  0.72042082126E+02  0.10100000000E+00 0.  1.
          3   -1    0    0  501    0  0.00000000000E+00 -0.00000000000E+00 -0.28287510543E+02  0.28287690852E+02  0.10100000000E+00 0. -1.
         23    2    1    2    0    0  0.71054273576E-14  0.00000000000E+00  0.43754500784E+02  0.10032977298E+03  0.90286250375E+02 0.  0.
    9000005    2    3    3    0    0 -0.36758629699E+02 -0.54462001161E+01 -0.50498675807E+01  0.38988723716E+02  0.10665901807E+02 0.  0.
         22    1    3    3    0    0  0.36758629699E+02  0.54462001161E+01  0.48804368365E+02  0.61341049262E+02  0.00000000000E+00 0.  1.
         22    1    4    4    0    0 -0.21919076973E+02 -0.79092678856E+01 -0.54873549315E+01  0.23939789430E+02  0.00000000000E+00 0.  1.
         22    1    4    4    0    0 -0.14839552726E+02  0.24630677695E+01  0.43748735079E+00  0.15048934285E+02  0.00000000000E+00 0.  1.
<mgrwt>
<rscale>  0 0.90286250E+02</rscale>
<asrwt>0</asrwt>
<pdfrwt beam="2">  1        3 0.43519440E-02 0.90286250E+02</pdfrwt>
<pdfrwt beam="1">  1       -3 0.11083406E-01 0.90286250E+02</pdfrwt>
<totfact> 0.35584527E+04</totfact>
</mgrwt>
</event>
<event>
 7    1  0.1312339E-009  0.9776024E+02  0.7818608E-02  0.1285078E+00
         -3   -1    0    0    0  501 -0.00000000000E+00  0.00000000000E+00  0.78522112342E+02  0.78522177298E+02  0.10100000000E+00 0.  1.
          3   -1    0    0  501    0  0.00000000000E+00 -0.00000000000E+00 -0.30427776522E+02  0.30427944148E+02  0.10100000000E+00 0. -1.
         23    2    1    2    0    0  0.00000000000E+00  0.00000000000E+00  0.48094335820E+02  0.10895012145E+03  0.97760236421E+02 0.  0.
    9000005    2    3    3    0    0  0.24695955044E+02 -0.17193013496E+02  0.66397177392E+02  0.73729617216E+02  0.11044518122E+02 0.  0.
         22    1    3    3    0    0 -0.24695955044E+02  0.17193013496E+02 -0.18302841572E+02  0.35220504230E+02  0.00000000000E+00 0.  1.
         22    1    4    4    0    0  0.21095044545E+02 -0.86909396169E+01  0.47898277021E+02  0.53054484045E+02  0.00000000000E+00 0.  1.
         22    1    4    4    0    0  0.36009104996E+01 -0.85020738792E+01  0.18498900371E+02  0.20675133171E+02  0.00000000000E+00 0.  1.
<mgrwt>
<rscale>  0 0.97760236E+02</rscale>
<asrwt>0</asrwt>
<pdfrwt beam="2">  1        3 0.46812143E-02 0.97760236E+02</pdfrwt>
<pdfrwt beam="1">  1       -3 0.12080343E-01 0.97760236E+02</pdfrwt>
<totfact> 0.28117143E+04</totfact>
</mgrwt>
</event>
<event>
 7    1  0.1312339E-009  0.8046056E+02  0.7818608E-02  0.1327750E+00
         -3   -1    0    0    0  501 -0.00000000000E+00  0.00000000000E+00  0.28789671101E+03  0.28789672873E+03  0.10100000000E+00 0.  1.
          3   -1    0    0  501    0  0.00000000000E+00 -0.00000000000E+00 -0.56212503150E+01  0.56221576022E+01  0.10100000000E+00 0. -1.
         23    2    1    2    0    0 -0.35527136788E-14  0.00000000000E+00  0.28227546070E+03  0.29351888633E+03  0.80460555064E+02 0.  0.
    9000005    2    3    3    0    0 -0.27448537744E+02  0.23739617100E+02  0.90588982156E+02  0.98427375239E+02  0.12829375050E+02 0.  0.
         22    1    3    3    0    0  0.27448537744E+02 -0.23739617100E+02  0.19168647854E+03  0.19509151109E+03  0.00000000000E+00 0.  1.
         22    1    4    4    0    0 -0.25324483355E+02  0.16336139713E+02  0.63911809651E+02  0.70660585412E+02  0.00000000000E+00 0. -1.
         22    1    4    4    0    0 -0.21240543890E+01  0.74034773868E+01  0.26677172505E+02  0.27766789827E+02  0.00000000000E+00 0. -1.
<mgrwt>
<rscale>  0 0.80460555E+02</rscale>
<asrwt>0</asrwt>
<pdfrwt beam="2">  1        3 0.86487864E-03 0.80460555E+02</pdfrwt>
<pdfrwt beam="1">  1       -3 0.44291886E-01 0.80460555E+02</pdfrwt>
<totfact> 0.33868230E+04</totfact>
</mgrwt>
</event>
<event>
 7    1  0.1312339E-009  0.8960865E+02  0.7818608E-02  0.1303802E+00
         -3   -1    0    0    0  501 -0.00000000000E+00  0.00000000000E+00  0.15574857046E+02  0.15575184525E+02  0.10100000000E+00 0.  1.
          3   -1    0    0  501    0  0.00000000000E+00 -0.00000000000E+00 -0.12888727110E+03  0.12888731067E+03  0.10100000000E+00 0. -1.
         23    2    1    2    0    0  0.00000000000E+00 -0.44408920985E-15 -0.11331241405E+03  0.14446249519E+03  0.89608645453E+02 0.  0.
    9000005    2    3    3    0    0 -0.39878335287E+02  0.37268133871E+01 -0.86694512886E+02  0.96372127908E+02  0.12941317929E+02 0.  0.
         22    1    3    3    0    0  0.39878335287E+02 -0.37268133871E+01 -0.26617901163E+02  0.48090367286E+02  0.00000000000E+00 0. -1.
         22    1    4    4    0    0 -0.30985257022E+02  0.20148189646E+01 -0.77394935382E+02  0.83391376479E+02  0.00000000000E+00 0. -1.
         22    1    4    4    0    0 -0.88930782651E+01  0.17119944225E+01 -0.92995775038E+01  0.12980751430E+02  0.00000000000E+00 0. -1.
<mgrwt>
<rscale>  0 0.89608645E+02</rscale>
<asrwt>0</asrwt>
<pdfrwt beam="2">  1        3 0.19828839E-01 0.89608645E+02</pdfrwt>
<pdfrwt beam="1">  1       -3 0.23961602E-02 0.89608645E+02</pdfrwt>
<totfact> 0.33168615E+04</totfact>
</mgrwt>
</event>
<event>
 7    1  0.1312339E-009  0.9188325E+02  0.7818608E-02  0.1298354E+00
          3   -1    0    0  501    0  0.00000000000E+00  0.00000000000E+00  0.10587686098E+02  0.10588167826E+02  0.10100000000E+00 0. -1.
         -3   -1    0    0    0  501 -0.00000000000E+00 -0.00000000000E+00 -0.19934286452E+03  0.19934289011E+03  0.10100000000E+00 0.  1.
         23    2    1    2    0    0  0.55511151231E-16  0.00000000000E+00 -0.18875517842E+03  0.20993105793E+03  0.91883250399E+02 0.  0.
    9000005    2    3    3    0    0 -0.30234955505E+00 -0.44149647767E+02 -0.12265696333E+03  0.13044359445E+03  0.46387353298E+01 0.  0.
         22    1    3    3    0    0  0.30234955505E+00  0.44149647767E+02 -0.66098215092E+02  0.79487463487E+02  0.00000000000E+00 0. -1.
         22    1    4    4    0    0  0.18822962653E+01 -0.31079157251E+02 -0.85067909799E+02  0.90587009732E+02  0.00000000000E+00 0.  1.
         22    1    4    4    0    0 -0.21846458203E+01 -0.13070490516E+02 -0.37589053532E+02  0.39856584715E+02  0.00000000000E+00 0.  1.
<mgrwt>
<rscale>  0 0.91883250E+02</rscale>
<asrwt>0</asrwt>
<pdfrwt beam="1">  1        3 0.16289140E-02 0.91883250E+02</pdfrwt>
<pdfrwt beam="2">  1       -3 0.30668169E-01 0.91883250E+02</pdfrwt>
<totfact> 0.27413758E+04</totfact>
</mgrwt>
</event>
<event>
 6    1  0.1548195E-009  0.1295205E+03  0.7818608E-02  0.1228169E+00
          3   -1    0    0  501    0  0.00000000000E+00  0.00000000000E+00  0.15189586652E+02  0.15189922438E+02  0.10100000000E+00 0. -1.
         -3   -1    0    0    0  501 -0.00000000000E+00 -0.00000000000E+00 -0.27609952236E+03  0.27609954083E+03  0.10100000000E+00 0.  1.
    9000005    2    1    2    0    0  0.31296175382E+01 -0.42282428961E+02 -0.22735872989E+02  0.49371124867E+02  0.11090074177E+02 0.  0.
         22    1    1    2    0    0 -0.31296175382E+01  0.42282428961E+02 -0.23817406272E+03  0.24191833841E+03  0.00000000000E+00 0.  1.
         22    1    3    3    0    0 -0.31256664802E+01 -0.18320575095E+02 -0.13368289736E+02  0.22893764069E+02  0.00000000000E+00 0.  1.
         22    1    3    3    0    0  0.62552840184E+01 -0.23961853865E+02 -0.93675832533E+01  0.26477360798E+02  0.00000000000E+00 0.  1.
<mgrwt>
<rscale>  0 0.12952049E+03</rscale>
<asrwt>0</asrwt>
<pdfrwt beam="1">  1        3 0.23368869E-02 0.12952049E+03</pdfrwt>
<pdfrwt beam="2">  1       -3 0.42476873E-01 0.12952049E+03</pdfrwt>
<totfact> 0.93035152E+03</totfact>
</mgrwt>
</event>
<event>
 7    1  0.1312339E-009  0.8747258E+02  0.7818608E-02  0.1309090E+00
         -3   -1    0    0    0  501 -0.00000000000E+00  0.00000000000E+00  0.60261261668E+02  0.60261346308E+02  0.10100000000E+00 0.  1.
          3   -1    0    0  501    0  0.00000000000E+00 -0.00000000000E+00 -0.31742644792E+02  0.31742805475E+02  0.10100000000E+00 0. -1.
         23    2    1    2    0    0 -0.35527136788E-14  0.35527136788E-14  0.28518616876E+02  0.92004151783E+02  0.87472581057E+02 0.  0.
    9000005    2    3    3    0    0 -0.21122546987E+02  0.22215343190E+02 -0.17110093780E+02  0.37034499243E+02  0.11794717494E+02 0.  0.
         22    1    3    3    0    0  0.21122546987E+02 -0.22215343190E+02  0.45628710656E+02  0.54969652540E+02  0.00000000000E+00 0.  1.
         22    1    4    4    0    0  0.85409600217E+00  0.25579331901E+01  0.42346261917E+00  0.27298026990E+01  0.00000000000E+00 0.  1.
         22    1    4    4    0    0 -0.21976642989E+02  0.19657409999E+02 -0.17533556399E+02  0.34304696544E+02  0.00000000000E+00 0.  1.
<mgrwt>
<rscale>  0 0.87472581E+02</rscale>
<asrwt>0</asrwt>
<pdfrwt beam="2">  1        3 0.48835027E-02 0.87472581E+02</pdfrwt>
<pdfrwt beam="1">  1       -3 0.92709822E-02 0.87472581E+02</pdfrwt>
<totfact> 0.39478045E+04</totfact>
</mgrwt>
</event>
<event>
 7    1  0.1312339E-009  0.8935260E+02  0.7818608E-02  0.1304427E+00
         -3   -1    0    0    0  501 -0.00000000000E+00  0.00000000000E+00  0.42265918325E+02  0.42266039001E+02  0.10100000000E+00 0.  1.
          3   -1    0    0  501    0  0.00000000000E+00 -0.00000000000E+00 -0.47223905247E+02  0.47224013254E+02  0.10100000000E+00 0. -1.
         23    2    1    2    0    0 -0.35527136788E-14  0.00000000000E+00 -0.49579869222E+01  0.89490052255E+02  0.89352603870E+02 0.  0.
    9000005    2    3    3    0    0  0.21476703697E+02 -0.30263795813E+02 -0.25165281885E+02  0.47235100967E+02  0.14856554522E+02 0.  0.
         22    1    3    3    0    0 -0.21476703697E+02  0.30263795813E+02  0.20207294963E+02  0.42254951289E+02  0.00000000000E+00 0.  1.
         22    1    4    4    0    0  0.10484769471E+02 -0.96942865885E+01 -0.20993201034E+01  0.14433181500E+02  0.00000000000E+00 0. -1.
         22    1    4    4    0    0  0.10991934227E+02 -0.20569509224E+02 -0.23065961782E+02  0.32801919467E+02  0.00000000000E+00 0. -1.
<mgrwt>
<rscale>  0 0.89352604E+02</rscale>
<asrwt>0</asrwt>
<pdfrwt beam="2">  1        3 0.72652337E-02 0.89352604E+02</pdfrwt>
<pdfrwt beam="1">  1       -3 0.65024666E-02 0.89352604E+02</pdfrwt>
<totfact> 0.37471916E+04</totfact>
</mgrwt>
</event>
<event>
 7    1  0.1312339E-009  0.9990591E+02  0.7818608E-02  0.1280494E+00
          3   -1    0    0  501    0  0.00000000000E+00  0.00000000000E+00  0.23925036739E+03  0.23925038870E+03  0.10100000000E+00 0. -1.
         -3   -1    0    0    0  501 -0.00000000000E+00 -0.00000000000E+00 -0.10429385227E+02  0.10429874266E+02  0.10100000000E+00 0.  1.
         23    2    1    2    0    0  0.00000000000E+00 -0.71054273576E-14  0.22882098216E+03  0.24968026297E+03  0.99905914944E+02 0.  0.
    9000005    2    3    3    0    0 -0.28701630137E+02 -0.39080794916E+02  0.90216420106E+02  0.10283913547E+03  0.92624631494E+01 0.  0.
         22    1    3    3    0    0  0.28701630137E+02  0.39080794916E+02  0.13860456205E+03  0.14684112750E+03  0.00000000000E+00 0. -1.
         22    1    4    4    0    0 -0.11659799093E+02 -0.20149855814E+02  0.35060525882E+02  0.42085722987E+02  0.00000000000E+00 0.  1.
         22    1    4    4    0    0 -0.17041831045E+02 -0.18930939101E+02  0.55155894224E+02  0.60753412483E+02  0.00000000000E+00 0.  1.
<mgrwt>
<rscale>  0 0.99905915E+02</rscale>
<asrwt>0</asrwt>
<pdfrwt beam="1">  1        3 0.36807787E-01 0.99905915E+02</pdfrwt>
<pdfrwt beam="2">  1       -3 0.16045601E-02 0.99905915E+02</pdfrwt>
<totfact> 0.20391114E+04</totfact>
</mgrwt>
</event>
<event>
 7    1  0.1312339E-009  0.9116712E+02  0.7818608E-02  0.1300050E+00
          3   -1    0    0  501    0  0.00000000000E+00  0.00000000000E+00  0.58015478643E+02  0.58015566560E+02  0.10100000000E+00 0. -1.
         -3   -1    0    0    0  501 -0.00000000000E+00 -0.00000000000E+00 -0.35815442537E+02  0.35815584948E+02  0.10100000000E+00 0.  1.
         23    2    1    2    0    0  0.17763568394E-14  0.00000000000E+00  0.22200036106E+02  0.93831151507E+02  0.91167117921E+02 0.  0.
    9000005    2    3    3    0    0  0.15588693735E+02  0.21647014608E+02  0.48400121635E+02  0.56440710276E+02  0.11462172064E+02 0.  0.
         22    1    3    3    0    0 -0.15588693735E+02 -0.21647014608E+02 -0.26200085529E+02  0.37390441231E+02  0.00000000000E+00 0.  1.
         22    1    4    4    0    0  0.16694683183E+02  0.16402971445E+02  0.36091218609E+02  0.43015648077E+02  0.00000000000E+00 0. -1.
         22    1    4    4    0    0 -0.11059894480E+01  0.52440431625E+01  0.12308903026E+02  0.13425062199E+02  0.00000000000E+00 0. -1.
<mgrwt>
<rscale>  0 0.91167118E+02</rscale>
<asrwt>0</asrwt>
<pdfrwt beam="1">  1        3 0.89254758E-02 0.91167118E+02</pdfrwt>
<pdfrwt beam="2">  1       -3 0.55100859E-02 0.91167118E+02</pdfrwt>
<totfact> 0.35145902E+04</totfact>
</mgrwt>
</event>
<event>
 7    1  0.1312339E-009  0.9106435E+02  0.7818608E-02  0.1300294E+00
          3   -1    0    0  501    0  0.00000000000E+00  0.00000000000E+00  0.20010137360E+03  0.20010139909E+03  0.10100000000E+00 0. -1.
         -3   -1    0    0    0  501 -0.00000000000E+00 -0.00000000000E+00 -0.10360372127E+02  0.10360864424E+02  0.10100000000E+00 0.  1.
         23    2    1    2    0    0  0.00000000000E+00  0.17763568394E-14  0.18974100147E+03  0.21046226351E+03  0.91064354845E+02 0.  0.
    9000005    2    3    3    0    0 -0.37498126995E+02 -0.14640095125E+02  0.14062438038E+03  0.14695726859E+03  0.14169704262E+02 0.  0.
         22    1    3    3    0    0  0.37498126995E+02  0.14640095125E+02  0.49116621089E+02  0.63504994926E+02  0.00000000000E+00 0.  1.
         22    1    4    4    0    0 -0.36291524137E+02 -0.16516191395E+02  0.12585029555E+03  0.13201574222E+03  0.00000000000E+00 0.  1.
         22    1    4    4    0    0 -0.12066028576E+01  0.18760962702E+01  0.14774084832E+02  0.14941526371E+02  0.00000000000E+00 0.  1.
<mgrwt>
<rscale>  0 0.91064355E+02</rscale>
<asrwt>0</asrwt>
<pdfrwt beam="1">  1        3 0.30784864E-01 0.91064355E+02</pdfrwt>
<pdfrwt beam="2">  1       -3 0.15939434E-02 0.91064355E+02</pdfrwt>
<totfact> 0.28059941E+04</totfact>
</mgrwt>
</event>
<event>
 7    1  0.1312339E-009  0.7848039E+02  0.7818608E-02  0.1333420E+00
          3   -1    0    0  501    0  0.00000000000E+00  0.00000000000E+00  0.33674469194E+03  0.33674470709E+03  0.10100000000E+00 0. -1.
         -3   -1    0    0    0  501 -0.00000000000E+00 -0.00000000000E+00 -0.45720098156E+01  0.45731252720E+01  0.10100000000E+00 0.  1.
         23    2    1    2    0    0  0.00000000000E+00  0.00000000000E+00  0.33217268213E+03  0.34131783236E+03  0.78480392049E+02 0.  0.
    9000005    2    3    3    0    0  0.11515096955E+02 -0.12534480579E+02  0.31969084214E+03  0.32021079584E+03  0.65580913765E+01 0.  0.
         22    1    3    3    0    0 -0.11515096955E+02  0.12534480579E+02  0.12481839987E+02  0.21107036522E+02  0.00000000000E+00 0.  1.
         22    1    4    4    0    0  0.78854199144E+01 -0.52588038915E+01  0.12958879452E+03  0.12993494730E+03  0.00000000000E+00 0.  1.
         22    1    4    4    0    0  0.36296770406E+01 -0.72756766875E+01  0.19010204762E+03  0.19027584854E+03  0.00000000000E+00 0.  1.
<mgrwt>
<rscale>  0 0.78480392E+02</rscale>
<asrwt>0</asrwt>
<pdfrwt beam="1">  1        3 0.51806957E-01 0.78480392E+02</pdfrwt>
<pdfrwt beam="2">  1       -3 0.70347317E-03 0.78480392E+02</pdfrwt>
<totfact> 0.33524812E+04</totfact>
</mgrwt>
</event>
<event>
 7    1  0.1312339E-009  0.9460129E+02  0.7818608E-02  0.1292077E+00
          3   -1    0    0  501    0  0.00000000000E+00  0.00000000000E+00  0.15818817347E+03  0.15818820571E+03  0.10100000000E+00 0. -1.
         -3   -1    0    0    0  501 -0.00000000000E+00 -0.00000000000E+00 -0.14143389589E+02  0.14143750213E+02  0.10100000000E+00 0.  1.
         23    2    1    2    0    0  0.00000000000E+00  0.00000000000E+00  0.14404478388E+03  0.17233195593E+03  0.94601285773E+02 0.  0.
    9000005    2    3    3    0    0 -0.33085392246E+02  0.32636530391E+02  0.71239296312E+02  0.85958202295E+02  0.12409226679E+02 0.  0.
         22    1    3    3    0    0  0.33085392246E+02 -0.32636530391E+02  0.72805487569E+02  0.86373753631E+02  0.00000000000E+00 0.  1.
         22    1    4    4    0    0 -0.25580854346E+01  0.36932480926E-01  0.89751528047E+01  0.93326594798E+01  0.00000000000E+00 0.  1.
         22    1    4    4    0    0 -0.30527306812E+02  0.32599597911E+02  0.62264143507E+02  0.76625542816E+02  0.00000000000E+00 0.  1.
<mgrwt>
<rscale>  0 0.94601286E+02</rscale>
<asrwt>0</asrwt>
<pdfrwt beam="1">  1        3 0.24336672E-01 0.94601286E+02</pdfrwt>
<pdfrwt beam="2">  1       -3 0.21759363E-02 0.94601286E+02</pdfrwt>
<totfact> 0.27139034E+04</totfact>
</mgrwt>
</event>
<event>
 7    1  0.1312339E-009  0.9593228E+02  0.7818608E-02  0.1289090E+00
          3   -1    0    0  501    0  0.00000000000E+00  0.00000000000E+00  0.23874035385E+02  0.23874249027E+02  0.10100000000E+00 0. -1.
         -3   -1    0    0    0  501 -0.00000000000E+00 -0.00000000000E+00 -0.96369731829E+02  0.96369784755E+02  0.10100000000E+00 0.  1.
         23    2    1    2    0    0  0.35527136788E-14  0.00000000000E+00 -0.72495696443E+02  0.12024403378E+03  0.95932276411E+02 0.  0.
    9000005    2    3    3    0    0  0.26737313084E+02 -0.30216885313E+02 -0.67912070401E+02  0.79636722905E+02  0.10100210884E+02 0.  0.
         22    1    3    3    0    0 -0.26737313084E+02  0.30216885313E+02 -0.45836260427E+01  0.40607310877E+02  0.00000000000E+00 0. -1.
         22    1    4    4    0    0  0.22157827900E+02 -0.29011477789E+02 -0.56336645135E+02  0.67130118173E+02  0.00000000000E+00 0. -1.
         22    1    4    4    0    0  0.45794851845E+01 -0.12054075237E+01 -0.11575425265E+02  0.12506604732E+02  0.00000000000E+00 0. -1.
<mgrwt>
<rscale>  0 0.95932276E+02</rscale>
<asrwt>0</asrwt>
<pdfrwt beam="1">  1        3 0.36729491E-02 0.95932276E+02</pdfrwt>
<pdfrwt beam="2">  1       -3 0.14826133E-01 0.95932276E+02</pdfrwt>
<totfact> 0.28927962E+04</totfact>
</mgrwt>
</event>
<event>
 7    1  0.1312339E-009  0.9753691E+02  0.7818608E-02  0.1285562E+00
         -3   -1    0    0    0  501 -0.00000000000E+00  0.00000000000E+00  0.24224424291E+02  0.24224634842E+02  0.10100000000E+00 0.  1.
          3   -1    0    0  501    0  0.00000000000E+00 -0.00000000000E+00 -0.98179670272E+02  0.98179722223E+02  0.10100000000E+00 0. -1.
         23    2    1    2    0    0  0.00000000000E+00  0.35527136788E-14 -0.73955245981E+02  0.12240435707E+03  0.97536906966E+02 0.  0.
    9000005    2    3    3    0    0  0.45535591113E+02  0.17290201339E+02 -0.37875896303E+02  0.61789502503E+02  0.33042364305E+01 0.  0.
         22    1    3    3    0    0 -0.45535591113E+02 -0.17290201339E+02 -0.36079349678E+02  0.60614854562E+02  0.00000000000E+00 0. -1.
         22    1    4    4    0    0  0.15296862965E+02  0.53194896094E+01 -0.14501657337E+02  0.21739113408E+02  0.00000000000E+00 0. -1.
         22    1    4    4    0    0  0.30238728149E+02  0.11970711730E+02 -0.23374238966E+02  0.40050389095E+02  0.00000000000E+00 0. -1.
<mgrwt>
<rscale>  0 0.97536907E+02</rscale>
<asrwt>0</asrwt>
<pdfrwt beam="2">  1        3 0.15104585E-01 0.97536907E+02</pdfrwt>
<pdfrwt beam="1">  1       -3 0.37268547E-02 0.97536907E+02</pdfrwt>
<totfact> 0.27521240E+04</totfact>
</mgrwt>
</event>
<event>
 7    1  0.1312339E-009  0.9097209E+02  0.7818608E-02  0.1300515E+00
         -3   -1    0    0    0  501 -0.00000000000E+00  0.00000000000E+00  0.44407094987E+03  0.44407096135E+03  0.10100000000E+00 0.  1.
          3   -1    0    0  501    0  0.00000000000E+00 -0.00000000000E+00 -0.46585623647E+01  0.46596571017E+01  0.10100000000E+00 0. -1.
         23    2    1    2    0    0  0.00000000000E+00  0.00000000000E+00  0.43941238750E+03  0.44873061845E+03  0.90972092688E+02 0.  0.
    9000005    2    3    3    0    0  0.26648465542E+02  0.12381751963E+02  0.39040552744E+03  0.39158938264E+03  0.78943170648E+01 0.  0.
         22    1    3    3    0    0 -0.26648465542E+02 -0.12381751963E+02  0.49006860062E+02  0.57141235816E+02  0.00000000000E+00 0. -1.
         22    1    4    4    0    0  0.12392228572E+02  0.18200960692E+01  0.14221387767E+03  0.14276437609E+03  0.00000000000E+00 0. -1.
         22    1    4    4    0    0  0.14256236970E+02  0.10561655894E+02  0.24819164977E+03  0.24882500655E+03  0.00000000000E+00 0. -1.
<mgrwt>
<rscale>  0 0.90972093E+02</rscale>
<asrwt>0</asrwt>
<pdfrwt beam="2">  1        3 0.71678689E-03 0.90972093E+02</pdfrwt>
<pdfrwt beam="1">  1       -3 0.68318703E-01 0.90972093E+02</pdfrwt>
<totfact> 0.19320951E+04</totfact>
</mgrwt>
</event>
<event>
 7    1  0.1312339E-009  0.9107164E+02  0.7818608E-02  0.1300277E+00
         -3   -1    0    0    0  501 -0.00000000000E+00  0.00000000000E+00  0.18092513373E+02  0.18092795283E+02  0.10100000000E+00 0.  1.
          3   -1    0    0  501    0  0.00000000000E+00 -0.00000000000E+00 -0.11460481876E+03  0.11460486327E+03  0.10100000000E+00 0. -1.
         23    2    1    2    0    0  0.00000000000E+00  0.00000000000E+00 -0.96512305391E+02  0.13269765855E+03  0.91071639347E+02 0.  0.
    9000005    2    3    3    0    0  0.77094032535E+00 -0.24134361884E+02  0.78767310751E+01  0.25552277379E+02  0.27953916094E+01 0.  0.
         22    1    3    3    0    0 -0.77094032535E+00  0.24134361884E+02 -0.10438903647E+03  0.10714538117E+03  0.00000000000E+00 0. -1.
         22    1    4    4    0    0 -0.87176641847E+00 -0.44129002783E+01  0.18656356371E+01  0.48697291387E+01  0.00000000000E+00 0. -1.
         22    1    4    4    0    0  0.16427067438E+01 -0.19721461606E+02  0.60110954380E+01  0.20682548240E+02  0.00000000000E+00 0. -1.
<mgrwt>
<rscale>  0 0.91071639E+02</rscale>
<asrwt>0</asrwt>
<pdfrwt beam="2">  1        3 0.17631535E-01 0.91071639E+02</pdfrwt>
<pdfrwt beam="1">  1       -3 0.27834888E-02 0.91071639E+02</pdfrwt>
<totfact> 0.32501021E+04</totfact>
</mgrwt>
</event>
<event>
 7    1  0.1312339E-009  0.9447117E+02  0.7818608E-02  0.1292372E+00
          3   -1    0    0  501    0  0.00000000000E+00  0.00000000000E+00  0.11047247708E+03  0.11047252325E+03  0.10100000000E+00 0. -1.
         -3   -1    0    0    0  501 -0.00000000000E+00 -0.00000000000E+00 -0.20196711521E+02  0.20196964061E+02  0.10100000000E+00 0.  1.
         23    2    1    2    0    0  0.71054273576E-14 -0.17763568394E-14  0.90275765560E+02  0.13066948731E+03  0.94471165267E+02 0.  0.
    9000005    2    3    3    0    0  0.32898659709E+02 -0.12218275962E+02  0.21008294977E+01  0.35767288034E+02  0.65785507999E+01 0.  0.
         22    1    3    3    0    0 -0.32898659709E+02  0.12218275962E+02  0.88174936063E+02  0.94902199278E+02  0.00000000000E+00 0. -1.
         22    1    4    4    0    0  0.81614792669E+01 -0.60452236433E+01 -0.28191762971E+00  0.10160410930E+02  0.00000000000E+00 0. -1.
         22    1    4    4    0    0  0.24737180442E+02 -0.61730523185E+01  0.23827471275E+01  0.25606877104E+02  0.00000000000E+00 0. -1.
<mgrwt>
<rscale>  0 0.94471165E+02</rscale>
<asrwt>0</asrwt>
<pdfrwt beam="1">  1        3 0.16995789E-01 0.94471165E+02</pdfrwt>
<pdfrwt beam="2">  1       -3 0.31072094E-02 0.94471165E+02</pdfrwt>
<totfact> 0.29535147E+04</totfact>
</mgrwt>
</event>
<event>
 7    1  0.1312339E-009  0.9128495E+02  0.7818608E-02  0.1299769E+00
          3   -1    0    0  501    0  0.00000000000E+00  0.00000000000E+00  0.14745997731E+03  0.14746001190E+03  0.10100000000E+00 0. -1.
         -3   -1    0    0    0  501 -0.00000000000E+00 -0.00000000000E+00 -0.14127248568E+02  0.14127609603E+02  0.10100000000E+00 0.  1.
         23    2    1    2    0    0  0.00000000000E+00  0.00000000000E+00  0.13333272874E+03  0.16158762150E+03  0.91284954232E+02 0.  0.
    9000005    2    3    3    0    0  0.24047136648E+02 -0.27166192212E+02  0.11493233477E+03  0.12090788111E+03  0.96440322798E+01 0.  0.
         22    1    3    3    0    0 -0.24047136648E+02  0.27166192212E+02  0.18400393976E+02  0.40679740397E+02  0.00000000000E+00 0.  1.
         22    1    4    4    0    0  0.20586890200E+02 -0.25660623747E+02  0.10917567920E+03  0.11402463150E+03  0.00000000000E+00 0. -1.
         22    1    4    4    0    0  0.34602464484E+01 -0.15055684650E+01  0.57566555673E+01  0.68832496110E+01  0.00000000000E+00 0. -1.
<mgrwt>
<rscale>  0 0.91284954E+02</rscale>
<asrwt>0</asrwt>
<pdfrwt beam="1">  1        3 0.22686182E-01 0.91284954E+02</pdfrwt>
<pdfrwt beam="2">  1       -3 0.21734531E-02 0.91284954E+02</pdfrwt>
<totfact> 0.30514691E+04</totfact>
</mgrwt>
</event>
<event>
 7    1  0.1312339E-009  0.9174711E+02  0.7818608E-02  0.1298675E+00
          3   -1    0    0  501    0  0.00000000000E+00  0.00000000000E+00  0.15652618732E+02  0.15652944584E+02  0.10100000000E+00 0. -1.
         -3   -1    0    0    0  501 -0.00000000000E+00 -0.00000000000E+00 -0.13444114160E+03  0.13444117954E+03  0.10100000000E+00 0.  1.
         23    2    1    2    0    0  0.00000000000E+00  0.00000000000E+00 -0.11878852287E+03  0.15009412412E+03  0.91747114020E+02 0.  0.
    9000005    2    3    3    0    0 -0.13271332618E+02 -0.40849966144E+02 -0.84499808983E+02  0.95134467070E+02  0.80932751781E+01 0.  0.
         22    1    3    3    0    0  0.13271332618E+02  0.40849966144E+02 -0.34288713885E+02  0.54959657052E+02  0.00000000000E+00 0. -1.
         22    1    4    4    0    0 -0.10437001780E+02 -0.33351100759E+02 -0.74724969566E+02  0.82492714858E+02  0.00000000000E+00 0. -1.
         22    1    4    4    0    0 -0.28343308382E+01 -0.74988653853E+01 -0.97748394170E+01  0.12641752212E+02  0.00000000000E+00 0. -1.
<mgrwt>
<rscale>  0 0.91747114E+02</rscale>
<asrwt>0</asrwt>
<pdfrwt beam="1">  1        3 0.24081233E-02 0.91747114E+02</pdfrwt>
<pdfrwt beam="2">  1       -3 0.20683280E-01 0.91747114E+02</pdfrwt>
<totfact> 0.30777215E+04</totfact>
</mgrwt>
</event>
<event>
 7    1  0.1312339E-009  0.9108688E+02  0.7818608E-02  0.1300241E+00
         -3   -1    0    0    0  501 -0.00000000000E+00  0.00000000000E+00  0.85424388051E+01  0.85430358619E+01  0.10100000000E+00 0.  1.
          3   -1    0    0  501    0  0.00000000000E+00 -0.00000000000E+00 -0.24280272822E+03  0.24280274922E+03  0.10100000000E+00 0. -1.
         23    2    1    2    0    0  0.00000000000E+00  0.00000000000E+00 -0.23426028941E+03  0.25134578508E+03  0.91086884264E+02 0.  0.
    9000005    2    3    3    0    0 -0.18840748238E+02 -0.28108248137E+02 -0.39351312578E+02  0.53521224786E+02  0.13074719629E+02 0.  0.
         22    1    3    3    0    0  0.18840748238E+02  0.28108248137E+02 -0.19490897683E+03  0.19782456030E+03  0.00000000000E+00 0. -1.
         22    1    4    4    0    0 -0.13750015471E+02 -0.10154359373E+02 -0.23355856497E+02  0.28942528784E+02  0.00000000000E+00 0. -1.
         22    1    4    4    0    0 -0.50907327675E+01 -0.17953888765E+02 -0.15995456082E+02  0.24578696002E+02  0.00000000000E+00 0. -1.
<mgrwt>
<rscale>  0 0.91086884E+02</rscale>
<asrwt>0</asrwt>
<pdfrwt beam="2">  1        3 0.37354308E-01 0.91086884E+02</pdfrwt>
<pdfrwt beam="1">  1       -3 0.13142691E-02 0.91086884E+02</pdfrwt>
<totfact> 0.26113495E+04</totfact>
</mgrwt>
</event>
<event>
 7    1  0.1312339E-009  0.9249365E+02  0.7818608E-02  0.1296923E+00
          3   -1    0    0  501    0  0.00000000000E+00  0.00000000000E+00  0.11543856334E+03  0.11543860752E+03  0.10100000000E+00 0. -1.
         -3   -1    0    0    0  501 -0.00000000000E+00 -0.00000000000E+00 -0.18527148632E+02  0.18527423928E+02  0.10100000000E+00 0.  1.
         23    2    1    2    0    0  0.00000000000E+00 -0.22204460493E-15  0.96911414709E+02  0.13396603145E+03  0.92493649957E+02 0.  0.
    9000005    2    3    3    0    0  0.45920081936E+02  0.14635533340E+01  0.43539644796E+02  0.63543437514E+02  0.55921256033E+01 0.  0.
         22    1    3    3    0    0 -0.45920081936E+02 -0.14635533340E+01  0.53371769913E+02  0.70422593939E+02  0.00000000000E+00 0.  1.
         22    1    4    4    0    0  0.14261657473E+02  0.30210389543E+01  0.14255659510E+02  0.20389835171E+02  0.00000000000E+00 0.  1.
         22    1    4    4    0    0  0.31658424463E+02 -0.15574856203E+01  0.29283985286E+02  0.43153602343E+02  0.00000000000E+00 0.  1.
<mgrwt>
<rscale>  0 0.92493650E+02</rscale>
<asrwt>0</asrwt>
<pdfrwt beam="1">  1        3 0.17759804E-01 0.92493650E+02</pdfrwt>
<pdfrwt beam="2">  1       -3 0.28503551E-02 0.92493650E+02</pdfrwt>
<totfact> 0.31081456E+04</totfact>
</mgrwt>
</event>
<event>
 7    1  0.1312339E-009  0.8985767E+02  0.7818608E-02  0.1303197E+00
          3   -1    0    0  501    0  0.00000000000E+00  0.00000000000E+00  0.47513379977E+02  0.47513487326E+02  0.10100000000E+00 0. -1.
         -3   -1    0    0    0  501 -0.00000000000E+00 -0.00000000000E+00 -0.42484662910E+02  0.42484782965E+02  0.10100000000E+00 0.  1.
         23    2    1    2    0    0  0.00000000000E+00  0.00000000000E+00  0.50287170676E+01  0.89998270291E+02  0.89857668899E+02 0.  0.
    9000005    2    3    3    0    0  0.30626580828E+02 -0.19742156455E+02 -0.23140805915E+02  0.43941107766E+02  0.82209402508E+01 0.  0.
         22    1    3    3    0    0 -0.30626580828E+02  0.19742156455E+02  0.28169522982E+02  0.46057162524E+02  0.00000000000E+00 0. -1.
         22    1    4    4    0    0  0.23907449309E+02 -0.18736379475E+02 -0.20533899491E+02  0.36664138836E+02  0.00000000000E+00 0. -1.
         22    1    4    4    0    0  0.67191315199E+01 -0.10057769807E+01 -0.26069064239E+01  0.72769689308E+01  0.00000000000E+00 0. -1.
<mgrwt>
<rscale>  0 0.89857669E+02</rscale>
<asrwt>0</asrwt>
<pdfrwt beam="1">  1        3 0.73097682E-02 0.89857669E+02</pdfrwt>
<pdfrwt beam="2">  1       -3 0.65361195E-02 0.89857669E+02</pdfrwt>
<totfact> 0.36861738E+04</totfact>
</mgrwt>
</event>
<event>
 7    1  0.1312339E-009  0.9440989E+02  0.7818608E-02  0.1292511E+00
          3   -1    0    0  501    0  0.00000000000E+00  0.00000000000E+00  0.42728607424E+02  0.42728726793E+02  0.10100000000E+00 0. -1.
         -3   -1    0    0    0  501 -0.00000000000E+00 -0.00000000000E+00 -0.52149990673E+02  0.52150088477E+02  0.10100000000E+00 0.  1.
         23    2    1    2    0    0 -0.35527136788E-14 -0.22204460493E-15 -0.94213832491E+01  0.94878815270E+02  0.94409888914E+02 0.  0.
    9000005    2    3    3    0    0  0.29608830086E+02  0.75503478056E+00  0.31728028361E+02  0.44178450652E+02  0.82349755131E+01 0.  0.
         22    1    3    3    0    0 -0.29608830086E+02 -0.75503478056E+00 -0.41149411610E+02  0.50700364619E+02  0.00000000000E+00 0.  1.
         22    1    4    4    0    0  0.12289373842E+02  0.34694948537E+01  0.17126852344E+02  0.21363407387E+02  0.00000000000E+00 0. -1.
         22    1    4    4    0    0  0.17319456245E+02 -0.27144600731E+01  0.14601176017E+02  0.22815043265E+02  0.00000000000E+00 0. -1.
<mgrwt>
<rscale>  0 0.94409889E+02</rscale>
<asrwt>0</asrwt>
<pdfrwt beam="1">  1        3 0.65736486E-02 0.94409889E+02</pdfrwt>
<pdfrwt beam="2">  1       -3 0.80230922E-02 0.94409889E+02</pdfrwt>
<totfact> 0.31871561E+04</totfact>
</mgrwt>
</event>
<event>
 7    1  0.1312339E-009  0.9489833E+02  0.7818608E-02  0.1291405E+00
         -3   -1    0    0    0  501 -0.00000000000E+00  0.00000000000E+00  0.18552389840E+02  0.18552664762E+02  0.10100000000E+00 0.  1.
          3   -1    0    0  501    0  0.00000000000E+00 -0.00000000000E+00 -0.12135369207E+03  0.12135373410E+03  0.10100000000E+00 0. -1.
         23    2    1    2    0    0 -0.17763568394E-14 -0.71054273576E-14 -0.10280130223E+03  0.13990639886E+03  0.94898328239E+02 0.  0.
    9000005    2    3    3    0    0  0.83308286224E+01  0.38779529151E+02 -0.13477089153E+02  0.42171708867E+02  0.48545349904E+01 0.  0.
         22    1    3    3    0    0 -0.83308286224E+01 -0.38779529151E+02 -0.89324213077E+02  0.97734689996E+02  0.00000000000E+00 0. -1.
         22    1    4    4    0    0  0.75309551702E+01  0.34790589710E+02 -0.10443079971E+02  0.37096608166E+02  0.00000000000E+00 0.  1.
         22    1    4    4    0    0  0.79987345223E+00  0.39889394412E+01 -0.30340091819E+01  0.50751007006E+01  0.00000000000E+00 0.  1.
<mgrwt>
<rscale>  0 0.94898328E+02</rscale>
<asrwt>0</asrwt>
<pdfrwt beam="2">  1        3 0.18669823E-01 0.94898328E+02</pdfrwt>
<pdfrwt beam="1">  1       -3 0.28542383E-02 0.94898328E+02</pdfrwt>
<totfact> 0.28642870E+04</totfact>
</mgrwt>
</event>
<event>
 7    1  0.1312339E-009  0.9021419E+02  0.7818608E-02  0.1302334E+00
          3   -1    0    0  501    0  0.00000000000E+00  0.00000000000E+00  0.19672372321E+03  0.19672374914E+03  0.10100000000E+00 0. -1.
         -3   -1    0    0    0  501 -0.00000000000E+00 -0.00000000000E+00 -0.10342404049E+02  0.10342897201E+02  0.10100000000E+00 0.  1.
         23    2    1    2    0    0  0.00000000000E+00  0.00000000000E+00  0.18638131916E+03  0.20706664634E+03  0.90214188982E+02 0.  0.
    9000005    2    3    3    0    0  0.24908364049E+02 -0.30361691218E+02  0.49240779594E+02  0.64413968530E+02  0.13499854574E+02 0.  0.
         22    1    3    3    0    0 -0.24908364049E+02  0.30361691218E+02  0.13714053957E+03  0.14265267781E+03  0.00000000000E+00 0. -1.
         22    1    4    4    0    0  0.21673031913E+02 -0.18621624175E+02  0.39850868964E+02  0.49036485971E+02  0.00000000000E+00 0. -1.
         22    1    4    4    0    0  0.32353321364E+01 -0.11740067043E+02  0.93899106302E+01  0.15377482559E+02  0.00000000000E+00 0. -1.
<mgrwt>
<rscale>  0 0.90214189E+02</rscale>
<asrwt>0</asrwt>
<pdfrwt beam="1">  1        3 0.30265228E-01 0.90214189E+02</pdfrwt>
<pdfrwt beam="2">  1       -3 0.15911790E-02 0.90214189E+02</pdfrwt>
<totfact> 0.28952859E+04</totfact>
</mgrwt>
</event>
<event>
 7    1  0.1312339E-009  0.9795490E+02  0.7818608E-02  0.1284656E+00
          3   -1    0    0  501    0  0.00000000000E+00  0.00000000000E+00  0.81819722976E+02  0.81819785314E+02  0.10100000000E+00 0. -1.
         -3   -1    0    0    0  501 -0.00000000000E+00 -0.00000000000E+00 -0.29317842102E+02  0.29318016074E+02  0.10100000000E+00 0.  1.
         23    2    1    2    0    0 -0.71054273576E-14  0.00000000000E+00  0.52501880874E+02  0.11113780139E+03  0.97954904942E+02 0.  0.
    9000005    2    3    3    0    0  0.36764630675E+02 -0.69482448002E+01 -0.66808844720E+01  0.41119833063E+02  0.15693638181E+02 0.  0.
         22    1    3    3    0    0 -0.36764630675E+02  0.69482448002E+01  0.59182765346E+02  0.70017968325E+02  0.00000000000E+00 0. -1.
         22    1    4    4    0    0  0.19859060711E+02 -0.86665623729E+01 -0.99043854498E+01  0.23824114817E+02  0.00000000000E+00 0.  1.
         22    1    4    4    0    0  0.16905569964E+02  0.17183175727E+01  0.32235009778E+01  0.17295718246E+02  0.00000000000E+00 0.  1.
<mgrwt>
<rscale>  0 0.97954905E+02</rscale>
<asrwt>0</asrwt>
<pdfrwt beam="1">  1        3 0.12587668E-01 0.97954905E+02</pdfrwt>
<pdfrwt beam="2">  1       -3 0.45104555E-02 0.97954905E+02</pdfrwt>
<totfact> 0.27836709E+04</totfact>
</mgrwt>
</event>
<event>
 7    1  0.1312339E-009  0.1212629E+03  0.7818608E-02  0.1241028E+00
         -3   -1    0    0    0  501 -0.00000000000E+00  0.00000000000E+00  0.69483061041E+02  0.69483134447E+02  0.10100000000E+00 0.  1.
          3   -1    0    0  501    0  0.00000000000E+00 -0.00000000000E+00 -0.52907304308E+02  0.52907400713E+02  0.10100000000E+00 0. -1.
         23    2    1    2    0    0  0.00000000000E+00 -0.71054273576E-14  0.16575756732E+02  0.12239053516E+03  0.12126288544E+03 0.  0.
    9000005    2    3    3    0    0 -0.10542980734E+02  0.57771326338E+02  0.22114388566E+02  0.63404460259E+02  0.90773789935E+01 0.  0.
         22    1    3    3    0    0  0.10542980734E+02 -0.57771326338E+02 -0.55386318342E+01  0.58986074901E+02  0.00000000000E+00 0.  1.
         22    1    4    4    0    0  0.15292783458E+01  0.10567302945E+02  0.33146905409E+01  0.11180060696E+02  0.00000000000E+00 0.  1.
         22    1    4    4    0    0 -0.12072259080E+02  0.47204023393E+02  0.18799698025E+02  0.52224399563E+02  0.00000000000E+00 0.  1.
<mgrwt>
<rscale>  0 0.12126289E+03</rscale>
<asrwt>0</asrwt>
<pdfrwt beam="2">  1        3 0.81395983E-02 0.12126289E+03</pdfrwt>
<pdfrwt beam="1">  1       -3 0.10689715E-01 0.12126289E+03</pdfrwt>
<totfact> 0.15039175E+04</totfact>
</mgrwt>
</event>
<event>
 7    1  0.1312339E-009  0.8700662E+02  0.7818608E-02  0.1310267E+00
         -3   -1    0    0    0  501 -0.00000000000E+00  0.00000000000E+00  0.17278909361E+02  0.17279204545E+02  0.10100000000E+00 0.  1.
          3   -1    0    0  501    0  0.00000000000E+00 -0.00000000000E+00 -0.10952752369E+03  0.10952757026E+03  0.10100000000E+00 0. -1.
         23    2    1    2    0    0  0.00000000000E+00  0.00000000000E+00 -0.92248614334E+02  0.12680677481E+03  0.87006616361E+02 0.  0.
    9000005    2    3    3    0    0  0.98411264572E+01  0.18304031034E+02  0.85455805761E+01  0.23892465551E+02  0.81201995480E+01 0.  0.
         22    1    3    3    0    0 -0.98411264572E+01 -0.18304031034E+02 -0.10079419491E+03  0.10291430926E+03  0.00000000000E+00 0. -1.
         22    1    4    4    0    0  0.10137262369E+02  0.18548887670E+02  0.69503025326E+01  0.22251562359E+02  0.00000000000E+00 0.  1.
         22    1    4    4    0    0 -0.29613591199E+00 -0.24485663564E+00  0.15952780435E+01  0.16409031923E+01  0.00000000000E+00 0.  1.
<mgrwt>
<rscale>  0 0.87006616E+02</rscale>
<asrwt>0</asrwt>
<pdfrwt beam="2">  1        3 0.16850414E-01 0.87006616E+02</pdfrwt>
<pdfrwt beam="1">  1       -3 0.26583201E-02 0.87006616E+02</pdfrwt>
<totfact> 0.37208832E+04</totfact>
</mgrwt>
</event>
<event>
 7    1  0.1312339E-009  0.9371981E+02  0.7818608E-02  0.1294086E+00
         -3   -1    0    0    0  501 -0.00000000000E+00  0.00000000000E+00  0.23119988507E+01  0.23142038988E+01  0.10100000000E+00 0.  1.
          3   -1    0    0  501    0  0.00000000000E+00 -0.00000000000E+00 -0.94930800051E+03  0.94930800588E+03  0.10100000000E+00 0. -1.
         23    2    1    2    0    0  0.00000000000E+00  0.00000000000E+00 -0.94699600166E+03  0.95162220978E+03  0.93719811091E+02 0.  0.
    9000005    2    3    3    0    0  0.14174970587E+02 -0.27379837744E+02 -0.83063228777E+03  0.83124322816E+03  0.80449717438E+01 0.  0.
         22    1    3    3    0    0 -0.14174970587E+02  0.27379837744E+02 -0.11636371388E+03  0.12037898161E+03  0.00000000000E+00 0.  1.
         22    1    4    4    0    0 -0.64580574530E+00 -0.80406295637E+00 -0.11561678506E+02  0.11607583391E+02  0.00000000000E+00 0. -1.
         22    1    4    4    0    0  0.14820776333E+02 -0.26575774787E+02 -0.81907060927E+03  0.81963564477E+03  0.00000000000E+00 0. -1.
<mgrwt>
<rscale>  0 0.93719811E+02</rscale>
<asrwt>0</asrwt>
<pdfrwt beam="2">  1        3 0.14604724E+00 0.93719811E+02</pdfrwt>
<pdfrwt beam="1">  1       -3 0.35586292E-03 0.93719811E+02</pdfrwt>
<totfact> 0.97910745E+03</totfact>
</mgrwt>
</event>
<event>
 7    1  0.1312339E-009  0.8704092E+02  0.7818608E-02  0.1310180E+00
         -3   -1    0    0    0  501 -0.00000000000E+00  0.00000000000E+00  0.32786032458E+02  0.32786188027E+02  0.10100000000E+00 0.  1.
          3   -1    0    0  501    0  0.00000000000E+00 -0.00000000000E+00 -0.57769097786E+02  0.57769186078E+02  0.10100000000E+00 0. -1.
         23    2    1    2    0    0  0.00000000000E+00  0.44408920985E-15 -0.24983065328E+02  0.90555374105E+02  0.87040922709E+02 0.  0.
    9000005    2    3    3    0    0  0.15457271607E+02  0.19367953064E+01  0.28211394066E+02  0.35126781016E+02  0.13976035482E+02 0.  0.
         22    1    3    3    0    0 -0.15457271607E+02 -0.19367953064E+01 -0.53194459394E+02  0.55428593089E+02  0.00000000000E+00 0. -1.
         22    1    4    4    0    0  0.76590793311E+01 -0.13599741663E+01  0.26790076642E+01  0.82272782862E+01  0.00000000000E+00 0.  1.
         22    1    4    4    0    0  0.77981922757E+01  0.32967694728E+01  0.25532386402E+02  0.26899502730E+02  0.00000000000E+00 0.  1.
<mgrwt>
<rscale>  0 0.87040923E+02</rscale>
<asrwt>0</asrwt>
<pdfrwt beam="2">  1        3 0.88875723E-02 0.87040923E+02</pdfrwt>
<pdfrwt beam="1">  1       -3 0.50440238E-02 0.87040923E+02</pdfrwt>
<totfact> 0.40136653E+04</totfact>
</mgrwt>
</event>
<event>
 7    1  0.1312339E-009  0.9269439E+02  0.7818608E-02  0.1296455E+00
          3   -1    0    0  501    0  0.00000000000E+00  0.00000000000E+00  0.14419822248E+02  0.14420175958E+02  0.10100000000E+00 0. -1.
         -3   -1    0    0    0  501 -0.00000000000E+00 -0.00000000000E+00 -0.14896375127E+03  0.14896378550E+03  0.10100000000E+00 0.  1.
         23    2    1    2    0    0  0.35527136788E-14  0.00000000000E+00 -0.13454392902E+03  0.16338396146E+03  0.92694390489E+02 0.  0.
    9000005    2    3    3    0    0 -0.30179292952E+02  0.14205439220E+02 -0.14884693405E+02  0.39162719746E+02  0.14127288970E+02 0.  0.
         22    1    3    3    0    0  0.30179292952E+02 -0.14205439220E+02 -0.11965923561E+03  0.12422124172E+03  0.00000000000E+00 0.  1.
         22    1    4    4    0    0 -0.24428117868E+02  0.45074795866E+01 -0.11623896198E+02  0.27425631763E+02  0.00000000000E+00 0. -1.
         22    1    4    4    0    0 -0.57511750844E+01  0.96979596331E+01 -0.32607972064E+01  0.11737087983E+02  0.00000000000E+00 0. -1.
<mgrwt>
<rscale>  0 0.92694390E+02</rscale>
<asrwt>0</asrwt>
<pdfrwt beam="1">  1        3 0.22184641E-02 0.92694390E+02</pdfrwt>
<pdfrwt beam="2">  1       -3 0.22917529E-01 0.92694390E+02</pdfrwt>
<totfact> 0.29172714E+04</totfact>
</mgrwt>
</event>
<event>
 7    1  0.1312339E-009  0.9070218E+02  0.7818608E-02  0.1301160E+00
         -3   -1    0    0    0  501 -0.00000000000E+00  0.00000000000E+00  0.72899882697E+02  0.72899952663E+02  0.10100000000E+00 0.  1.
          3   -1    0    0  501    0  0.00000000000E+00 -0.00000000000E+00 -0.28212787073E+02  0.28212967859E+02  0.10100000000E+00 0. -1.
         23    2    1    2    0    0 -0.88817841970E-15  0.00000000000E+00  0.44687095625E+02  0.10111292052E+03  0.90702183993E+02 0.  0.
    9000005    2    3    3    0    0  0.56321474480E+01 -0.18673214937E+02 -0.21368506390E+02  0.32238015088E+02  0.14222043120E+02 0.  0.
         22    1    3    3    0    0 -0.56321474480E+01  0.18673214937E+02  0.66055602015E+02  0.68874905434E+02  0.00000000000E+00 0.  1.
         22    1    4    4    0    0  0.76087678986E+01 -0.15762399805E+02 -0.22532710861E+02  0.28531905918E+02  0.00000000000E+00 0. -1.
         22    1    4    4    0    0 -0.19766204506E+01 -0.29108151312E+01  0.11642044703E+01  0.37061091704E+01  0.00000000000E+00 0. -1.
<mgrwt>
<rscale>  0 0.90702184E+02</rscale>
<asrwt>0</asrwt>
<pdfrwt beam="2">  1        3 0.43404481E-02 0.90702184E+02</pdfrwt>
<pdfrwt beam="1">  1       -3 0.11215386E-01 0.90702184E+02</pdfrwt>
<totfact> 0.35084585E+04</totfact>
</mgrwt>
</event>
<event>
 7    1  0.1312339E-009  0.1039438E+03  0.7818608E-02  0.1272215E+00
         -3   -1    0    0    0  501 -0.00000000000E+00  0.00000000000E+00  0.10629700340E+02  0.10630180164E+02  0.10100000000E+00 0.  1.
          3   -1    0    0  501    0  0.00000000000E+00 -0.00000000000E+00 -0.25410037198E+03  0.25410039205E+03  0.10100000000E+00 0. -1.
         23    2    1    2    0    0  0.00000000000E+00  0.00000000000E+00 -0.24347067164E+03  0.26473057221E+03  0.10394377286E+03 0.  0.
    9000005    2    3    3    0    0  0.45655086815E+02 -0.74231271209E+01 -0.64233256140E+02  0.79621034689E+02  0.86086121041E+01 0.  0.
         22    1    3    3    0    0 -0.45655086815E+02  0.74231271209E+01 -0.17923741550E+03  0.18510953752E+03  0.00000000000E+00 0. -1.
         22    1    4    4    0    0  0.12302168324E+02  0.17412598533E+01 -0.15643015201E+02  0.19976968137E+02  0.00000000000E+00 0.  1.
         22    1    4    4    0    0  0.33352918491E+02 -0.91643869741E+01 -0.48590240939E+02  0.59644066553E+02  0.00000000000E+00 0.  1.
<mgrwt>
<rscale>  0 0.10394377E+03</rscale>
<asrwt>0</asrwt>
<pdfrwt beam="2">  1        3 0.39092399E-01 0.10394377E+03</pdfrwt>
<pdfrwt beam="1">  1       -3 0.16353772E-02 0.10394377E+03</pdfrwt>
<totfact> 0.17849594E+04</totfact>
</mgrwt>
</event>
<event>
 7    1  0.1312339E-009  0.9320193E+02  0.7818608E-02  0.1295278E+00
         -3   -1    0    0    0  501 -0.00000000000E+00  0.00000000000E+00  0.53436705037E+02  0.53436800487E+02  0.10100000000E+00 0.  1.
          3   -1    0    0  501    0  0.00000000000E+00 -0.00000000000E+00 -0.40639475210E+02  0.40639600716E+02  0.10100000000E+00 0. -1.
         23    2    1    2    0    0  0.00000000000E+00  0.35527136788E-14  0.12797229828E+02  0.94076401202E+02  0.93201932233E+02 0.  0.
    9000005    2    3    3    0    0 -0.20840112289E+02 -0.31371414538E+02 -0.20263269017E+02  0.43961807378E+02  0.10176664794E+02 0.  0.
         22    1    3    3    0    0  0.20840112289E+02  0.31371414538E+02  0.33060498845E+02  0.50114593825E+02  0.00000000000E+00 0.  1.
         22    1    4    4    0    0 -0.14287355825E+02 -0.12476206346E+02 -0.87954667707E+01  0.20908000789E+02  0.00000000000E+00 0. -1.
         22    1    4    4    0    0 -0.65527564638E+01 -0.18895208192E+02 -0.11467802246E+02  0.23053806589E+02  0.00000000000E+00 0. -1.
<mgrwt>
<rscale>  0 0.93201932E+02</rscale>
<asrwt>0</asrwt>
<pdfrwt beam="2">  1        3 0.62522440E-02 0.93201932E+02</pdfrwt>
<pdfrwt beam="1">  1       -3 0.82210485E-02 0.93201932E+02</pdfrwt>
<totfact> 0.33072302E+04</totfact>
</mgrwt>
</event>
<event>
 7    1  0.1312339E-009  0.1263748E+03  0.7818608E-02  0.1232936E+00
         -3   -1    0    0    0  501 -0.00000000000E+00  0.00000000000E+00  0.15715515562E+01  0.15747937306E+01  0.10100000000E+00 0.  1.
          3   -1    0    0  501    0  0.00000000000E+00 -0.00000000000E+00 -0.25379570303E+04  0.25379570323E+04  0.10100000000E+00 0. -1.
         23    2    1    2    0    0  0.22204460493E-15 -0.35527136788E-14 -0.25363854787E+04  0.25395318260E+04  0.12637483408E+03 0.  0.
    9000005    2    3    3    0    0  0.19856905923E+01 -0.18771815633E+02 -0.24792513671E+04  0.24793601488E+04  0.13530784870E+02 0.  0.
         22    1    3    3    0    0 -0.19856905923E+01  0.18771815633E+02 -0.57134111675E+02  0.60171677276E+02  0.00000000000E+00 0.  1.
         22    1    4    4    0    0  0.20293494180E+00 -0.19899036913E+02 -0.18850363890E+04  0.18851414272E+04  0.00000000000E+00 0.  1.
         22    1    4    4    0    0  0.17827556505E+01  0.11272212797E+01 -0.59421497808E+03  0.59421872153E+03  0.00000000000E+00 0.  1.
<mgrwt>
<rscale>  0 0.12637483E+03</rscale>
<asrwt>0</asrwt>
<pdfrwt beam="2">  1        3 0.39045190E+00 0.12637483E+03</pdfrwt>
<pdfrwt beam="1">  1       -3 0.24202875E-03 0.12637483E+03</pdfrwt>
<totfact> 0.80419292E+02</totfact>
</mgrwt>
</event>
<event>
 7    1  0.1312339E-009  0.1051579E+03  0.7818608E-02  0.1269809E+00
         -3   -1    0    0    0  501 -0.00000000000E+00  0.00000000000E+00  0.77862587030E+02  0.77862652537E+02  0.10100000000E+00 0.  1.
          3   -1    0    0  501    0  0.00000000000E+00 -0.00000000000E+00 -0.35505324597E+02  0.35505468251E+02  0.10100000000E+00 0. -1.
         23    2    1    2    0    0  0.44408920985E-15  0.00000000000E+00  0.42357262433E+02  0.11336812079E+03  0.10515794373E+03 0.  0.
    9000005    2    3    3    0    0  0.20970643482E+01  0.12963054140E+02  0.75625848781E+02  0.77601693945E+02  0.11415579169E+02 0.  0.
         22    1    3    3    0    0 -0.20970643482E+01 -0.12963054140E+02 -0.33268586348E+02  0.35766426843E+02  0.00000000000E+00 0. -1.
         22    1    4    4    0    0 -0.15914920407E+01 -0.15526018316E+01  0.64296274738E+01  0.68031998953E+01  0.00000000000E+00 0.  1.
         22    1    4    4    0    0  0.36885563888E+01  0.14515655972E+02  0.69196221307E+02  0.70798494050E+02  0.00000000000E+00 0.  1.
<mgrwt>
<rscale>  0 0.10515794E+03</rscale>
<asrwt>0</asrwt>
<pdfrwt beam="2">  1        3 0.54623738E-02 0.10515794E+03</pdfrwt>
<pdfrwt beam="1">  1       -3 0.11978876E-01 0.10515794E+03</pdfrwt>
<totfact> 0.22791045E+04</totfact>
</mgrwt>
</event>
<event>
 7    1  0.1312339E-009  0.8847556E+02  0.7818608E-02  0.1306586E+00
          3   -1    0    0  501    0  0.00000000000E+00  0.00000000000E+00  0.29969577579E+02  0.29969747767E+02  0.10100000000E+00 0. -1.
         -3   -1    0    0    0  501 -0.00000000000E+00 -0.00000000000E+00 -0.65298528668E+02  0.65298606779E+02  0.10100000000E+00 0.  1.
         23    2    1    2    0    0  0.00000000000E+00  0.00000000000E+00 -0.35328951090E+02  0.95268354546E+02  0.88475559296E+02 0.  0.
    9000005    2    3    3    0    0  0.29487627302E+02  0.25831975727E+02  0.22534887242E+01  0.40961348403E+02  0.11659447573E+02 0.  0.
         22    1    3    3    0    0 -0.29487627302E+02 -0.25831975727E+02 -0.37582439814E+02  0.54307006143E+02  0.00000000000E+00 0. -1.
         22    1    4    4    0    0 -0.61754327419E+00  0.21541023864E+01  0.14169213319E+01  0.26512606148E+01  0.00000000000E+00 0. -1.
         22    1    4    4    0    0  0.30105170576E+02  0.23677873340E+02  0.83656739236E+00  0.38310087788E+02  0.00000000000E+00 0. -1.
<mgrwt>
<rscale>  0 0.88475559E+02</rscale>
<asrwt>0</asrwt>
<pdfrwt beam="1">  1        3 0.46107234E-02 0.88475559E+02</pdfrwt>
<pdfrwt beam="2">  1       -3 0.10045947E-01 0.88475559E+02</pdfrwt>
<totfact> 0.38006133E+04</totfact>
</mgrwt>
</event>
<event>
 7    1  0.1312339E-009  0.9325989E+02  0.7818608E-02  0.1295144E+00
         -3   -1    0    0    0  501 -0.00000000000E+00  0.00000000000E+00  0.62373158797E+02  0.62373240570E+02  0.10100000000E+00 0.  1.
          3   -1    0    0  501    0  0.00000000000E+00 -0.00000000000E+00 -0.34860199141E+02  0.34860345454E+02  0.10100000000E+00 0. -1.
         23    2    1    2    0    0  0.00000000000E+00 -0.35527136788E-14  0.27512959655E+02  0.97233586024E+02  0.93259891176E+02 0.  0.
    9000005    2    3    3    0    0  0.22552183794E+02 -0.24003353767E+02  0.47875236148E+02  0.58511702161E+02  0.68424460295E+01 0.  0.
         22    1    3    3    0    0 -0.22552183794E+02  0.24003353767E+02 -0.20362276493E+02  0.38721883863E+02  0.00000000000E+00 0. -1.
         22    1    4    4    0    0  0.29092398815E+00 -0.99665466894E+00  0.44025122534E+01  0.45232810478E+01  0.00000000000E+00 0.  1.
         22    1    4    4    0    0  0.22261259806E+02 -0.23006699098E+02  0.43472723894E+02  0.53988421113E+02  0.00000000000E+00 0.  1.
<mgrwt>
<rscale>  0 0.93259891E+02</rscale>
<asrwt>0</asrwt>
<pdfrwt beam="2">  1        3 0.53631252E-02 0.93259891E+02</pdfrwt>
<pdfrwt beam="1">  1       -3 0.95958880E-02 0.93259891E+02</pdfrwt>
<totfact> 0.32792363E+04</totfact>
</mgrwt>
</event>
<event>
 7    1  0.1312339E-009  0.8985792E+02  0.7818608E-02  0.1303196E+00
          3   -1    0    0  501    0  0.00000000000E+00  0.00000000000E+00  0.15186751207E+03  0.15186754565E+03  0.10100000000E+00 0. -1.
         -3   -1    0    0    0  501 -0.00000000000E+00 -0.00000000000E+00 -0.13291696036E+02  0.13292079767E+02  0.10100000000E+00 0.  1.
         23    2    1    2    0    0  0.00000000000E+00  0.00000000000E+00  0.13857581603E+03  0.16515962542E+03  0.89857916068E+02 0.  0.
    9000005    2    3    3    0    0  0.31073658493E+02  0.26439643849E+02  0.10307325481E+03  0.11107581202E+03  0.70080766891E+01 0.  0.
         22    1    3    3    0    0 -0.31073658493E+02 -0.26439643849E+02  0.35502561222E+02  0.54083813404E+02  0.00000000000E+00 0.  1.
         22    1    4    4    0    0  0.24800616185E+02  0.20537954514E+02  0.72848778754E+02  0.79648118024E+02  0.00000000000E+00 0.  1.
         22    1    4    4    0    0  0.62730423076E+01  0.59016893353E+01  0.30224476057E+02  0.31427693993E+02  0.00000000000E+00 0.  1.
<mgrwt>
<rscale>  0 0.89857916E+02</rscale>
<asrwt>0</asrwt>
<pdfrwt beam="1">  1        3 0.23364266E-01 0.89857916E+02</pdfrwt>
<pdfrwt beam="2">  1       -3 0.20449083E-02 0.89857916E+02</pdfrwt>
<totfact> 0.31624194E+04</totfact>
</mgrwt>
</event>
<event>
 7    1  0.1312339E-009  0.9020556E+02  0.7818608E-02  0.1302355E+00
          3   -1    0    0  501    0  0.00000000000E+00  0.00000000000E+00  0.46427778358E+02  0.46427888217E+02  0.10100000000E+00 0. -1.
         -3   -1    0    0    0  501 -0.00000000000E+00 -0.00000000000E+00 -0.43815377627E+02  0.43815494036E+02  0.10100000000E+00 0.  1.
         23    2    1    2    0    0 -0.35527136788E-14  0.00000000000E+00  0.26124007309E+01  0.90243382252E+02  0.90205561928E+02 0.  0.
    9000005    2    3    3    0    0 -0.16843718503E+02 -0.25796592195E+02 -0.31545315604E+02  0.44244201747E+02  0.36424483279E+01 0.  0.
         22    1    3    3    0    0  0.16843718503E+02  0.25796592195E+02  0.34157716335E+02  0.45999180505E+02  0.00000000000E+00 0. -1.
         22    1    4    4    0    0 -0.16018933072E+02 -0.23225761138E+02 -0.29753545310E+02  0.41003849279E+02  0.00000000000E+00 0.  1.
         22    1    4    4    0    0 -0.82478543105E+00 -0.25708310570E+01 -0.17917702940E+01  0.32403524681E+01  0.00000000000E+00 0.  1.
<mgrwt>
<rscale>  0 0.90205562E+02</rscale>
<asrwt>0</asrwt>
<pdfrwt beam="1">  1        3 0.71427525E-02 0.90205562E+02</pdfrwt>
<pdfrwt beam="2">  1       -3 0.67408448E-02 0.90205562E+02</pdfrwt>
<totfact> 0.36457242E+04</totfact>
</mgrwt>
</event>
<event>
 7    1  0.1312339E-009  0.9134813E+02  0.7818608E-02  0.1299619E+00
         -3   -1    0    0    0  501 -0.00000000000E+00  0.00000000000E+00  0.18046952721E+02  0.18047235342E+02  0.10100000000E+00 0.  1.
          3   -1    0    0  501    0  0.00000000000E+00 -0.00000000000E+00 -0.11559284162E+03  0.11559288574E+03  0.10100000000E+00 0. -1.
         23    2    1    2    0    0  0.00000000000E+00  0.00000000000E+00 -0.97545888895E+02  0.13364012108E+03  0.91348133657E+02 0.  0.
    9000005    2    3    3    0    0 -0.35364209276E+02 -0.26728821385E+02 -0.61976470045E+02  0.76804914145E+02  0.96361199203E+01 0.  0.
         22    1    3    3    0    0  0.35364209276E+02  0.26728821385E+02 -0.35569418850E+02  0.56835206938E+02  0.00000000000E+00 0.  1.
         22    1    4    4    0    0 -0.26808022860E+01 -0.29864558283E+01 -0.19777030408E+01  0.44740282329E+01  0.00000000000E+00 0.  1.
         22    1    4    4    0    0 -0.32683406990E+02 -0.23742365557E+02 -0.59998767004E+02  0.72330885912E+02  0.00000000000E+00 0.  1.
<mgrwt>
<rscale>  0 0.91348134E+02</rscale>
<asrwt>0</asrwt>
<pdfrwt beam="2">  1        3 0.17783539E-01 0.91348134E+02</pdfrwt>
<pdfrwt beam="1">  1       -3 0.27764795E-02 0.91348134E+02</pdfrwt>
<totfact> 0.32173535E+04</totfact>
</mgrwt>
</event>
<event>
 7    1  0.1312339E-009  0.9536584E+02  0.7818608E-02  0.1290354E+00
          3   -1    0    0  501    0  0.00000000000E+00  0.00000000000E+00  0.56632496683E+01  0.56641502280E+01  0.10100000000E+00 0.  1.
         -3   -1    0    0    0  501 -0.00000000000E+00 -0.00000000000E+00 -0.40144351941E+03  0.40144353212E+03  0.10100000000E+00 0. -1.
         23    2    1    2    0    0  0.00000000000E+00  0.00000000000E+00 -0.39578026974E+03  0.40710768235E+03  0.95365838256E+02 0.  0.
    9000005    2    3    3    0    0  0.18095298649E+02 -0.14392661428E+02 -0.37509337900E+03  0.37608291829E+03  0.14447488418E+02 0.  0.
         22    1    3    3    0    0 -0.18095298649E+02  0.14392661428E+02 -0.20686890741E+02  0.31024764055E+02  0.00000000000E+00 0.  1.
         22    1    4    4    0    0  0.18784184577E+02 -0.84123014847E+01 -0.32010716300E+03  0.32076815336E+03  0.00000000000E+00 0.  1.
         22    1    4    4    0    0 -0.68888592870E+00 -0.59803599434E+01 -0.54986216002E+02  0.55314764929E+02  0.00000000000E+00 0.  1.
<mgrwt>
<rscale>  0 0.95365838E+02</rscale>
<asrwt>0</asrwt>
<pdfrwt beam="1">  1        3 0.87133975E-03 0.95365838E+02</pdfrwt>
<pdfrwt beam="2">  1       -3 0.61760589E-01 0.95365838E+02</pdfrwt>
<totfact> 0.18071517E+04</totfact>
</mgrwt>
</event>
<event>
 7    1  0.1312339E-009  0.9213022E+02  0.7818608E-02  0.1297774E+00
         -3   -1    0    0    0  501 -0.00000000000E+00  0.00000000000E+00  0.21349798291E+03  0.21349800680E+03  0.10100000000E+00 0.  1.
          3   -1    0    0  501    0  0.00000000000E+00 -0.00000000000E+00 -0.99388971626E+01  0.99394103351E+01  0.10100000000E+00 0. -1.
         23    2    1    2    0    0  0.00000000000E+00  0.00000000000E+00  0.20355908575E+03  0.22343741714E+03  0.92130222977E+02 0.  0.
    9000005    2    3    3    0    0  0.26066482969E+02 -0.33933099643E+02  0.66793390329E+02  0.80134338909E+02  0.11368311001E+02 0.  0.
         22    1    3    3    0    0 -0.26066482969E+02  0.33933099643E+02  0.13676569542E+03  0.14330307823E+03  0.00000000000E+00 0.  1.
         22    1    4    4    0    0  0.24337578399E+02 -0.24670883609E+02  0.55443844125E+02  0.65383408230E+02  0.00000000000E+00 0. -1.
         22    1    4    4    0    0  0.17289045704E+01 -0.92622160342E+01  0.11349546203E+02  0.14750930679E+02  0.00000000000E+00 0. -1.
<mgrwt>
<rscale>  0 0.92130223E+02</rscale>
<asrwt>0</asrwt>
<pdfrwt beam="2">  1        3 0.15291024E-02 0.92130223E+02</pdfrwt>
<pdfrwt beam="1">  1       -3 0.32845884E-01 0.92130223E+02</pdfrwt>
<totfact> 0.26571177E+04</totfact>
</mgrwt>
</event>
<event>
 7    1  0.1312339E-009  0.8948314E+02  0.7818608E-02  0.1304108E+00
         -3   -1    0    0    0  501 -0.00000000000E+00  0.00000000000E+00  0.41425152425E+02  0.41425275551E+02  0.10100000000E+00 0.  1.
          3   -1    0    0  501    0  0.00000000000E+00 -0.00000000000E+00 -0.48323251103E+02  0.48323356652E+02  0.10100000000E+00 0. -1.
         23    2    1    2    0    0 -0.22204460493E-15  0.00000000000E+00 -0.68980986773E+01  0.89748632203E+02  0.89483144876E+02 0.  0.
    9000005    2    3    3    0    0  0.17465948740E+01  0.31446037152E+02 -0.35293276166E+02  0.47343562331E+02  0.19732474125E+01 0.  0.
         22    1    3    3    0    0 -0.17465948740E+01 -0.31446037152E+02  0.28395177489E+02  0.42405069872E+02  0.00000000000E+00 0.  1.
         22    1    4    4    0    0  0.13370952287E+01  0.25866407756E+02 -0.30103475987E+02  0.39712443143E+02  0.00000000000E+00 0. -1.
         22    1    4    4    0    0  0.40949964537E+00  0.55796293958E+01 -0.51898001791E+01  0.76311191875E+01  0.00000000000E+00 0. -1.
<mgrwt>
<rscale>  0 0.89483145E+02</rscale>
<asrwt>0</asrwt>
<pdfrwt beam="2">  1        3 0.74343639E-02 0.89483145E+02</pdfrwt>
<pdfrwt beam="1">  1       -3 0.63731180E-02 0.89483145E+02</pdfrwt>
<totfact> 0.37302629E+04</totfact>
</mgrwt>
</event>
<event>
 7    1  0.1312339E-009  0.9259236E+02  0.7818608E-02  0.1296693E+00
         -3   -1    0    0    0  501 -0.00000000000E+00  0.00000000000E+00  0.20094772825E+03  0.20094775364E+03  0.10100000000E+00 0.  1.
          3   -1    0    0  501    0  0.00000000000E+00 -0.00000000000E+00 -0.10665873342E+02  0.10666351539E+02  0.10100000000E+00 0. -1.
         23    2    1    2    0    0 -0.88817841970E-15  0.00000000000E+00  0.19028185491E+03  0.21161410517E+03  0.92592360376E+02 0.  0.
    9000005    2    3    3    0    0  0.64735647078E+01 -0.16314986681E+02  0.19277740571E+03  0.19388521338E+03  0.10966402463E+02 0.  0.
         22    1    3    3    0    0 -0.64735647078E+01  0.16314986681E+02 -0.24955508030E+01  0.17728891794E+02  0.00000000000E+00 0. -1.
         22    1    4    4    0    0 -0.25501556504E+01 -0.31900310730E+01  0.22774037096E+02  0.23137336877E+02  0.00000000000E+00 0. -1.
         22    1    4    4    0    0  0.90237203582E+01 -0.13124955608E+02  0.17000336862E+03  0.17074787650E+03  0.00000000000E+00 0. -1.
<mgrwt>
<rscale>  0 0.92592360E+02</rscale>
<asrwt>0</asrwt>
<pdfrwt beam="2">  1        3 0.16409423E-02 0.92592360E+02</pdfrwt>
<pdfrwt beam="1">  1       -3 0.30915074E-01 0.92592360E+02</pdfrwt>
<totfact> 0.26769172E+04</totfact>
</mgrwt>
</event>
<event>
 7    1  0.1312339E-009  0.8879276E+02  0.7818608E-02  0.1305802E+00
         -3   -1    0    0    0  501 -0.00000000000E+00  0.00000000000E+00  0.11416725861E+03  0.11416730329E+03  0.10100000000E+00 0.  1.
          3   -1    0    0  501    0  0.00000000000E+00 -0.00000000000E+00 -0.17264285089E+02  0.17264580523E+02  0.10100000000E+00 0. -1.
         23    2    1    2    0    0  0.00000000000E+00  0.00000000000E+00  0.96902973523E+02  0.13143188381E+03  0.88792757611E+02 0.  0.
    9000005    2    3    3    0    0  0.23945732884E+02  0.34741382471E+02  0.35981526579E+02  0.57325308683E+02  0.14531310375E+02 0.  0.
         22    1    3    3    0    0 -0.23945732884E+02 -0.34741382471E+02  0.60921446943E+02  0.74106575127E+02  0.00000000000E+00 0. -1.
         22    1    4    4    0    0  0.25450744219E+02  0.30545185002E+02  0.29720002640E+02  0.49638969218E+02  0.00000000000E+00 0.  1.
         22    1    4    4    0    0 -0.15050113353E+01  0.41961974697E+01  0.62615239397E+01  0.76863394650E+01  0.00000000000E+00 0.  1.
<mgrwt>
<rscale>  0 0.88792758E+02</rscale>
<asrwt>0</asrwt>
<pdfrwt beam="2">  1        3 0.26560701E-02 0.88792758E+02</pdfrwt>
<pdfrwt beam="1">  1       -3 0.17564219E-01 0.88792758E+02</pdfrwt>
<totfact> 0.34896449E+04</totfact>
</mgrwt>
</event>
<event>
 7    1  0.1312339E-009  0.9420900E+02  0.7818608E-02  0.1292968E+00
         -3   -1    0    0    0  501 -0.00000000000E+00  0.00000000000E+00  0.57259620687E+02  0.57259709763E+02  0.10100000000E+00 0.  1.
          3   -1    0    0  501    0  0.00000000000E+00 -0.00000000000E+00 -0.38750227926E+02  0.38750359550E+02  0.10100000000E+00 0. -1.
         23    2    1    2    0    0  0.00000000000E+00  0.00000000000E+00  0.18509392761E+02  0.96010069314E+02  0.94209000575E+02 0.  0.
    9000005    2    3    3    0    0 -0.27405506752E+02  0.19393498203E+02  0.41199393998E+02  0.55488399444E+02  0.15950010474E+02 0.  0.
         22    1    3    3    0    0  0.27405506752E+02 -0.19393498203E+02 -0.22690001237E+02  0.40521669870E+02  0.00000000000E+00 0. -1.
         22    1    4    4    0    0 -0.11443284624E+02  0.10836471517E+02  0.80094098541E+01  0.17678476296E+02  0.00000000000E+00 0. -1.
         22    1    4    4    0    0 -0.15962222128E+02  0.85570266854E+01  0.33189984144E+02  0.37809923148E+02  0.00000000000E+00 0. -1.
<mgrwt>
<rscale>  0 0.94209001E+02</rscale>
<asrwt>0</asrwt>
<pdfrwt beam="2">  1        3 0.59615905E-02 0.94209001E+02</pdfrwt>
<pdfrwt beam="1">  1       -3 0.88091894E-02 0.94209001E+02</pdfrwt>
<totfact> 0.31981018E+04</totfact>
</mgrwt>
</event>
<event>
 7    1  0.1312339E-009  0.8103417E+02  0.7818608E-02  0.1326142E+00
         -3   -1    0    0    0  501 -0.00000000000E+00  0.00000000000E+00  0.16629853282E+02  0.16630159987E+02  0.10100000000E+00 0.  1.
          3   -1    0    0  501    0  0.00000000000E+00 -0.00000000000E+00 -0.98714861562E+02  0.98714913231E+02  0.10100000000E+00 0. -1.
         23    2    1    2    0    0 -0.35527136788E-14  0.00000000000E+00 -0.82085008280E+02  0.11534507322E+03  0.81034173849E+02 0.  0.
    9000005    2    3    3    0    0 -0.21521753140E+02 -0.13203446043E+01  0.42300681729E+01  0.26377542112E+02  0.14592877818E+02 0.  0.
         22    1    3    3    0    0  0.21521753140E+02  0.13203446043E+01 -0.86315076453E+02  0.88967531107E+02  0.00000000000E+00 0. -1.
         22    1    4    4    0    0 -0.48854035815E+01  0.13155736589E+00  0.78905830196E+01  0.92814748766E+01  0.00000000000E+00 0.  1.
         22    1    4    4    0    0 -0.16636349559E+02 -0.14519019702E+01 -0.36605148468E+01  0.17096067235E+02  0.00000000000E+00 0.  1.
<mgrwt>
<rscale>  0 0.81034174E+02</rscale>
<asrwt>0</asrwt>
<pdfrwt beam="2">  1        3 0.15186929E-01 0.81034174E+02</pdfrwt>
<pdfrwt beam="1">  1       -3 0.25584666E-02 0.81034174E+02</pdfrwt>
<totfact> 0.46125402E+04</totfact>
</mgrwt>
</event>
<event>
 7    1  0.1312339E-009  0.8667894E+02  0.7818608E-02  0.1311099E+00
         -3   -1    0    0    0  501 -0.00000000000E+00  0.00000000000E+00  0.10394008248E+02  0.10394498951E+02  0.10100000000E+00 0.  1.
          3   -1    0    0  501    0  0.00000000000E+00 -0.00000000000E+00 -0.18070602179E+03  0.18070605002E+03  0.10100000000E+00 0. -1.
         23    2    1    2    0    0  0.00000000000E+00 -0.35527136788E-14 -0.17031201355E+03  0.19110054897E+03  0.86678935496E+02 0.  0.
    9000005    2    3    3    0    0 -0.26352614458E+02 -0.30331991691E+02 -0.59039154170E+02  0.72795269112E+02  0.14108134930E+02 0.  0.
         22    1    3    3    0    0  0.26352614458E+02  0.30331991691E+02 -0.11127285938E+03  0.11830527986E+03  0.00000000000E+00 0. -1.
         22    1    4    4    0    0 -0.13355610749E+02 -0.78139019309E+01 -0.30421579805E+02  0.34130659526E+02  0.00000000000E+00 0. -1.
         22    1    4    4    0    0 -0.12997003709E+02 -0.22518089760E+02 -0.28617574366E+02  0.38664609586E+02  0.00000000000E+00 0. -1.
<mgrwt>
<rscale>  0 0.86678935E+02</rscale>
<asrwt>0</asrwt>
<pdfrwt beam="2">  1        3 0.27800964E-01 0.86678935E+02</pdfrwt>
<pdfrwt beam="1">  1       -3 0.15991182E-02 0.86678935E+02</pdfrwt>
<totfact> 0.33184272E+04</totfact>
</mgrwt>
</event>
<event>
 7    1  0.1312339E-009  0.8883496E+02  0.7818608E-02  0.1305698E+00
          3   -1    0    0  501    0  0.00000000000E+00  0.00000000000E+00  0.14425089636E+02  0.14425443217E+02  0.10100000000E+00 0. -1.
         -3   -1    0    0    0  501 -0.00000000000E+00 -0.00000000000E+00 -0.13676745923E+03  0.13676749652E+03  0.10100000000E+00 0.  1.
         23    2    1    2    0    0  0.00000000000E+00 -0.88817841970E-15 -0.12234236959E+03  0.15119293974E+03  0.88834957247E+02 0.  0.
    9000005    2    3    3    0    0  0.41775342355E+02  0.63746635172E+01 -0.46640076084E+02  0.64494307648E+02  0.14085576240E+02 0.  0.
         22    1    3    3    0    0 -0.41775342355E+02 -0.63746635172E+01 -0.75702293508E+02  0.86698632090E+02  0.00000000000E+00 0.  1.
         22    1    4    4    0    0 -0.48537259121E-01  0.10009585715E+01  0.60300718565E+00  0.11695689776E+01  0.00000000000E+00 0.  1.
         22    1    4    4    0    0  0.41823879614E+02  0.53737049457E+01 -0.47243083270E+02  0.63324738670E+02  0.00000000000E+00 0.  1.
<mgrwt>
<rscale>  0 0.88834957E+02</rscale>
<asrwt>0</asrwt>
<pdfrwt beam="1">  1        3 0.22192747E-02 0.88834957E+02</pdfrwt>
<pdfrwt beam="2">  1       -3 0.21041177E-01 0.88834957E+02</pdfrwt>
<totfact> 0.33508538E+04</totfact>
</mgrwt>
</event>
<event>
 7    1  0.1312339E-009  0.9271315E+02  0.7818608E-02  0.1296411E+00
          3   -1    0    0  501    0  0.00000000000E+00  0.00000000000E+00  0.59704152043E+02  0.59704237472E+02  0.10100000000E+00 0. -1.
         -3   -1    0    0    0  501 -0.00000000000E+00 -0.00000000000E+00 -0.35992827733E+02  0.35992969441E+02  0.10100000000E+00 0.  1.
         23    2    1    2    0    0  0.00000000000E+00  0.00000000000E+00  0.23711324310E+02  0.95697206914E+02  0.92713151767E+02 0.  0.
    9000005    2    3    3    0    0  0.19024920164E+02 -0.28541963721E+02  0.42794657133E+02  0.56444629012E+02  0.13342495452E+02 0.  0.
         22    1    3    3    0    0 -0.19024920164E+02  0.28541963721E+02 -0.19083332823E+02  0.39252577902E+02  0.00000000000E+00 0.  1.
         22    1    4    4    0    0  0.72802043439E+01 -0.10764028739E+02  0.69276459674E+01  0.14726098215E+02  0.00000000000E+00 0. -1.
         22    1    4    4    0    0  0.11744715820E+02 -0.17777934982E+02  0.35867011166E+02  0.41718530797E+02  0.00000000000E+00 0. -1.
<mgrwt>
<rscale>  0 0.92713152E+02</rscale>
<asrwt>0</asrwt>
<pdfrwt beam="1">  1        3 0.91852715E-02 0.92713152E+02</pdfrwt>
<pdfrwt beam="2">  1       -3 0.55373757E-02 0.92713152E+02</pdfrwt>
<totfact> 0.33433359E+04</totfact>
</mgrwt>
</event>
<event>
 7    1  0.1312339E-009  0.9617036E+02  0.7818608E-02  0.1288562E+00
         -3   -1    0    0    0  501 -0.00000000000E+00  0.00000000000E+00  0.19664547029E+03  0.19664549623E+03  0.10100000000E+00 0.  1.
          3   -1    0    0  501    0  0.00000000000E+00 -0.00000000000E+00 -0.11757892962E+02  0.11758326748E+02  0.10100000000E+00 0. -1.
         23    2    1    2    0    0  0.00000000000E+00  0.00000000000E+00  0.18488757733E+03  0.20840382298E+03  0.96170355000E+02 0.  0.
    9000005    2    3    3    0    0 -0.22240721730E+02 -0.24395282180E+02  0.20623331872E+02  0.40855257387E+02  0.12411717968E+02 0.  0.
         22    1    3    3    0    0  0.22240721730E+02  0.24395282180E+02  0.16426424546E+03  0.16754856559E+03  0.00000000000E+00 0.  1.
         22    1    4    4    0    0 -0.29060901970E+01  0.10966282718E+01  0.30444827746E+01  0.43493481310E+01  0.00000000000E+00 0. -1.
         22    1    4    4    0    0 -0.19334631533E+02 -0.25491910452E+02  0.17578849097E+02  0.36505909256E+02  0.00000000000E+00 0. -1.
<mgrwt>
<rscale>  0 0.96170355E+02</rscale>
<asrwt>0</asrwt>
<pdfrwt beam="2">  1        3 0.18089420E-02 0.96170355E+02</pdfrwt>
<pdfrwt beam="1">  1       -3 0.30253184E-01 0.96170355E+02</pdfrwt>
<totfact> 0.24293927E+04</totfact>
</mgrwt>
</event>
<event>
 7    1  0.1312339E-009  0.9099145E+02  0.7818608E-02  0.1300468E+00
         -3   -1    0    0    0  501 -0.00000000000E+00  0.00000000000E+00  0.95512689435E+01  0.95518029413E+01  0.10100000000E+00 0.  1.
          3   -1    0    0  501    0  0.00000000000E+00 -0.00000000000E+00 -0.21670395920E+03  0.21670398274E+03  0.10100000000E+00 0. -1.
         23    2    1    2    0    0  0.00000000000E+00  0.00000000000E+00 -0.20715269026E+03  0.22625578568E+03  0.90991447249E+02 0.  0.
    9000005    2    3    3    0    0 -0.25791975038E+02  0.17558140544E+02 -0.18480977030E+03  0.18787974696E+03  0.13062688987E+02 0.  0.
         22    1    3    3    0    0  0.25791975038E+02 -0.17558140544E+02 -0.22342919963E+02  0.38376038725E+02  0.00000000000E+00 0.  1.
         22    1    4    4    0    0 -0.32936207419E+01  0.87618893392E+01 -0.63725802342E+02  0.64409599645E+02  0.00000000000E+00 0. -1.
         22    1    4    4    0    0 -0.22498354296E+02  0.87962512047E+01 -0.12108396796E+03  0.12347014731E+03  0.00000000000E+00 0. -1.
<mgrwt>
<rscale>  0 0.90991447E+02</rscale>
<asrwt>0</asrwt>
<pdfrwt beam="2">  1        3 0.33339110E-01 0.90991447E+02</pdfrwt>
<pdfrwt beam="1">  1       -3 0.14694690E-02 0.90991447E+02</pdfrwt>
<totfact> 0.27345419E+04</totfact>
</mgrwt>
</event>
<event>
 7    1  0.1312339E-009  0.8874279E+02  0.7818608E-02  0.1305925E+00
         -3   -1    0    0    0  501 -0.00000000000E+00  0.00000000000E+00  0.17129814247E+03  0.17129817224E+03  0.10100000000E+00 0.  1.
          3   -1    0    0  501    0  0.00000000000E+00 -0.00000000000E+00 -0.11493279187E+02  0.11493722960E+02  0.10100000000E+00 0. -1.
         23    2    1    2    0    0  0.00000000000E+00  0.00000000000E+00  0.15980486328E+03  0.18279189520E+03  0.88742789138E+02 0.  0.
    9000005    2    3    3    0    0  0.40460691298E+02 -0.19740230152E+01  0.43253601917E+02  0.59401616686E+02  0.40882366480E+01 0.  0.
         22    1    3    3    0    0 -0.40460691298E+02  0.19740230152E+01  0.11655126136E+03  0.12339027852E+03  0.00000000000E+00 0.  1.
         22    1    4    4    0    0  0.51541549224E+01 -0.10600894349E+01  0.73393444244E+01  0.90307850796E+01  0.00000000000E+00 0.  1.
         22    1    4    4    0    0  0.35306536376E+02 -0.91393358021E+00  0.35914257493E+02  0.50370831606E+02  0.00000000000E+00 0.  1.
<mgrwt>
<rscale>  0 0.88742789E+02</rscale>
<asrwt>0</asrwt>
<pdfrwt beam="2">  1        3 0.17682332E-02 0.88742789E+02</pdfrwt>
<pdfrwt beam="1">  1       -3 0.26353597E-01 0.88742789E+02</pdfrwt>
<totfact> 0.31635951E+04</totfact>
</mgrwt>
</event>
<event>
 7    1  0.1312339E-009  0.9136679E+02  0.7818608E-02  0.1299575E+00
         -3   -1    0    0    0  501 -0.00000000000E+00  0.00000000000E+00  0.23695776435E+03  0.23695778587E+03  0.10100000000E+00 0.  1.
          3   -1    0    0  501    0  0.00000000000E+00 -0.00000000000E+00 -0.88070485950E+01  0.88076277143E+01  0.10100000000E+00 0. -1.
         23    2    1    2    0    0  0.35527136788E-14  0.00000000000E+00  0.22815071575E+03  0.24576541359E+03  0.91366785086E+02 0.  0.
    9000005    2    3    3    0    0  0.14496886366E+02 -0.41749258523E+02  0.97166974862E+02  0.10752684922E+03  0.12939938062E+02 0.  0.
         22    1    3    3    0    0 -0.14496886366E+02  0.41749258523E+02  0.13098374089E+03  0.13823856437E+03  0.00000000000E+00 0.  1.
         22    1    4    4    0    0  0.16089542592E+02 -0.31859483052E+02  0.80891908298E+02  0.88416066805E+02  0.00000000000E+00 0. -1.
         22    1    4    4    0    0 -0.15926562260E+01 -0.98897754705E+01  0.16275066564E+02  0.19110782412E+02  0.00000000000E+00 0. -1.
<mgrwt>
<rscale>  0 0.91366785E+02</rscale>
<asrwt>0</asrwt>
<pdfrwt beam="2">  1        3 0.13549767E-02 0.91366785E+02</pdfrwt>
<pdfrwt beam="1">  1       -3 0.36455090E-01 0.91366785E+02</pdfrwt>
<totfact> 0.26141978E+04</totfact>
</mgrwt>
</event>
<event>
 7    1  0.3364517E-009  0.8906940E+02  0.7818608E-02  0.1305121E+00
         -3   -1    0    0    0  501 -0.00000000000E+00  0.00000000000E+00  0.28026036934E+02  0.28026218925E+02  0.10100000000E+00 0.  1.
          3   -1    0    0  501    0  0.00000000000E+00 -0.00000000000E+00 -0.70767303319E+02  0.70767375394E+02  0.10100000000E+00 0. -1.
         23    2    1    2    0    0  0.00000000000E+00 -0.88817841970E-15 -0.42741266385E+02  0.98793594319E+02  0.89069402301E+02 0.  0.
    9000005    2    3    3    0    0  0.15059678476E+02 -0.37619348024E+01 -0.66692628885E+02  0.70252153660E+02  0.15700709444E+02 0.  0.
         22    1    3    3    0    0 -0.15059678476E+02  0.37619348024E+01  0.23951362500E+02  0.28541440659E+02  0.00000000000E+00 0.  1.
         22    1    4    4    0    0  0.27779875091E+01  0.53956603097E+01 -0.11900831466E+02  0.13358897947E+02  0.00000000000E+00 0.  1.
         22    1    4    4    0    0  0.12281690967E+02 -0.91575951121E+01 -0.54791797419E+02  0.56893255713E+02  0.00000000000E+00 0.  1.
<mgrwt>
<rscale>  0 0.89069402E+02</rscale>
<asrwt>0</asrwt>
<pdfrwt beam="2">  1        3 0.10887297E-01 0.89069402E+02</pdfrwt>
<pdfrwt beam="1">  1       -3 0.43117176E-02 0.89069402E+02</pdfrwt>
<totfact> 0.37038825E+04</totfact>
</mgrwt>
</event>
<event>
 7    1  0.1312339E-009  0.9515700E+02  0.7818608E-02  0.1290823E+00
          3   -1    0    0  501    0  0.00000000000E+00  0.00000000000E+00  0.38947953484E+03  0.38947954794E+03  0.10100000000E+00 0. -1.
         -3   -1    0    0    0  501 -0.00000000000E+00 -0.00000000000E+00 -0.58116984651E+01  0.58125760253E+01  0.10100000000E+00 0.  1.
         23    2    1    2    0    0  0.00000000000E+00  0.00000000000E+00  0.38366783638E+03  0.39529212396E+03  0.95156999727E+02 0.  0.
    9000005    2    3    3    0    0 -0.26799720655E+02  0.20984395190E+02  0.32964358132E+03  0.33143924616E+03  0.53397869385E+01 0.  0.
         22    1    3    3    0    0  0.26799720655E+02 -0.20984395190E+02  0.54024255062E+02  0.63852877803E+02  0.00000000000E+00 0.  1.
         22    1    4    4    0    0 -0.20297115147E+02  0.16057196656E+02  0.27056999133E+03  0.27180494229E+03  0.00000000000E+00 0. -1.
         22    1    4    4    0    0 -0.65026055083E+01  0.49271985338E+01  0.59073589987E+02  0.59634303868E+02  0.00000000000E+00 0. -1.
<mgrwt>
<rscale>  0 0.95157000E+02</rscale>
<asrwt>0</asrwt>
<pdfrwt beam="1">  1        3 0.59919989E-01 0.95157000E+02</pdfrwt>
<pdfrwt beam="2">  1       -3 0.89417609E-03 0.95157000E+02</pdfrwt>
<totfact> 0.18508275E+04</totfact>
</mgrwt>
</event>
<event>
 7    1  0.1312339E-009  0.9158234E+02  0.7818608E-02  0.1299064E+00
         -3   -1    0    0    0  501 -0.00000000000E+00  0.00000000000E+00  0.17895131181E+03  0.17895134031E+03  0.10100000000E+00 0. -1.
          3   -1    0    0  501    0  0.00000000000E+00 -0.00000000000E+00 -0.11717081021E+02  0.11717516318E+02  0.10100000000E+00 0.  1.
         23    2    1    2    0    0  0.00000000000E+00  0.00000000000E+00  0.16723423079E+03  0.19066885663E+03  0.91582339679E+02 0.  0.
    9000005    2    3    3    0    0  0.41530299506E+02 -0.15729966697E+02  0.86188134681E+02  0.98253125699E+02  0.15908630372E+02 0.  0.
         22    1    3    3    0    0 -0.41530299506E+02  0.15729966697E+02  0.81046096106E+02  0.92415730931E+02  0.00000000000E+00 0.  1.
         22    1    4    4    0    0  0.23075873631E+02 -0.54812620912E+00  0.37905608967E+02  0.44380531513E+02  0.00000000000E+00 0.  1.
         22    1    4    4    0    0  0.18454425876E+02 -0.15181840487E+02  0.48282525714E+02  0.53872594186E+02  0.00000000000E+00 0.  1.
<mgrwt>
<rscale>  0 0.91582340E+02</rscale>
<asrwt>0</asrwt>
<pdfrwt beam="2">  1        3 0.18026637E-02 0.91582340E+02</pdfrwt>
<pdfrwt beam="1">  1       -3 0.27531004E-01 0.91582340E+02</pdfrwt>
<totfact> 0.28641785E+04</totfact>
</mgrwt>
</event>
<event>
 7    1  0.2333424E-009  0.9020707E+02  0.7818608E-02  0.1302351E+00
          3   -1    0    0  501    0  0.00000000000E+00  0.00000000000E+00  0.75928628325E+01  0.75935345521E+01  0.10100000000E+00 0.  1.
         -3   -1    0    0    0  501 -0.00000000000E+00 -0.00000000000E+00 -0.26791395407E+03  0.26791397311E+03  0.10100000000E+00 0. -1.
         23    2    1    2    0    0  0.00000000000E+00  0.55511151231E-16 -0.26032109124E+03  0.27550750766E+03  0.90207074190E+02 0.  0.
    9000005    2    3    3    0    0  0.43105932292E+02 -0.42895179528E+00 -0.11224062016E+03  0.12127997667E+03  0.15892467730E+02 0.  0.
         22    1    3    3    0    0 -0.43105932292E+02  0.42895179528E+00 -0.14808047108E+03  0.15422753099E+03  0.00000000000E+00 0. -1.
         22    1    4    4    0    0  0.12336642170E+02  0.30699054374E+01 -0.52173647082E+02  0.53700153717E+02  0.00000000000E+00 0.  1.
         22    1    4    4    0    0  0.30769290122E+02 -0.34988572327E+01 -0.60066973075E+02  0.67579822957E+02  0.00000000000E+00 0.  1.
<mgrwt>
<rscale>  0 0.90207074E+02</rscale>
<asrwt>0</asrwt>
<pdfrwt beam="1">  1        3 0.11681861E-02 0.90207074E+02</pdfrwt>
<pdfrwt beam="2">  1       -3 0.41217577E-01 0.90207074E+02</pdfrwt>
<totfact> 0.25732332E+04</totfact>
</mgrwt>
</event>
<event>
 7    1  0.1312339E-009  0.9079070E+02  0.7818608E-02  0.1300948E+00
         -3   -1    0    0    0  501 -0.00000000000E+00  0.00000000000E+00  0.35664228332E+03  0.35664229762E+03  0.10100000000E+00 0.  1.
          3   -1    0    0  501    0  0.00000000000E+00 -0.00000000000E+00 -0.57777093431E+01  0.57785920650E+01  0.10100000000E+00 0. -1.
         23    2    1    2    0    0  0.00000000000E+00  0.00000000000E+00  0.35086457398E+03  0.36242088969E+03  0.90790704420E+02 0.  0.
    9000005    2    3    3    0    0  0.40253329520E+02  0.11165345901E+01  0.25221320014E+03  0.25586728464E+03  0.15329443601E+02 0.  0.
         22    1    3    3    0    0 -0.40253329520E+02 -0.11165345901E+01  0.98651373841E+02  0.10655360504E+03  0.00000000000E+00 0. -1.
         22    1    4    4    0    0  0.35933622692E+02 -0.11874066203E+01  0.24049371794E+03  0.24316632897E+03  0.00000000000E+00 0.  1.
         22    1    4    4    0    0  0.43197068275E+01  0.23039412104E+01  0.11719482195E+02  0.12700955677E+02  0.00000000000E+00 0.  1.
<mgrwt>
<rscale>  0 0.90790704E+02</rscale>
<asrwt>0</asrwt>
<pdfrwt beam="2">  1        3 0.88894721E-03 0.90790704E+02</pdfrwt>
<pdfrwt beam="1">  1       -3 0.54868122E-01 0.90790704E+02</pdfrwt>
<totfact> 0.22037793E+04</totfact>
</mgrwt>
</event>
<event>
 7    1  0.1312339E-009  0.9033979E+02  0.7818608E-02  0.1302031E+00
          3   -1    0    0  501    0  0.00000000000E+00  0.00000000000E+00  0.12965303260E+03  0.12965307194E+03  0.10100000000E+00 0. -1.
         -3   -1    0    0    0  501 -0.00000000000E+00 -0.00000000000E+00 -0.15736561410E+02  0.15736885524E+02  0.10100000000E+00 0.  1.
         23    2    1    2    0    0  0.00000000000E+00  0.00000000000E+00  0.11391647119E+03  0.14538995746E+03  0.90339788149E+02 0.  0.
    9000005    2    3    3    0    0  0.40960854568E+02 -0.14989441165E+02  0.73326866177E+02  0.85808156647E+02  0.91507098371E+01 0.  0.
         22    1    3    3    0    0 -0.40960854568E+02  0.14989441165E+02  0.40589605012E+02  0.59581800815E+02  0.00000000000E+00 0. -1.
         22    1    4    4    0    0  0.15511979876E+02 -0.94989491745E+01  0.25028146604E+02  0.30939613403E+02  0.00000000000E+00 0. -1.
         22    1    4    4    0    0  0.25448874691E+02 -0.54904919908E+01  0.48298719573E+02  0.54868543244E+02  0.00000000000E+00 0. -1.
<mgrwt>
<rscale>  0 0.90339788E+02</rscale>
<asrwt>0</asrwt>
<pdfrwt beam="1">  1        3 0.19946648E-01 0.90339788E+02</pdfrwt>
<pdfrwt beam="2">  1       -3 0.24210374E-02 0.90339788E+02</pdfrwt>
<totfact> 0.32389317E+04</totfact>
</mgrwt>
</event>
<event>
 7    1  0.1312339E-009  0.8244710E+02  0.7818608E-02  0.1322247E+00
          3   -1    0    0  501    0  0.00000000000E+00  0.00000000000E+00  0.37013372350E+02  0.37013510151E+02  0.10100000000E+00 0. -1.
         -3   -1    0    0    0  501 -0.00000000000E+00 -0.00000000000E+00 -0.45912342530E+02  0.45912453622E+02  0.10100000000E+00 0.  1.
         23    2    1    2    0    0  0.00000000000E+00  0.00000000000E+00 -0.88989701801E+01  0.82925963773E+02  0.82447096961E+02 0.  0.
    9000005    2    3    3    0    0  0.21614308486E+02 -0.26600927556E+02  0.17737205919E+02  0.39517743867E+02  0.85003487160E+01 0.  0.
         22    1    3    3    0    0 -0.21614308486E+02  0.26600927556E+02 -0.26636176100E+02  0.43408219906E+02  0.00000000000E+00 0.  1.
         22    1    4    4    0    0  0.64533381356E+01 -0.31011285539E+01  0.20270574968E+01  0.74412051104E+01  0.00000000000E+00 0. -1.
         22    1    4    4    0    0  0.15160970351E+02 -0.23499799002E+02  0.15710148423E+02  0.32076538756E+02  0.00000000000E+00 0. -1.
<mgrwt>
<rscale>  0 0.82447097E+02</rscale>
<asrwt>0</asrwt>
<pdfrwt beam="1">  1        3 0.56943841E-02 0.82447097E+02</pdfrwt>
<pdfrwt beam="2">  1       -3 0.70634564E-02 0.82447097E+02</pdfrwt>
<totfact> 0.47259100E+04</totfact>
</mgrwt>
</event>
<event>
 7    1  0.1312339E-009  0.9149361E+02  0.7818608E-02  0.1299274E+00
         -3   -1    0    0    0  501 -0.00000000000E+00  0.00000000000E+00  0.93984606204E+02  0.93984660473E+02  0.10100000000E+00 0.  1.
          3   -1    0    0  501    0  0.00000000000E+00 -0.00000000000E+00 -0.22266985539E+02  0.22267214599E+02  0.10100000000E+00 0. -1.
         23    2    1    2    0    0  0.00000000000E+00  0.00000000000E+00  0.71717620665E+02  0.11625187507E+03  0.91493613679E+02 0.  0.
    9000005    2    3    3    0    0 -0.53911954724E+01  0.21365975526E+02  0.86791411502E+02  0.89553765233E+02  0.12481418534E+01 0.  0.
         22    1    3    3    0    0  0.53911954724E+01 -0.21365975526E+02 -0.15073790837E+02  0.26698109839E+02  0.00000000000E+00 0. -1.
         22    1    4    4    0    0 -0.36269500981E+01  0.15533823290E+02  0.64707254168E+02  0.66644453445E+02  0.00000000000E+00 0.  1.
         22    1    4    4    0    0 -0.17642453743E+01  0.58321522358E+01  0.22084157334E+02  0.22909311788E+02  0.00000000000E+00 0.  1.
<mgrwt>
<rscale>  0 0.91493614E+02</rscale>
<asrwt>0</asrwt>
<pdfrwt beam="2">  1        3 0.34257119E-02 0.91493614E+02</pdfrwt>
<pdfrwt beam="1">  1       -3 0.14459192E-01 0.91493614E+02</pdfrwt>
<totfact> 0.33191520E+04</totfact>
</mgrwt>
</event>
<event>
 7    1  0.1312339E-009  0.9192276E+02  0.7818608E-02  0.1298261E+00
          3   -1    0    0  501    0  0.00000000000E+00  0.00000000000E+00  0.14552882180E+03  0.14552885685E+03  0.10100000000E+00 0. -1.
         -3   -1    0    0    0  501 -0.00000000000E+00 -0.00000000000E+00 -0.14515458334E+02  0.14515809714E+02  0.10100000000E+00 0.  1.
         23    2    1    2    0    0  0.00000000000E+00 -0.35527136788E-14  0.13101336347E+03  0.16004466656E+03  0.91922760449E+02 0.  0.
    9000005    2    3    3    0    0 -0.35231223439E+02  0.29480170981E+02  0.63378315430E+02  0.78283922260E+02  0.11144647677E+01 0.  0.
         22    1    3    3    0    0  0.35231223439E+02 -0.29480170981E+02  0.67635048038E+02  0.81760744304E+02  0.00000000000E+00 0.  1.
         22    1    4    4    0    0 -0.11621163359E+02  0.91000760914E+01  0.20707682006E+02  0.25429725062E+02  0.00000000000E+00 0.  1.
         22    1    4    4    0    0 -0.23610060080E+02  0.20380094889E+02  0.42670633424E+02  0.52854197198E+02  0.00000000000E+00 0.  1.
<mgrwt>
<rscale>  0 0.91922760E+02</rscale>
<asrwt>0</asrwt>
<pdfrwt beam="1">  1        3 0.22389080E-01 0.91922760E+02</pdfrwt>
<pdfrwt beam="2">  1       -3 0.22331771E-02 0.91922760E+02</pdfrwt>
<totfact> 0.30032750E+04</totfact>
</mgrwt>
</event>
<event>
 7    1  0.1312339E-009  0.9116608E+02  0.7818608E-02  0.1300052E+00
          3   -1    0    0  501    0  0.00000000000E+00  0.00000000000E+00  0.99211352495E+02  0.99211403906E+02  0.10100000000E+00 0. -1.
         -3   -1    0    0    0  501 -0.00000000000E+00 -0.00000000000E+00 -0.20943124695E+02  0.20943368234E+02  0.10100000000E+00 0.  1.
         23    2    1    2    0    0  0.00000000000E+00  0.00000000000E+00  0.78268227800E+02  0.12015477214E+03  0.91166078039E+02 0.  0.
    9000005    2    3    3    0    0  0.33314337277E+02  0.29408968583E+02  0.49863165426E+02  0.67414085096E+02  0.91428169454E+01 0.  0.
         22    1    3    3    0    0 -0.33314337277E+02 -0.29408968583E+02  0.28405062375E+02  0.52740687044E+02  0.00000000000E+00 0.  1.
         22    1    4    4    0    0  0.56807760981E+01  0.84453806485E+01  0.73932504404E+01  0.12579977085E+02  0.00000000000E+00 0. -1.
         22    1    4    4    0    0  0.27633561179E+02  0.20963587935E+02  0.42469914985E+02  0.54834108011E+02  0.00000000000E+00 0. -1.
<mgrwt>
<rscale>  0 0.91166078E+02</rscale>
<asrwt>0</asrwt>
<pdfrwt beam="1">  1        3 0.15263307E-01 0.91166078E+02</pdfrwt>
<pdfrwt beam="2">  1       -3 0.32220419E-02 0.91166078E+02</pdfrwt>
<totfact> 0.33246362E+04</totfact>
</mgrwt>
</event>
<event>
 7    1  0.1312339E-009  0.9147311E+02  0.7818608E-02  0.1299323E+00
         -3   -1    0    0    0  501 -0.00000000000E+00  0.00000000000E+00  0.32300764615E+02  0.32300922521E+02  0.10100000000E+00 0.  1.
          3   -1    0    0  501    0  0.00000000000E+00 -0.00000000000E+00 -0.64760719361E+02  0.64760798120E+02  0.10100000000E+00 0. -1.
         23    2    1    2    0    0  0.00000000000E+00  0.00000000000E+00 -0.32459954746E+02  0.97061720641E+02  0.91473105073E+02 0.  0.
    9000005    2    3    3    0    0 -0.12063751384E+02  0.34520417111E+02 -0.43736909291E+02  0.58794724433E+02  0.14377381257E+02 0.  0.
         22    1    3    3    0    0  0.12063751384E+02 -0.34520417111E+02  0.11276954545E+02  0.38266996208E+02  0.00000000000E+00 0.  1.
         22    1    4    4    0    0 -0.94940415150E+01  0.77387220014E+01 -0.11445069763E+02  0.16763480079E+02  0.00000000000E+00 0.  1.
         22    1    4    4    0    0 -0.25697098691E+01  0.26781695110E+02 -0.32291839529E+02  0.42031244354E+02  0.00000000000E+00 0.  1.
<mgrwt>
<rscale>  0 0.91473105E+02</rscale>
<asrwt>0</asrwt>
<pdfrwt beam="2">  1        3 0.99632058E-02 0.91473105E+02</pdfrwt>
<pdfrwt beam="1">  1       -3 0.49693666E-02 0.91473105E+02</pdfrwt>
<totfact> 0.34583004E+04</totfact>
</mgrwt>
</event>
<event>
 7    1  0.1312339E-009  0.9352715E+02  0.7818608E-02  0.1294528E+00
          3   -1    0    0  501    0  0.00000000000E+00  0.00000000000E+00  0.11697482208E+03  0.11697486569E+03  0.10100000000E+00 0. -1.
         -3   -1    0    0    0  501 -0.00000000000E+00 -0.00000000000E+00 -0.18694709932E+02  0.18694982761E+02  0.10100000000E+00 0.  1.
         23    2    1    2    0    0  0.00000000000E+00  0.11102230246E-15  0.98280112153E+02  0.13566984845E+03  0.93527147574E+02 0.  0.
    9000005    2    3    3    0    0  0.39911020611E+02 -0.61607653627E+00  0.15191149499E+02  0.43490431921E+02  0.82083816322E+01 0.  0.
         22    1    3    3    0    0 -0.39911020611E+02  0.61607653627E+00  0.83088962654E+02  0.92179416528E+02  0.00000000000E+00 0. -1.
         22    1    4    4    0    0  0.67462709243E+01  0.22792908243E+01  0.49046419440E+01  0.86465513729E+01  0.00000000000E+00 0. -1.
         22    1    4    4    0    0  0.33164749687E+02 -0.28953673606E+01  0.10286507555E+02  0.34843880548E+02  0.00000000000E+00 0. -1.
<mgrwt>
<rscale>  0 0.93527148E+02</rscale>
<asrwt>0</asrwt>
<pdfrwt beam="1">  1        3 0.17996151E-01 0.93527148E+02</pdfrwt>
<pdfrwt beam="2">  1       -3 0.28761335E-02 0.93527148E+02</pdfrwt>
<totfact> 0.30053069E+04</totfact>
</mgrwt>
</event>
<event>
 7    1  0.1312339E-009  0.9034599E+02  0.7818608E-02  0.1302016E+00
         -3   -1    0    0    0  501 -0.00000000000E+00  0.00000000000E+00  0.17596336888E+03  0.17596339786E+03  0.10100000000E+00 0.  1.
          3   -1    0    0  501    0  0.00000000000E+00 -0.00000000000E+00 -0.11596480173E+02  0.11596919997E+02  0.10100000000E+00 0. -1.
         23    2    1    2    0    0  0.00000000000E+00  0.00000000000E+00  0.16436688870E+03  0.18756031786E+03  0.90345994562E+02 0.  0.
    9000005    2    3    3    0    0 -0.11276805560E+02 -0.30548105521E+02  0.14688470860E+03  0.15060115505E+03  0.67258595950E+01 0.  0.
         22    1    3    3    0    0  0.11276805560E+02  0.30548105521E+02  0.17482180107E+02  0.36959162813E+02  0.00000000000E+00 0. -1.
         22    1    4    4    0    0 -0.48572578716E+01 -0.68829062084E+01  0.29301496316E+02  0.30488441060E+02  0.00000000000E+00 0. -1.
         22    1    4    4    0    0 -0.64195476884E+01 -0.23665199313E+02  0.11758321228E+03  0.12011271398E+03  0.00000000000E+00 0. -1.
<mgrwt>
<rscale>  0 0.90345995E+02</rscale>
<asrwt>0</asrwt>
<pdfrwt beam="2">  1        3 0.17841102E-02 0.90345995E+02</pdfrwt>
<pdfrwt beam="1">  1       -3 0.27071319E-01 0.90345995E+02</pdfrwt>
<totfact> 0.29882546E+04</totfact>
</mgrwt>
</event>
<event>
 7    1  0.1312339E-009  0.9570847E+02  0.7818608E-02  0.1289588E+00
         -3   -1    0    0    0  501 -0.00000000000E+00  0.00000000000E+00  0.38770221095E+02  0.38770352652E+02  0.10100000000E+00 0.  1.
          3   -1    0    0  501    0  0.00000000000E+00 -0.00000000000E+00 -0.59066394516E+02  0.59066480868E+02  0.10100000000E+00 0. -1.
         23    2    1    2    0    0  0.00000000000E+00 -0.17763568394E-14 -0.20296173421E+02  0.97836833520E+02  0.95708470564E+02 0.  0.
    9000005    2    3    3    0    0 -0.26591184552E+02 -0.10030390388E+02  0.27603357006E+02  0.42140650147E+02  0.14359291404E+02 0.  0.
         22    1    3    3    0    0  0.26591184552E+02  0.10030390388E+02 -0.47899530427E+02  0.55696183373E+02  0.00000000000E+00 0. -1.
         22    1    4    4    0    0 -0.48972001957E+01 -0.16031538173E+01 -0.10166661436E+01  0.52522644608E+01  0.00000000000E+00 0. -1.
         22    1    4    4    0    0 -0.21693984356E+02 -0.84272365709E+01  0.28620023149E+02  0.36888385686E+02  0.00000000000E+00 0. -1.
<mgrwt>
<rscale>  0 0.95708471E+02</rscale>
<asrwt>0</asrwt>
<pdfrwt beam="2">  1        3 0.90871544E-02 0.95708471E+02</pdfrwt>
<pdfrwt beam="1">  1       -3 0.59646661E-02 0.95708471E+02</pdfrwt>
<totfact> 0.30507004E+04</totfact>
</mgrwt>
</event>
<event>
 7    1  0.1312339E-009  0.9048843E+02  0.7818608E-02  0.1301673E+00
         -3   -1    0    0    0  501 -0.00000000000E+00  0.00000000000E+00  0.75391788340E+01  0.75398553362E+01  0.10100000000E+00 0.  1.
          3   -1    0    0  501    0  0.00000000000E+00 -0.00000000000E+00 -0.27150727396E+03  0.27150729275E+03  0.10100000000E+00 0. -1.
         23    2    1    2    0    0  0.71054273576E-14  0.00000000000E+00 -0.26396809513E+03  0.27904714808E+03  0.90488428035E+02 0.  0.
    9000005    2    3    3    0    0  0.38742098344E+02  0.16864019045E+02 -0.18082231445E+03  0.18578104402E+03  0.57045238280E+01 0.  0.
         22    1    3    3    0    0 -0.38742098344E+02 -0.16864019045E+02 -0.83145780673E+02  0.93266104058E+02  0.00000000000E+00 0.  1.
         22    1    4    4    0    0  0.33511847350E+02  0.14649103679E+02 -0.14677142544E+03  0.15125968226E+03  0.00000000000E+00 0. -1.
         22    1    4    4    0    0  0.52302509942E+01  0.22149153653E+01 -0.34050889015E+02  0.34521361767E+02  0.00000000000E+00 0. -1.
<mgrwt>
<rscale>  0 0.90488428E+02</rscale>
<asrwt>0</asrwt>
<pdfrwt beam="2">  1        3 0.41770396E-01 0.90488428E+02</pdfrwt>
<pdfrwt beam="1">  1       -3 0.11599274E-02 0.90488428E+02</pdfrwt>
<totfact> 0.25375901E+04</totfact>
</mgrwt>
</event>
<event>
 7    1  0.1312339E-009  0.9017259E+02  0.7818608E-02  0.1302434E+00
          3   -1    0    0  501    0  0.00000000000E+00  0.00000000000E+00  0.17259414034E+02  0.17259709551E+02  0.10100000000E+00 0. -1.
         -3   -1    0    0    0  501 -0.00000000000E+00 -0.00000000000E+00 -0.11777636200E+03  0.11777640531E+03  0.10100000000E+00 0.  1.
         23    2    1    2    0    0  0.00000000000E+00  0.00000000000E+00 -0.10051694797E+03  0.13503611486E+03  0.90172587229E+02 0.  0.
    9000005    2    3    3    0    0  0.19783554279E+02  0.13419487242E+02 -0.10716228015E+03  0.11022418028E+03  0.97027816802E+01 0.  0.
         22    1    3    3    0    0 -0.19783554279E+02 -0.13419487242E+02  0.66453321872E+01  0.24811934581E+02  0.00000000000E+00 0. -1.
         22    1    4    4    0    0  0.88320183006E+01  0.33825937852E+01 -0.24986804318E+02  0.26716790189E+02  0.00000000000E+00 0.  1.
         22    1    4    4    0    0  0.10951535979E+02  0.10036893457E+02 -0.82175475836E+02  0.83507390088E+02  0.00000000000E+00 0.  1.
<mgrwt>
<rscale>  0 0.90172587E+02</rscale>
<asrwt>0</asrwt>
<pdfrwt beam="1">  1        3 0.26553206E-02 0.90172587E+02</pdfrwt>
<pdfrwt beam="2">  1       -3 0.18119466E-01 0.90172587E+02</pdfrwt>
<totfact> 0.33230535E+04</totfact>
</mgrwt>
</event>
<event>
 7    1  0.1312339E-009  0.9157130E+02  0.7818608E-02  0.1299091E+00
         -3   -1    0    0    0  501 -0.00000000000E+00  0.00000000000E+00  0.49686617264E+02  0.49686719917E+02  0.10100000000E+00 0.  1.
          3   -1    0    0  501    0  0.00000000000E+00 -0.00000000000E+00 -0.42190750565E+02  0.42190871456E+02  0.10100000000E+00 0. -1.
         23    2    1    2    0    0  0.00000000000E+00  0.00000000000E+00  0.74958666990E+01  0.91877591373E+02  0.91571304343E+02 0.  0.
    9000005    2    3    3    0    0  0.80696982153E+01 -0.31670412475E+02  0.35597553382E+02  0.48774924982E+02  0.66085130369E+01 0.  0.
         22    1    3    3    0    0 -0.80696982153E+01  0.31670412475E+02 -0.28101686683E+02  0.43102666392E+02  0.00000000000E+00 0. -1.
         22    1    4    4    0    0  0.32660165276E+01 -0.68657292045E+01  0.50249644232E+01  0.91134718369E+01  0.00000000000E+00 0.  1.
         22    1    4    4    0    0  0.48036816877E+01 -0.24804683271E+02  0.30572588959E+02  0.39661453145E+02  0.00000000000E+00 0.  1.
<mgrwt>
<rscale>  0 0.91571304E+02</rscale>
<asrwt>0</asrwt>
<pdfrwt beam="2">  1        3 0.64909019E-02 0.91571304E+02</pdfrwt>
<pdfrwt beam="1">  1       -3 0.76441122E-02 0.91571304E+02</pdfrwt>
<totfact> 0.34871702E+04</totfact>
</mgrwt>
</event>
<event>
 7    1  0.1312339E-009  0.9819878E+02  0.7818608E-02  0.1284130E+00
         -3   -1    0    0    0  501 -0.00000000000E+00  0.00000000000E+00  0.27831064299E+01  0.27849384913E+01  0.10100000000E+00 0.  1.
          3   -1    0    0  501    0  0.00000000000E+00 -0.00000000000E+00 -0.86592158154E+03  0.86592158743E+03  0.10100000000E+00 0. -1.
         23    2    1    2    0    0  0.00000000000E+00 -0.71054273576E-14 -0.86313847511E+03  0.86870652592E+03  0.98198782901E+02 0.  0.
    9000005    2    3    3    0    0 -0.49809692773E+01  0.42169712988E+02 -0.64548853249E+03  0.64695307664E+03  0.94732803954E+01 0.  0.
         22    1    3    3    0    0  0.49809692773E+01 -0.42169712988E+02 -0.21764994262E+03  0.22175344929E+03  0.00000000000E+00 0.  1.
         22    1    4    4    0    0  0.28169576203E+01  0.97865978399E+01 -0.14429209145E+03  0.14465102973E+03  0.00000000000E+00 0. -1.
         22    1    4    4    0    0 -0.77979268977E+01  0.32383115148E+02 -0.50119644104E+03  0.50230204690E+03  0.00000000000E+00 0. -1.
<mgrwt>
<rscale>  0 0.98198783E+02</rscale>
<asrwt>0</asrwt>
<pdfrwt beam="2">  1        3 0.13321863E+00 0.98198783E+02</pdfrwt>
<pdfrwt beam="1">  1       -3 0.42831229E-03 0.98198783E+02</pdfrwt>
<totfact> 0.94395514E+03</totfact>
</mgrwt>
</event>
<event>
 7    1  0.1312339E-009  0.9038481E+02  0.7818608E-02  0.1301922E+00
         -3   -1    0    0    0  501 -0.00000000000E+00  0.00000000000E+00  0.37594150014E+03  0.37594151370E+03  0.10100000000E+00 0.  1.
          3   -1    0    0  501    0  0.00000000000E+00 -0.00000000000E+00 -0.54321537535E+01  0.54330926185E+01  0.10100000000E+00 0. -1.
         23    2    1    2    0    0  0.00000000000E+00  0.00000000000E+00  0.37050934638E+03  0.38137460632E+03  0.90384813937E+02 0.  0.
    9000005    2    3    3    0    0  0.15978804594E+02  0.38176120021E+02  0.25965473542E+03  0.26304674356E+03  0.77633324675E+01 0.  0.
         22    1    3    3    0    0 -0.15978804594E+02 -0.38176120021E+02  0.11085461096E+03  0.11832786277E+03  0.00000000000E+00 0. -1.
         22    1    4    4    0    0  0.88983585900E+01  0.29810418725E+02  0.19674955121E+03  0.19919394507E+03  0.00000000000E+00 0. -1.
         22    1    4    4    0    0  0.70804460037E+01  0.83657012959E+01  0.62905184214E+02  0.63852798488E+02  0.00000000000E+00 0. -1.
<mgrwt>
<rscale>  0 0.90384814E+02</rscale>
<asrwt>0</asrwt>
<pdfrwt beam="2">  1        3 0.83578942E-03 0.90384814E+02</pdfrwt>
<pdfrwt beam="1">  1       -3 0.57837214E-01 0.90384814E+02</pdfrwt>
<totfact> 0.21675646E+04</totfact>
</mgrwt>
</event>
<event>
 7    1  0.1312339E-009  0.9121819E+02  0.7818608E-02  0.1299928E+00
          3   -1    0    0  501    0  0.00000000000E+00  0.00000000000E+00  0.22150841911E+03  0.22150844214E+03  0.10100000000E+00 0. -1.
         -3   -1    0    0    0  501 -0.00000000000E+00 -0.00000000000E+00 -0.93907222855E+01  0.93912654122E+01  0.10100000000E+00 0.  1.
         23    2    1    2    0    0  0.00000000000E+00 -0.35527136788E-14  0.21211769683E+03  0.23089970755E+03  0.91218187002E+02 0.  0.
    9000005    2    3    3    0    0 -0.98829720328E+01  0.31900360794E+02  0.18276462226E+03  0.18643726113E+03  0.15512544421E+02 0.  0.
         22    1    3    3    0    0  0.98829720328E+01 -0.31900360794E+02  0.29353074572E+02  0.44462446422E+02  0.00000000000E+00 0.  1.
         22    1    4    4    0    0 -0.11331438833E+02  0.10951323375E+02  0.83902410367E+02  0.85369476132E+02  0.00000000000E+00 0. -1.
         22    1    4    4    0    0  0.14484667999E+01  0.20949037419E+02  0.98862211889E+02  0.10106778500E+03  0.00000000000E+00 0. -1.
<mgrwt>
<rscale>  0 0.91218187E+02</rscale>
<asrwt>0</asrwt>
<pdfrwt beam="1">  1        3 0.34078261E-01 0.91218187E+02</pdfrwt>
<pdfrwt beam="2">  1       -3 0.14447701E-02 0.91218187E+02</pdfrwt>
<totfact> 0.26943181E+04</totfact>
</mgrwt>
</event>
<event>
 7    1  0.1312339E-009  0.9263238E+02  0.7818608E-02  0.1296599E+00
          3   -1    0    0  501    0  0.00000000000E+00  0.00000000000E+00  0.11789699191E+02  0.11790131807E+02  0.10100000000E+00 0. -1.
         -3   -1    0    0    0  501 -0.00000000000E+00 -0.00000000000E+00 -0.18195077756E+03  0.18195080559E+03  0.10100000000E+00 0.  1.
         23    2    1    2    0    0  0.00000000000E+00  0.71054273576E-14 -0.17016107837E+03  0.19374093740E+03  0.92632382202E+02 0.  0.
    9000005    2    3    3    0    0 -0.12511869186E+02  0.34376503514E+02 -0.14359615488E+03  0.14853047374E+03  0.10156528331E+02 0.  0.
         22    1    3    3    0    0  0.12511869186E+02 -0.34376503514E+02 -0.26564923483E+02  0.45210463657E+02  0.00000000000E+00 0. -1.
         22    1    4    4    0    0 -0.25337323402E+01  0.21207321274E+02 -0.75972599500E+02  0.78917717592E+02  0.00000000000E+00 0. -1.
         22    1    4    4    0    0 -0.99781368462E+01  0.13169182240E+02 -0.67623555383E+02  0.69612756148E+02  0.00000000000E+00 0. -1.
<mgrwt>
<rscale>  0 0.92632382E+02</rscale>
<asrwt>0</asrwt>
<pdfrwt beam="1">  1        3 0.18138354E-02 0.92632382E+02</pdfrwt>
<pdfrwt beam="2">  1       -3 0.27992461E-01 0.92632382E+02</pdfrwt>
<totfact> 0.27615530E+04</totfact>
</mgrwt>
</event>
<event>
 7    1  0.1312339E-009  0.9247869E+02  0.7818608E-02  0.1296958E+00
         -3   -1    0    0    0  501 -0.00000000000E+00  0.00000000000E+00  0.25450907354E+02  0.25451107759E+02  0.10100000000E+00 0.  1.
          3   -1    0    0  501    0  0.00000000000E+00 -0.00000000000E+00 -0.84007325020E+02  0.84007385735E+02  0.10100000000E+00 0. -1.
         23    2    1    2    0    0  0.00000000000E+00 -0.71054273576E-14 -0.58556417665E+02  0.10945849349E+03  0.92478688075E+02 0.  0.
    9000005    2    3    3    0    0 -0.15685179882E+02  0.42224128526E+02 -0.22524956003E+02  0.51776883536E+02  0.12023731870E+02 0.  0.
         22    1    3    3    0    0  0.15685179882E+02 -0.42224128526E+02 -0.36031461663E+02  0.57681609957E+02  0.00000000000E+00 0.  1.
         22    1    4    4    0    0 -0.55588223995E+01  0.57884035747E+01 -0.78094574039E+01  0.11197934959E+02  0.00000000000E+00 0. -1.
         22    1    4    4    0    0 -0.10126357483E+02  0.36435724951E+02 -0.14715498599E+02  0.40578948577E+02  0.00000000000E+00 0. -1.
<mgrwt>
<rscale>  0 0.92478688E+02</rscale>
<asrwt>0</asrwt>
<pdfrwt beam="2">  1        3 0.12924224E-01 0.92478688E+02</pdfrwt>
<pdfrwt beam="1">  1       -3 0.39155443E-02 0.92478688E+02</pdfrwt>
<totfact> 0.32695589E+04</totfact>
</mgrwt>
</event>
<event>
 7    1  0.1312339E-009  0.9141142E+02  0.7818608E-02  0.1299469E+00
          3   -1    0    0  501    0  0.00000000000E+00  0.00000000000E+00  0.20672678882E+02  0.20672925607E+02  0.10100000000E+00 0. -1.
         -3   -1    0    0    0  501 -0.00000000000E+00 -0.00000000000E+00 -0.10105095415E+03  0.10105100463E+03  0.10100000000E+00 0.  1.
         23    2    1    2    0    0  0.00000000000E+00  0.00000000000E+00 -0.80378275271E+02  0.12172393023E+03  0.91411421913E+02 0.  0.
    9000005    2    3    3    0    0 -0.28502138278E+02  0.28593519096E+02 -0.17113454415E+02  0.46674621253E+02  0.15990269740E+02 0.  0.
         22    1    3    3    0    0  0.28502138278E+02 -0.28593519096E+02 -0.63264820856E+02  0.75049308982E+02  0.00000000000E+00 0.  1.
         22    1    4    4    0    0 -0.23294854130E+01 -0.18426070259E+01  0.15918291758E+00  0.29743977781E+01  0.00000000000E+00 0. -1.
         22    1    4    4    0    0 -0.26172652865E+02  0.30436126122E+02 -0.17272637333E+02  0.43700223475E+02  0.00000000000E+00 0. -1.
<mgrwt>
<rscale>  0 0.91411422E+02</rscale>
<asrwt>0</asrwt>
<pdfrwt beam="1">  1        3 0.31804351E-02 0.91411422E+02</pdfrwt>
<pdfrwt beam="2">  1       -3 0.15546323E-01 0.91411422E+02</pdfrwt>
<totfact> 0.32899723E+04</totfact>
</mgrwt>
</event>
<event>
 7    1  0.1312339E-009  0.9289103E+02  0.7818608E-02  0.1295998E+00
          3   -1    0    0  501    0  0.00000000000E+00  0.00000000000E+00  0.65701076027E+01  0.65708838759E+01  0.10100000000E+00 0. -1.
         -3   -1    0    0    0  501 -0.00000000000E+00 -0.00000000000E+00 -0.32831325762E+03  0.32831327315E+03  0.10100000000E+00 0.  1.
         23    2    1    2    0    0  0.00000000000E+00  0.00000000000E+00 -0.32174315001E+03  0.33488415703E+03  0.92891033192E+02 0.  0.
    9000005    2    3    3    0    0 -0.12995556683E+02 -0.43642837322E+02 -0.18606399986E+03  0.19176737419E+03  0.90184265398E+01 0.  0.
         22    1    3    3    0    0  0.12995556683E+02  0.43642837322E+02 -0.13567915016E+03  0.14311678284E+03  0.00000000000E+00 0. -1.
         22    1    4    4    0    0 -0.97613891127E+01 -0.28985469263E+02 -0.14065508958E+03  0.14394198960E+03  0.00000000000E+00 0.  1.
         22    1    4    4    0    0 -0.32341675706E+01 -0.14657368060E+02 -0.45408910281E+02  0.47825384591E+02  0.00000000000E+00 0.  1.
<mgrwt>
<rscale>  0 0.92891033E+02</rscale>
<asrwt>0</asrwt>
<pdfrwt beam="1">  1        3 0.10108470E-02 0.92891033E+02</pdfrwt>
<pdfrwt beam="2">  1       -3 0.50509780E-01 0.92891033E+02</pdfrwt>
<totfact> 0.21621776E+04</totfact>
</mgrwt>
</event>
<event>
 7    1  0.1312339E-009  0.9269745E+02  0.7818608E-02  0.1296448E+00
         -3   -1    0    0    0  501 -0.00000000000E+00  0.00000000000E+00  0.16045320171E+02  0.16045638049E+02  0.10100000000E+00 0. -1.
          3   -1    0    0  501    0  0.00000000000E+00 -0.00000000000E+00 -0.13388186941E+03  0.13388190750E+03  0.10100000000E+00 0.  1.
         23    2    1    2    0    0  0.88817841970E-15  0.71054273576E-14 -0.11783654924E+03  0.14992754555E+03  0.92697446458E+02 0.  0.
    9000005    2    3    3    0    0 -0.32469934873E+01 -0.44250108931E+02 -0.45465179426E+02  0.65038027500E+02  0.13937265649E+02 0.  0.
         22    1    3    3    0    0  0.32469934873E+01  0.44250108931E+02 -0.72371369810E+02  0.84889518053E+02  0.00000000000E+00 0.  1.
         22    1    4    4    0    0 -0.74828930607E+01 -0.37339330170E+02 -0.40192337542E+02  0.55368251401E+02  0.00000000000E+00 0. -1.
         22    1    4    4    0    0  0.42358995734E+01 -0.69107787606E+01 -0.52728418840E+01  0.96697760992E+01  0.00000000000E+00 0. -1.
<mgrwt>
<rscale>  0 0.92697446E+02</rscale>
<asrwt>0</asrwt>
<pdfrwt beam="2">  1        3 0.20597237E-01 0.92697446E+02</pdfrwt>
<pdfrwt beam="1">  1       -3 0.24685383E-02 0.92697446E+02</pdfrwt>
<totfact> 0.29936549E+04</totfact>
</mgrwt>
</event>
<event>
 7    1  0.1312339E-009  0.9175356E+02  0.7818608E-02  0.1298660E+00
          3   -1    0    0  501    0  0.00000000000E+00  0.00000000000E+00  0.61293053399E+01  0.61301374332E+01  0.10100000000E+00 0. -1.
         -3   -1    0    0    0  501 -0.00000000000E+00 -0.00000000000E+00 -0.34335550802E+03  0.34335552288E+03  0.10100000000E+00 0.  1.
         23    2    1    2    0    0  0.00000000000E+00  0.00000000000E+00 -0.33722620268E+03  0.34948566031E+03  0.91753555719E+02 0.  0.
    9000005    2    3    3    0    0 -0.22188228556E+02 -0.14023253729E+02 -0.31163165513E+03  0.31282437288E+03  0.74719914848E+01 0.  0.
         22    1    3    3    0    0  0.22188228556E+02  0.14023253729E+02 -0.25594547548E+02  0.36661287427E+02  0.00000000000E+00 0. -1.
         22    1    4    4    0    0 -0.15839070957E+02 -0.77985540184E+01 -0.23885160849E+03  0.23950320351E+03  0.00000000000E+00 0.  1.
         22    1    4    4    0    0 -0.63491575992E+01 -0.62246997106E+01 -0.72780046648E+02  0.73321169377E+02  0.00000000000E+00 0.  1.
<mgrwt>
<rscale>  0 0.91753556E+02</rscale>
<asrwt>0</asrwt>
<pdfrwt beam="1">  1        3 0.94303547E-03 0.91753556E+02</pdfrwt>
<pdfrwt beam="2">  1       -3 0.52823975E-01 0.91753556E+02</pdfrwt>
<totfact> 0.21850824E+04</totfact>
</mgrwt>
</event>
<event>
 7    1  0.1312339E-009  0.8998421E+02  0.7818608E-02  0.1302890E+00
         -3   -1    0    0    0  501 -0.00000000000E+00  0.00000000000E+00  0.41989924945E+02  0.41990046415E+02  0.10100000000E+00 0.  1.
          3   -1    0    0  501    0  0.00000000000E+00 -0.00000000000E+00 -0.48208692987E+02  0.48208798787E+02  0.10100000000E+00 0. -1.
         23    2    1    2    0    0  0.00000000000E+00 -0.17763568394E-14 -0.62187680413E+01  0.90198845202E+02  0.89984213058E+02 0.  0.
    9000005    2    3    3    0    0 -0.16078692959E+02  0.13151870541E+02  0.36818374141E+02  0.42410858497E+02  0.34047287839E+01 0.  0.
         22    1    3    3    0    0  0.16078692959E+02 -0.13151870541E+02 -0.43037142183E+02  0.47787986704E+02  0.00000000000E+00 0. -1.
         22    1    4    4    0    0 -0.63353653120E+01  0.72751721611E+01  0.17910673341E+02  0.20343480605E+02  0.00000000000E+00 0.  1.
         22    1    4    4    0    0 -0.97433276470E+01  0.58766983797E+01  0.18907700800E+02  0.22067377892E+02  0.00000000000E+00 0.  1.
<mgrwt>
<rscale>  0 0.89984213E+02</rscale>
<asrwt>0</asrwt>
<pdfrwt beam="2">  1        3 0.74167394E-02 0.89984213E+02</pdfrwt>
<pdfrwt beam="1">  1       -3 0.64600060E-02 0.89984213E+02</pdfrwt>
<totfact> 0.36705042E+04</totfact>
</mgrwt>
</event>
<event>
 7    1  0.1312339E-009  0.9056297E+02  0.7818608E-02  0.1301494E+00
         -3   -1    0    0    0  501 -0.00000000000E+00  0.00000000000E+00  0.97863769210E+02  0.97863821329E+02  0.10100000000E+00 0.  1.
          3   -1    0    0  501    0  0.00000000000E+00 -0.00000000000E+00 -0.20951524002E+02  0.20951767444E+02  0.10100000000E+00 0. -1.
         23    2    1    2    0    0  0.35527136788E-14 -0.71054273576E-14  0.76912245208E+02  0.11881558877E+03  0.90562965237E+02 0.  0.
    9000005    2    3    3    0    0 -0.23547287940E+02  0.35435612003E+02  0.23345370478E+02  0.50408224873E+02  0.13631780689E+02 0.  0.
         22    1    3    3    0    0  0.23547287940E+02 -0.35435612003E+02  0.53566874730E+02  0.68407363900E+02  0.00000000000E+00 0.  1.
         22    1    4    4    0    0 -0.22403878610E+01  0.14878177470E+02  0.86381835503E+01  0.17349285796E+02  0.00000000000E+00 0.  1.
         22    1    4    4    0    0 -0.21306900079E+02  0.20557434533E+02  0.14707186928E+02  0.33058939077E+02  0.00000000000E+00 0.  1.
<mgrwt>
<rscale>  0 0.90562965E+02</rscale>
<asrwt>0</asrwt>
<pdfrwt beam="2">  1        3 0.32233342E-02 0.90562965E+02</pdfrwt>
<pdfrwt beam="1">  1       -3 0.15055987E-01 0.90562965E+02</pdfrwt>
<totfact> 0.33945598E+04</totfact>
</mgrwt>
</event>
<event>
 7    1  0.1312339E-009  0.9148084E+02  0.7818608E-02  0.1299305E+00
         -3   -1    0    0    0  501 -0.00000000000E+00  0.00000000000E+00  0.69716455602E+01  0.69723771281E+01  0.10100000000E+00 0.  1.
          3   -1    0    0  501    0  0.00000000000E+00 -0.00000000000E+00 -0.30008281153E+03  0.30008282853E+03  0.10100000000E+00 0. -1.
         23    2    1    2    0    0  0.00000000000E+00  0.00000000000E+00 -0.29311116597E+03  0.30705520566E+03  0.91480837905E+02 0.  0.
    9000005    2    3    3    0    0 -0.12732690918E+02 -0.11006674650E+02 -0.28880814227E+03  0.28968326513E+03  0.14932606874E+02 0.  0.
         22    1    3    3    0    0  0.12732690918E+02  0.11006674650E+02 -0.43030237039E+01  0.17371940533E+02  0.00000000000E+00 0.  1.
         22    1    4    4    0    0 -0.85428861471E+01 -0.58006991169E+01 -0.25564875060E+03  0.25585721154E+03  0.00000000000E+00 0.  1.
         22    1    4    4    0    0 -0.41898047710E+01 -0.52059755333E+01 -0.33159391666E+02  0.33826053582E+02  0.00000000000E+00 0.  1.
<mgrwt>
<rscale>  0 0.91480838E+02</rscale>
<asrwt>0</asrwt>
<pdfrwt beam="2">  1        3 0.46166634E-01 0.91480838E+02</pdfrwt>
<pdfrwt beam="1">  1       -3 0.10726187E-02 0.91480838E+02</pdfrwt>
<totfact> 0.23549222E+04</totfact>
</mgrwt>
</event>
<event>
 7    1  0.1312339E-009  0.8441895E+02  0.7818608E-02  0.1316959E+00
          3   -1    0    0  501    0  0.00000000000E+00  0.00000000000E+00  0.35423266149E+03  0.35423267589E+03  0.10100000000E+00 0. -1.
         -3   -1    0    0    0  501 -0.00000000000E+00 -0.00000000000E+00 -0.50290531133E+01  0.50300672178E+01  0.10100000000E+00 0.  1.
         23    2    1    2    0    0  0.00000000000E+00  0.00000000000E+00  0.34920360838E+03  0.35926274311E+03  0.84418946222E+02 0.  0.
    9000005    2    3    3    0    0  0.26676942734E+02  0.30883500024E+02  0.21096560885E+03  0.21512671582E+03  0.10371398023E+02 0.  0.
         22    1    3    3    0    0 -0.26676942734E+02 -0.30883500024E+02  0.13823799953E+03  0.14413602729E+03  0.00000000000E+00 0.  1.
         22    1    4    4    0    0  0.50399143800E+01  0.12397698961E+02  0.79221004242E+02  0.80343457665E+02  0.00000000000E+00 0.  1.
         22    1    4    4    0    0  0.21637028354E+02  0.18485801063E+02  0.13174460461E+03  0.13478325816E+03  0.00000000000E+00 0.  1.
<mgrwt>
<rscale>  0 0.84418946E+02</rscale>
<asrwt>0</asrwt>
<pdfrwt beam="1">  1        3 0.54497419E-01 0.84418946E+02</pdfrwt>
<pdfrwt beam="2">  1       -3 0.77377949E-03 0.84418946E+02</pdfrwt>
<totfact> 0.26892429E+04</totfact>
</mgrwt>
</event>
<event>
 7    1  0.1416472E-009  0.9509669E+02  0.7818608E-02  0.1290958E+00
          3   -1    0    0  501    0  0.00000000000E+00  0.00000000000E+00  0.47063656518E+02  0.47063764892E+02  0.10100000000E+00 0. -1.
         -3   -1    0    0    0  501 -0.00000000000E+00 -0.00000000000E+00 -0.48037812767E+02  0.48037918944E+02  0.10100000000E+00 0.  1.
         23    2    1    2    0    0  0.00000000000E+00  0.00000000000E+00 -0.97415624929E+00  0.95101683837E+02  0.95096694412E+02 0.  0.
    9000005    2    3    3    0    0  0.14663351782E+02  0.11805600060E+02  0.41981058011E+02  0.48202467314E+02  0.14376458018E+02 0.  0.
         22    1    3    3    0    0 -0.14663351782E+02 -0.11805600060E+02 -0.42955214261E+02  0.46899216523E+02  0.00000000000E+00 0.  1.
         22    1    4    4    0    0  0.37173045577E+01  0.31370329641E+01  0.10783298348E+01  0.49821806696E+01  0.00000000000E+00 0. -1.
         22    1    4    4    0    0  0.10946047225E+02  0.86685670958E+01  0.40902728176E+02  0.43220286644E+02  0.00000000000E+00 0. -1.
<mgrwt>
<rscale>  0 0.95096694E+02</rscale>
<asrwt>0</asrwt>
<pdfrwt beam="1">  1        3 0.72405790E-02 0.95096694E+02</pdfrwt>
<pdfrwt beam="2">  1       -3 0.73904493E-02 0.95096694E+02</pdfrwt>
<totfact> 0.31229444E+04</totfact>
</mgrwt>
</event>
<event>
 7    1  0.1312339E-009  0.9169289E+02  0.7818608E-02  0.1298803E+00
         -3   -1    0    0    0  501 -0.00000000000E+00  0.00000000000E+00  0.32186673400E+03  0.32186674985E+03  0.10100000000E+00 0.  1.
          3   -1    0    0  501    0  0.00000000000E+00 -0.00000000000E+00 -0.65299251962E+01  0.65307062458E+01  0.10100000000E+00 0. -1.
         23    2    1    2    0    0 -0.17763568394E-14  0.00000000000E+00  0.31533680880E+03  0.32839745609E+03  0.91692890572E+02 0.  0.
    9000005    2    3    3    0    0 -0.94937132440E+01  0.35122146878E+02  0.25547016645E+03  0.25834240160E+03  0.12332669161E+02 0.  0.
         22    1    3    3    0    0  0.94937132440E+01 -0.35122146878E+02  0.59866642354E+02  0.70055054488E+02  0.00000000000E+00 0. -1.
         22    1    4    4    0    0  0.81250503626E+00  0.37669847729E+01  0.58438453084E+02  0.58565374903E+02  0.00000000000E+00 0. -1.
         22    1    4    4    0    0 -0.10306218280E+02  0.31355162105E+02  0.19703171336E+03  0.19977702670E+03  0.00000000000E+00 0. -1.
<mgrwt>
<rscale>  0 0.91692891E+02</rscale>
<asrwt>0</asrwt>
<pdfrwt beam="2">  1        3 0.10046652E-02 0.91692891E+02</pdfrwt>
<pdfrwt beam="1">  1       -3 0.49518018E-01 0.91692891E+02</pdfrwt>
<totfact> 0.22617488E+04</totfact>
</mgrwt>
</event>
<event>
 7    1  0.1312339E-009  0.8331791E+02  0.7818608E-02  0.1319891E+00
         -3   -1    0    0    0  501 -0.00000000000E+00  0.00000000000E+00  0.30110053249E+03  0.30110054943E+03  0.10100000000E+00 0.  1.
          3   -1    0    0  501    0  0.00000000000E+00 -0.00000000000E+00 -0.57632912037E+01  0.57641761336E+01  0.10100000000E+00 0. -1.
         23    2    1    2    0    0 -0.35527136788E-14 -0.71054273576E-14  0.29533724128E+03  0.30686472556E+03  0.83317907465E+02 0.  0.
    9000005    2    3    3    0    0  0.15281225568E+02  0.33536838541E+02  0.21344811034E+03  0.21706458546E+03  0.14096207360E+02 0.  0.
         22    1    3    3    0    0 -0.15281225568E+02 -0.33536838541E+02  0.81889130947E+02  0.89800140097E+02  0.00000000000E+00 0. -1.
         22    1    4    4    0    0  0.12724817244E+02  0.29609828698E+02  0.20387075052E+03  0.20640238818E+03  0.00000000000E+00 0.  1.
         22    1    4    4    0    0  0.25564083246E+01  0.39270098430E+01  0.95773598200E+01  0.10662197285E+02  0.00000000000E+00 0.  1.
<mgrwt>
<rscale>  0 0.83317907E+02</rscale>
<asrwt>0</asrwt>
<pdfrwt beam="2">  1        3 0.88672933E-03 0.83317907E+02</pdfrwt>
<pdfrwt beam="1">  1       -3 0.46323240E-01 0.83317907E+02</pdfrwt>
<totfact> 0.30215268E+04</totfact>
</mgrwt>
</event>
<event>
 7    1  0.1312339E-009  0.9174826E+02  0.7818608E-02  0.1298672E+00
         -3   -1    0    0    0  501 -0.00000000000E+00  0.00000000000E+00  0.38671313171E+02  0.38671445064E+02  0.10100000000E+00 0.  1.
          3   -1    0    0  501    0  0.00000000000E+00 -0.00000000000E+00 -0.54418247716E+02  0.54418341444E+02  0.10100000000E+00 0. -1.
         23    2    1    2    0    0  0.00000000000E+00  0.00000000000E+00 -0.15746934545E+02  0.93089786508E+02  0.91748255594E+02 0.  0.
    9000005    2    3    3    0    0  0.39340348219E+02 -0.19753822445E+02 -0.17238076811E+02  0.49043220190E+02  0.13046442245E+02 0.  0.
         22    1    3    3    0    0 -0.39340348219E+02  0.19753822445E+02  0.14911422666E+01  0.44046566318E+02  0.00000000000E+00 0.  1.
         22    1    4    4    0    0  0.24917010272E+02 -0.60521563014E+01 -0.65717176286E+01  0.26470237426E+02  0.00000000000E+00 0. -1.
         22    1    4    4    0    0  0.14423337947E+02 -0.13701666144E+02 -0.10666359183E+02  0.22572982764E+02  0.00000000000E+00 0. -1.
<mgrwt>
<rscale>  0 0.91748256E+02</rscale>
<asrwt>0</asrwt>
<pdfrwt beam="2">  1        3 0.83720555E-02 0.91748256E+02</pdfrwt>
<pdfrwt beam="1">  1       -3 0.59494502E-02 0.91748256E+02</pdfrwt>
<totfact> 0.34597230E+04</totfact>
</mgrwt>
</event>
<event>
 7    1  0.1312339E-009  0.8253710E+02  0.7818608E-02  0.1322002E+00
         -3   -1    0    0    0  501 -0.00000000000E+00  0.00000000000E+00  0.54534359967E+01  0.54543711984E+01  0.10100000000E+00 0.  1.
          3   -1    0    0  501    0  0.00000000000E+00 -0.00000000000E+00 -0.31226955378E+03  0.31226957011E+03  0.10100000000E+00 0. -1.
         23    2    1    2    0    0  0.00000000000E+00  0.00000000000E+00 -0.30681611778E+03  0.31772394131E+03  0.82537099242E+02 0.  0.
    9000005    2    3    3    0    0 -0.36533927543E+02 -0.18488456768E+02 -0.17080271509E+03  0.17568100200E+03  0.37008225173E+01 0.  0.
         22    1    3    3    0    0  0.36533927543E+02  0.18488456768E+02 -0.13601340269E+03  0.14204293931E+03  0.00000000000E+00 0.  1.
         22    1    4    4    0    0 -0.20369901493E+02 -0.84569073588E+01 -0.88180621224E+02  0.90897052364E+02  0.00000000000E+00 0.  1.
         22    1    4    4    0    0 -0.16164026050E+02 -0.10031549409E+02 -0.82622093866E+02  0.84783949640E+02  0.00000000000E+00 0.  1.
<mgrwt>
<rscale>  0 0.82537099E+02</rscale>
<asrwt>0</asrwt>
<pdfrwt beam="2">  1        3 0.48041529E-01 0.82537099E+02</pdfrwt>
<pdfrwt beam="1">  1       -3 0.83906359E-03 0.82537099E+02</pdfrwt>
<totfact> 0.30456143E+04</totfact>
</mgrwt>
</event>
<event>
 7    1  0.1312339E-009  0.8963771E+02  0.7818608E-02  0.1303731E+00
          3   -1    0    0  501    0  0.00000000000E+00  0.00000000000E+00  0.88187173250E+02  0.88187231087E+02  0.10100000000E+00 0. -1.
         -3   -1    0    0    0  501 -0.00000000000E+00 -0.00000000000E+00 -0.22777848749E+02  0.22778072671E+02  0.10100000000E+00 0.  1.
         23    2    1    2    0    0  0.71054273576E-14  0.00000000000E+00  0.65409324501E+02  0.11096530376E+03  0.89637709177E+02 0.  0.
    9000005    2    3    3    0    0 -0.33359431812E+02  0.89340226560E+01  0.67653878857E+02  0.76357407608E+02  0.77934537050E+01 0.  0.
         22    1    3    3    0    0  0.33359431812E+02 -0.89340226560E+01 -0.22445543555E+01  0.34607896150E+02  0.00000000000E+00 0.  1.
         22    1    4    4    0    0 -0.19551634625E+02  0.83175345219E+01  0.35734660248E+02  0.41574195603E+02  0.00000000000E+00 0. -1.
         22    1    4    4    0    0 -0.13807797187E+02  0.61648813404E+00  0.31919218609E+02  0.34783212005E+02  0.00000000000E+00 0. -1.
<mgrwt>
<rscale>  0 0.89637709E+02</rscale>
<asrwt>0</asrwt>
<pdfrwt beam="1">  1        3 0.13567279E-01 0.89637709E+02</pdfrwt>
<pdfrwt beam="2">  1       -3 0.35043061E-02 0.89637709E+02</pdfrwt>
<totfact> 0.35476459E+04</totfact>
</mgrwt>
</event>
<event>
 7    1  0.1312339E-009  0.9250435E+02  0.7818608E-02  0.1296898E+00
         -3   -1    0    0    0  501 -0.00000000000E+00  0.00000000000E+00  0.11795602824E+03  0.11795607148E+03  0.10100000000E+00 0.  1.
          3   -1    0    0  501    0  0.00000000000E+00 -0.00000000000E+00 -0.18135925683E+02  0.18136206918E+02  0.10100000000E+00 0. -1.
         23    2    1    2    0    0 -0.35527136788E-14  0.00000000000E+00  0.99820102556E+02  0.13609227840E+03  0.92504353223E+02 0.  0.
    9000005    2    3    3    0    0  0.29848516627E+02 -0.17997111281E+02  0.61883503716E+01  0.36183645255E+02  0.74920320579E+01 0.  0.
         22    1    3    3    0    0 -0.29848516627E+02  0.17997111281E+02  0.93631752184E+02  0.99908633142E+02  0.00000000000E+00 0.  1.
         22    1    4    4    0    0  0.13468509333E+02 -0.11578931067E+02  0.54369538910E+01  0.18575060052E+02  0.00000000000E+00 0.  1.
         22    1    4    4    0    0  0.16380007294E+02 -0.64181802141E+01  0.75139648052E+00  0.17608585204E+02  0.00000000000E+00 0.  1.
<mgrwt>
<rscale>  0 0.92504353E+02</rscale>
<asrwt>0</asrwt>
<pdfrwt beam="2">  1        3 0.27901673E-02 0.92504353E+02</pdfrwt>
<pdfrwt beam="1">  1       -3 0.18147106E-01 0.92504353E+02</pdfrwt>
<totfact> 0.30941382E+04</totfact>
</mgrwt>
</event>
<event>
 7    1  0.1312339E-009  0.8815834E+02  0.7818608E-02  0.1307374E+00
         -3   -1    0    0    0  501 -0.00000000000E+00  0.00000000000E+00  0.15081540405E+02  0.15081878597E+02  0.10100000000E+00 0.  1.
          3   -1    0    0  501    0  0.00000000000E+00 -0.00000000000E+00 -0.12882941079E+03  0.12882945038E+03  0.10100000000E+00 0. -1.
         23    2    1    2    0    0  0.00000000000E+00 -0.44408920985E-15 -0.11374787039E+03  0.14391132898E+03  0.88158338183E+02 0.  0.
    9000005    2    3    3    0    0  0.29308168923E+02 -0.37245379358E+01 -0.47735132950E+01  0.31003174040E+02  0.80974948528E+01 0.  0.
         22    1    3    3    0    0 -0.29308168923E+02  0.37245379358E+01 -0.10897435709E+03  0.11290815494E+03  0.00000000000E+00 0. -1.
         22    1    4    4    0    0  0.74053275472E+01 -0.31039305009E+01  0.15916325502E+01  0.81857531609E+01  0.00000000000E+00 0.  1.
         22    1    4    4    0    0  0.21902841376E+02 -0.62060743494E+00 -0.63651458452E+01  0.22817420879E+02  0.00000000000E+00 0.  1.
<mgrwt>
<rscale>  0 0.88158338E+02</rscale>
<asrwt>0</asrwt>
<pdfrwt beam="2">  1        3 0.19819938E-01 0.88158338E+02</pdfrwt>
<pdfrwt beam="1">  1       -3 0.23202661E-02 0.88158338E+02</pdfrwt>
<totfact> 0.34698794E+04</totfact>
</mgrwt>
</event>
<event>
 7    1  0.1312339E-009  0.9145129E+02  0.7818608E-02  0.1299375E+00
          3   -1    0    0  501    0  0.00000000000E+00  0.00000000000E+00  0.17050818413E+02  0.17051117546E+02  0.10100000000E+00 0. -1.
         -3   -1    0    0    0  501 -0.00000000000E+00 -0.00000000000E+00 -0.12262231003E+03  0.12262235162E+03  0.10100000000E+00 0.  1.
         23    2    1    2    0    0  0.17763568394E-14  0.35527136788E-14 -0.10557149162E+03  0.13967346917E+03  0.91451288389E+02 0.  0.
    9000005    2    3    3    0    0 -0.84267445949E+01 -0.26925914893E+02  0.48205349992E+00  0.29931183114E+02  0.99814041956E+01 0.  0.
         22    1    3    3    0    0  0.84267445949E+01  0.26925914893E+02 -0.10605354512E+03  0.10974228606E+03  0.00000000000E+00 0.  1.
         22    1    4    4    0    0 -0.46013681119E+01 -0.21915116522E+02  0.39461705932E+01  0.22738011853E+02  0.00000000000E+00 0. -1.
         22    1    4    4    0    0 -0.38253764831E+01 -0.50107983713E+01 -0.34641170932E+01  0.71931712610E+01  0.00000000000E+00 0. -1.
<mgrwt>
<rscale>  0 0.91451288E+02</rscale>
<asrwt>0</asrwt>
<pdfrwt beam="1">  1        3 0.26232291E-02 0.91451288E+02</pdfrwt>
<pdfrwt beam="2">  1       -3 0.18864996E-01 0.91451288E+02</pdfrwt>
<totfact> 0.31692654E+04</totfact>
</mgrwt>
</event>
<event>
 7    1  0.1312339E-009  0.9009856E+02  0.7818608E-02  0.1302613E+00
         -3   -1    0    0    0  501 -0.00000000000E+00  0.00000000000E+00  0.51096190728E+02  0.51096290549E+02  0.10100000000E+00 0.  1.
          3   -1    0    0  501    0  0.00000000000E+00 -0.00000000000E+00 -0.39717781385E+02  0.39717909804E+02  0.10100000000E+00 0. -1.
         23    2    1    2    0    0 -0.71054273576E-14 -0.88817841970E-15  0.11378409342E+02  0.90814200353E+02  0.90098561512E+02 0.  0.
    9000005    2    3    3    0    0  0.44435521125E+02  0.66623633484E+01  0.29692341646E+01  0.45101873239E+02  0.25416520295E+01 0.  0.
         22    1    3    3    0    0 -0.44435521125E+02 -0.66623633484E+01  0.84091751778E+01  0.45712327115E+02  0.00000000000E+00 0.  1.
         22    1    4    4    0    0  0.33483313699E+02  0.39460495508E+01  0.19339855453E+01  0.33770459035E+02  0.00000000000E+00 0.  1.
         22    1    4    4    0    0  0.10952207426E+02  0.27163137976E+01  0.10352486193E+01  0.11331414203E+02  0.00000000000E+00 0.  1.
<mgrwt>
<rscale>  0 0.90098562E+02</rscale>
<asrwt>0</asrwt>
<pdfrwt beam="2">  1        3 0.61104454E-02 0.90098562E+02</pdfrwt>
<pdfrwt beam="1">  1       -3 0.78609700E-02 0.90098562E+02</pdfrwt>
<totfact> 0.36530197E+04</totfact>
</mgrwt>
</event>
<event>
 7    1  0.1312339E-009  0.9012560E+02  0.7818608E-02  0.1302548E+00
         -3   -1    0    0    0  501 -0.00000000000E+00  0.00000000000E+00  0.24003990936E+02  0.24004203421E+02  0.10100000000E+00 0.  1.
          3   -1    0    0  501    0  0.00000000000E+00 -0.00000000000E+00 -0.84595986660E+02  0.84596046952E+02  0.10100000000E+00 0. -1.
         23    2    1    2    0    0  0.00000000000E+00  0.00000000000E+00 -0.60591995724E+02  0.10860025037E+03  0.90125603661E+02 0.  0.
    9000005    2    3    3    0    0  0.76228320398E+01 -0.97407371840E+01 -0.82247514271E+02  0.83661304670E+02  0.90316535723E+01 0.  0.
         22    1    3    3    0    0 -0.76228320398E+01  0.97407371840E+01  0.21655518547E+02  0.24938945702E+02  0.00000000000E+00 0.  1.
         22    1    4    4    0    0  0.76079832769E+01 -0.75462837673E+01 -0.41712490928E+02  0.43066921270E+02  0.00000000000E+00 0.  1.
         22    1    4    4    0    0  0.14848762864E-01 -0.21944534167E+01 -0.40535023343E+02  0.40594383401E+02  0.00000000000E+00 0.  1.
<mgrwt>
<rscale>  0 0.90125604E+02</rscale>
<asrwt>0</asrwt>
<pdfrwt beam="2">  1        3 0.13014788E-01 0.90125604E+02</pdfrwt>
<pdfrwt beam="1">  1       -3 0.36929427E-02 0.90125604E+02</pdfrwt>
<totfact> 0.35133132E+04</totfact>
</mgrwt>
</event>
<event>
 7    1  0.1312339E-009  0.8951267E+02  0.7818608E-02  0.1304036E+00
         -3   -1    0    0    0  501 -0.00000000000E+00  0.00000000000E+00  0.14255075268E+02  0.14255433066E+02  0.10100000000E+00 0.  1.
          3   -1    0    0  501    0  0.00000000000E+00 -0.00000000000E+00 -0.14051832013E+03  0.14051835642E+03  0.10100000000E+00 0. -1.
         23    2    1    2    0    0  0.17763568394E-14 -0.71054273576E-14 -0.12626324486E+03  0.15477378949E+03  0.89512674582E+02 0.  0.
    9000005    2    3    3    0    0  0.12914272719E+02 -0.38019662519E+02 -0.30673992074E+02  0.51093615754E+02  0.75756585988E+01 0.  0.
         22    1    3    3    0    0 -0.12914272719E+02  0.38019662519E+02 -0.95589252785E+02  0.10368017374E+03  0.00000000000E+00 0.  1.
         22    1    4    4    0    0  0.24114997167E+00  0.32175024563E+00 -0.68538234002E+00  0.79462285483E+00  0.00000000000E+00 0. -1.
         22    1    4    4    0    0  0.12673122747E+02 -0.38341412765E+02 -0.29988609734E+02  0.50298992900E+02  0.00000000000E+00 0. -1.
<mgrwt>
<rscale>  0 0.89512675E+02</rscale>
<asrwt>0</asrwt>
<pdfrwt beam="2">  1        3 0.21618233E-01 0.89512675E+02</pdfrwt>
<pdfrwt beam="1">  1       -3 0.21931189E-02 0.89512675E+02</pdfrwt>
<totfact> 0.32599436E+04</totfact>
</mgrwt>
</event>
<event>
 7    1  0.1312339E-009  0.8996624E+02  0.7818608E-02  0.1302933E+00
          3   -1    0    0  501    0  0.00000000000E+00  0.00000000000E+00  0.13550481406E+02  0.13550857808E+02  0.10100000000E+00 0. -1.
         -3   -1    0    0    0  501 -0.00000000000E+00 -0.00000000000E+00 -0.14932660798E+03  0.14932664214E+03  0.10100000000E+00 0.  1.
         23    2    1    2    0    0  0.00000000000E+00 -0.35527136788E-14 -0.13577612657E+03  0.16287749995E+03  0.89966235005E+02 0.  0.
    9000005    2    3    3    0    0 -0.32368753080E+02 -0.28543790461E+02 -0.82741506523E+02  0.94502394287E+02  0.14901727228E+02 0.  0.
         22    1    3    3    0    0  0.32368753080E+02  0.28543790461E+02 -0.53034620052E+02  0.68375105659E+02  0.00000000000E+00 0.  1.
         22    1    4    4    0    0 -0.14360941990E+02 -0.67057773518E+01 -0.42020920411E+02  0.44910598492E+02  0.00000000000E+00 0.  1.
         22    1    4    4    0    0 -0.18007811090E+02 -0.21838013109E+02 -0.40720586112E+02  0.49591795795E+02  0.00000000000E+00 0.  1.
<mgrwt>
<rscale>  0 0.89966235E+02</rscale>
<asrwt>0</asrwt>
<pdfrwt beam="1">  1        3 0.20847211E-02 0.89966235E+02</pdfrwt>
<pdfrwt beam="2">  1       -3 0.22973355E-01 0.89966235E+02</pdfrwt>
<totfact> 0.31660124E+04</totfact>
</mgrwt>
</event>
<event>
 7    1  0.1312339E-009  0.9759179E+02  0.7818608E-02  0.1285443E+00
         -3   -1    0    0    0  501 -0.00000000000E+00  0.00000000000E+00  0.29018716842E+03  0.29018718600E+03  0.10100000000E+00 0.  1.
          3   -1    0    0  501    0  0.00000000000E+00 -0.00000000000E+00 -0.82048557000E+01  0.82054773206E+01  0.10100000000E+00 0. -1.
         23    2    1    2    0    0  0.00000000000E+00 -0.17763568394E-14  0.28198231272E+03  0.29839266332E+03  0.97591786717E+02 0.  0.
    9000005    2    3    3    0    0 -0.45930362502E+02  0.15622795169E+02  0.14185377832E+03  0.15010349959E+03  0.74091993156E+01 0.  0.
         22    1    3    3    0    0  0.45930362502E+02 -0.15622795169E+02  0.14012853440E+03  0.14828916373E+03  0.00000000000E+00 0.  1.
         22    1    4    4    0    0 -0.13245777300E+01  0.65164609275E+00  0.16433008043E+01  0.22089785709E+01  0.00000000000E+00 0.  1.
         22    1    4    4    0    0 -0.44605784772E+02  0.14971149076E+02  0.14021047752E+03  0.14789452101E+03  0.00000000000E+00 0.  1.
<mgrwt>
<rscale>  0 0.97591787E+02</rscale>
<asrwt>0</asrwt>
<pdfrwt beam="2">  1        3 0.12623348E-02 0.97591787E+02</pdfrwt>
<pdfrwt beam="1">  1       -3 0.44644225E-01 0.97591787E+02</pdfrwt>
<totfact> 0.20049685E+04</totfact>
</mgrwt>
</event>
<event>
 7    1  0.1312339E-009  0.9138869E+02  0.7818608E-02  0.1299523E+00
          3   -1    0    0  501    0  0.00000000000E+00  0.00000000000E+00  0.23646148712E+02  0.23646364412E+02  0.10100000000E+00 0. -1.
         -3   -1    0    0    0  501 -0.00000000000E+00 -0.00000000000E+00 -0.88300116788E+02  0.88300174551E+02  0.10100000000E+00 0.  1.
         23    2    1    2    0    0  0.00000000000E+00  0.00000000000E+00 -0.64653968075E+02  0.11194653896E+03  0.91388686378E+02 0.  0.
    9000005    2    3    3    0    0  0.26867989117E+02  0.33827977843E+02 -0.48483482700E+02  0.65819480511E+02  0.10739413199E+02 0.  0.
         22    1    3    3    0    0 -0.26867989117E+02 -0.33827977843E+02 -0.16170485376E+02  0.46127058452E+02  0.00000000000E+00 0. -1.
         22    1    4    4    0    0  0.93842466302E+00 -0.35516641483E+00  0.93588583362E-01  0.10077414615E+01  0.00000000000E+00 0.  1.
         22    1    4    4    0    0  0.25929564454E+02  0.34183144258E+02 -0.48577071283E+02  0.64811739049E+02  0.00000000000E+00 0.  1.
<mgrwt>
<rscale>  0 0.91388686E+02</rscale>
<asrwt>0</asrwt>
<pdfrwt beam="1">  1        3 0.36378901E-02 0.91388686E+02</pdfrwt>
<pdfrwt beam="2">  1       -3 0.13584654E-01 0.91388686E+02</pdfrwt>
<totfact> 0.33595176E+04</totfact>
</mgrwt>
</event>
<event>
 7    1  0.1312339E-009  0.8950766E+02  0.7818608E-02  0.1304048E+00
         -3   -1    0    0    0  501 -0.00000000000E+00  0.00000000000E+00  0.11666391766E+02  0.11666828953E+02  0.10100000000E+00 0.  1.
          3   -1    0    0  501    0  0.00000000000E+00 -0.00000000000E+00 -0.17167798776E+03  0.17167801747E+03  0.10100000000E+00 0. -1.
         23    2    1    2    0    0  0.00000000000E+00  0.00000000000E+00 -0.16001159599E+03  0.18334484642E+03  0.89507663678E+02 0.  0.
    9000005    2    3    3    0    0  0.13825595692E+02 -0.36359855057E+02 -0.35667165176E+02  0.53057764824E+02  0.54583495992E+01 0.  0.
         22    1    3    3    0    0 -0.13825595692E+02  0.36359855057E+02 -0.12434443082E+03  0.13028708160E+03  0.00000000000E+00 0. -1.
         22    1    4    4    0    0  0.40600335889E+01 -0.18217812153E+02 -0.17625945116E+02  0.25671900857E+02  0.00000000000E+00 0. -1.
         22    1    4    4    0    0  0.97655621036E+01 -0.18142042905E+02 -0.18041220060E+02  0.27385863967E+02  0.00000000000E+00 0. -1.
<mgrwt>
<rscale>  0 0.89507664E+02</rscale>
<asrwt>0</asrwt>
<pdfrwt beam="2">  1        3 0.26412032E-01 0.89507664E+02</pdfrwt>
<pdfrwt beam="1">  1       -3 0.17948655E-02 0.89507664E+02</pdfrwt>
<totfact> 0.30882559E+04</totfact>
</mgrwt>
</event>
<event>
 7    1  0.1630756E-009  0.8869908E+02  0.7818608E-02  0.1306033E+00
         -3   -1    0    0    0  501 -0.00000000000E+00  0.00000000000E+00  0.68682389714E+01  0.68689815525E+01  0.10100000000E+00 0.  1.
          3   -1    0    0  501    0  0.00000000000E+00 -0.00000000000E+00 -0.28635725512E+03  0.28635727293E+03  0.10100000000E+00 0. -1.
         23    2    1    2    0    0  0.00000000000E+00  0.00000000000E+00 -0.27948901615E+03  0.29322625449E+03  0.88699076495E+02 0.  0.
    9000005    2    3    3    0    0  0.33948499564E+02 -0.10841821075E+02 -0.22374554617E+03  0.22706448189E+03  0.15038743321E+02 0.  0.
         22    1    3    3    0    0 -0.33948499564E+02  0.10841821075E+02 -0.55743469983E+02  0.66161772593E+02  0.00000000000E+00 0.  1.
         22    1    4    4    0    0  0.26428203539E+02 -0.10682504700E+02 -0.13368322486E+03  0.13668858935E+03  0.00000000000E+00 0.  1.
         22    1    4    4    0    0  0.75202960252E+01 -0.15931637499E+00 -0.90062321308E+02  0.90375892545E+02  0.00000000000E+00 0.  1.
<mgrwt>
<rscale>  0 0.88699076E+02</rscale>
<asrwt>0</asrwt>
<pdfrwt beam="2">  1        3 0.44055012E-01 0.88699076E+02</pdfrwt>
<pdfrwt beam="1">  1       -3 0.10567109E-02 0.88699076E+02</pdfrwt>
<totfact> 0.26155421E+04</totfact>
</mgrwt>
</event>
<event>
 7    1  0.1312339E-009  0.8814294E+02  0.7818608E-02  0.1307412E+00
         -3   -1    0    0    0  501 -0.00000000000E+00  0.00000000000E+00  0.89228602836E+02  0.89228659998E+02  0.10100000000E+00 0.  1.
          3   -1    0    0  501    0  0.00000000000E+00 -0.00000000000E+00 -0.21767439706E+02  0.21767674023E+02  0.10100000000E+00 0. -1.
         23    2    1    2    0    0  0.00000000000E+00  0.00000000000E+00  0.67461163130E+02  0.11099633402E+03  0.88142938657E+02 0.  0.
    9000005    2    3    3    0    0  0.10375768624E+02  0.14792326312E+02 -0.14382019159E+02  0.27182397354E+02  0.14337738963E+02 0.  0.
         22    1    3    3    0    0 -0.10375768624E+02 -0.14792326312E+02  0.81843182289E+02  0.83813936666E+02  0.00000000000E+00 0.  1.
         22    1    4    4    0    0  0.88611070372E+01  0.15551271670E+02 -0.16586364829E+02  0.24402228725E+02  0.00000000000E+00 0. -1.
         22    1    4    4    0    0  0.15146615863E+01 -0.75894535772E+00  0.22043456699E+01  0.27801686296E+01  0.00000000000E+00 0. -1.
<mgrwt>
<rscale>  0 0.88142939E+02</rscale>
<asrwt>0</asrwt>
<pdfrwt beam="2">  1        3 0.33488593E-02 0.88142939E+02</pdfrwt>
<pdfrwt beam="1">  1       -3 0.13727500E-01 0.88142939E+02</pdfrwt>
<totfact> 0.37127552E+04</totfact>
</mgrwt>
</event>
<event>
 7    1  0.1312339E-009  0.1035627E+03  0.7818608E-02  0.1272978E+00
          3   -1    0    0  501    0  0.00000000000E+00  0.00000000000E+00  0.15992216531E+02  0.15992535464E+02  0.10100000000E+00 0. -1.
         -3   -1    0    0    0  501 -0.00000000000E+00 -0.00000000000E+00 -0.16766124668E+03  0.16766127711E+03  0.10100000000E+00 0.  1.
         23    2    1    2    0    0 -0.88817841970E-15  0.00000000000E+00 -0.15166903015E+03  0.18365381257E+03  0.10356267747E+03 0.  0.
    9000005    2    3    3    0    0 -0.70094597502E+01 -0.17844109447E+02 -0.16081093108E+03  0.16241424759E+03  0.12275483506E+02 0.  0.
         22    1    3    3    0    0  0.70094597502E+01  0.17844109447E+02  0.91419009319E+01  0.21239564981E+02  0.00000000000E+00 0. -1.
         22    1    4    4    0    0 -0.55395134511E+01 -0.59854151451E+01 -0.10612980053E+03  0.10644268864E+03  0.00000000000E+00 0. -1.
         22    1    4    4    0    0 -0.14699462991E+01 -0.11858694302E+02 -0.54681130554E+02  0.55971558951E+02  0.00000000000E+00 0. -1.
<mgrwt>
<rscale>  0 0.10356268E+03</rscale>
<asrwt>0</asrwt>
<pdfrwt beam="1">  1        3 0.24603680E-02 0.10356268E+03</pdfrwt>
<pdfrwt beam="2">  1       -3 0.25794064E-01 0.10356268E+03</pdfrwt>
<totfact> 0.20756776E+04</totfact>
</mgrwt>
</event>
<event>
 7    1  0.1312339E-009  0.8912025E+02  0.7818608E-02  0.1304996E+00
          3   -1    0    0  501    0  0.00000000000E+00  0.00000000000E+00  0.55309285581E+02  0.55309377798E+02  0.10100000000E+00 0. -1.
         -3   -1    0    0    0  501 -0.00000000000E+00 -0.00000000000E+00 -0.35899833802E+02  0.35899975878E+02  0.10100000000E+00 0.  1.
         23    2    1    2    0    0  0.00000000000E+00  0.00000000000E+00  0.19409451778E+02  0.91209353676E+02  0.89120252354E+02 0.  0.
    9000005    2    3    3    0    0  0.13346467860E+02  0.12747226324E+02  0.50629340976E+02  0.54942268533E+02  0.10709935604E+02 0.  0.
         22    1    3    3    0    0 -0.13346467860E+02 -0.12747226324E+02 -0.31219889197E+02  0.36267085143E+02  0.00000000000E+00 0.  1.
         22    1    4    4    0    0  0.88437191484E+01  0.73692674073E+01  0.43272848311E+02  0.44777861399E+02  0.00000000000E+00 0. -1.
         22    1    4    4    0    0  0.45027487114E+01  0.53779589165E+01  0.73564926649E+01  0.10164407134E+02  0.00000000000E+00 0. -1.
<mgrwt>
<rscale>  0 0.89120252E+02</rscale>
<asrwt>0</asrwt>
<pdfrwt beam="1">  1        3 0.85091389E-02 0.89120252E+02</pdfrwt>
<pdfrwt beam="2">  1       -3 0.55230694E-02 0.89120252E+02</pdfrwt>
<totfact> 0.37595685E+04</totfact>
</mgrwt>
</event>
<event>
 7    1  0.1312339E-009  0.9114808E+02  0.7818608E-02  0.1300095E+00
          3   -1    0    0  501    0  0.00000000000E+00  0.00000000000E+00  0.85199194131E+02  0.85199253996E+02  0.10100000000E+00 0. -1.
         -3   -1    0    0    0  501 -0.00000000000E+00 -0.00000000000E+00 -0.24377911546E+02  0.24378120772E+02  0.10100000000E+00 0.  1.
         23    2    1    2    0    0  0.00000000000E+00  0.00000000000E+00  0.60821282585E+02  0.10957737477E+03  0.91148080867E+02 0.  0.
    9000005    2    3    3    0    0  0.31126616802E+02 -0.19245505827E+02  0.69989813102E+00  0.39193877862E+02  0.14014793485E+02 0.  0.
         22    1    3    3    0    0 -0.31126616802E+02  0.19245505827E+02  0.60121384454E+02  0.70383496906E+02  0.00000000000E+00 0. -1.
         22    1    4    4    0    0  0.55458901539E+01 -0.18474395242E+01  0.53326145529E+01  0.79124401018E+01  0.00000000000E+00 0. -1.
         22    1    4    4    0    0  0.25580726648E+02 -0.17398066302E+02 -0.46327164219E+01  0.31281437760E+02  0.00000000000E+00 0. -1.
<mgrwt>
<rscale>  0 0.91148081E+02</rscale>
<asrwt>0</asrwt>
<pdfrwt beam="1">  1        3 0.13107589E-01 0.91148081E+02</pdfrwt>
<pdfrwt beam="2">  1       -3 0.37504686E-02 0.91148081E+02</pdfrwt>
<totfact> 0.34004113E+04</totfact>
</mgrwt>
</event>
<event>
 7    1  0.1312339E-009  0.9072491E+02  0.7818608E-02  0.1301106E+00
          3   -1    0    0  501    0  0.00000000000E+00  0.00000000000E+00  0.20932501967E+03  0.20932504404E+03  0.10100000000E+00 0. -1.
         -3   -1    0    0    0  501 -0.00000000000E+00 -0.00000000000E+00 -0.98301329778E+01  0.98306518279E+01  0.10100000000E+00 0.  1.
         23    2    1    2    0    0  0.35527136788E-14  0.35527136788E-14  0.19949488669E+03  0.21915569587E+03  0.90724909554E+02 0.  0.
    9000005    2    3    3    0    0 -0.27645862420E+02 -0.22287410619E+02  0.16673276487E+03  0.17084028417E+03  0.11205598269E+02 0.  0.
         22    1    3    3    0    0  0.27645862420E+02  0.22287410619E+02  0.32762121823E+02  0.48315411696E+02  0.00000000000E+00 0.  1.
         22    1    4    4    0    0 -0.78871202787E+01 -0.18460680119E+01  0.24838821574E+02  0.26126264383E+02  0.00000000000E+00 0. -1.
         22    1    4    4    0    0 -0.19758742142E+02 -0.20441342607E+02  0.14189394330E+03  0.14471401979E+03  0.00000000000E+00 0. -1.
<mgrwt>
<rscale>  0 0.90724910E+02</rscale>
<asrwt>0</asrwt>
<pdfrwt beam="1">  1        3 0.32203894E-01 0.90724910E+02</pdfrwt>
<pdfrwt beam="2">  1       -3 0.15123698E-02 0.90724910E+02</pdfrwt>
<totfact> 0.27908536E+04</totfact>
</mgrwt>
</event>
<event>
 7    1  0.1312339E-009  0.9156115E+02  0.7818608E-02  0.1299115E+00
          3   -1    0    0  501    0  0.00000000000E+00  0.00000000000E+00  0.13335499461E+03  0.13335503286E+03  0.10100000000E+00 0. -1.
         -3   -1    0    0    0  501 -0.00000000000E+00 -0.00000000000E+00 -0.15716200769E+02  0.15716525304E+02  0.10100000000E+00 0.  1.
         23    2    1    2    0    0 -0.44408920985E-15  0.00000000000E+00  0.11763879384E+03  0.14907155816E+03  0.91561146980E+02 0.  0.
    9000005    2    3    3    0    0 -0.37576104148E+01  0.44589296455E+02  0.53376096739E+02  0.70764347554E+02  0.12500407483E+02 0.  0.
         22    1    3    3    0    0  0.37576104148E+01 -0.44589296455E+02  0.64262697099E+02  0.78307210605E+02  0.00000000000E+00 0. -1.
         22    1    4    4    0    0  0.19992242677E+01  0.95014725335E+01  0.55993448416E+01  0.11208369223E+02  0.00000000000E+00 0. -1.
         22    1    4    4    0    0 -0.57568346825E+01  0.35087823921E+02  0.47776751898E+02  0.59555978331E+02  0.00000000000E+00 0. -1.
<mgrwt>
<rscale>  0 0.91561147E+02</rscale>
<asrwt>0</asrwt>
<pdfrwt beam="1">  1        3 0.20516181E-01 0.91561147E+02</pdfrwt>
<pdfrwt beam="2">  1       -3 0.24179049E-02 0.91561147E+02</pdfrwt>
<totfact> 0.31007997E+04</totfact>
</mgrwt>
</event>
<event>
 7    1  0.1312339E-009  0.9232232E+02  0.7818608E-02  0.1297323E+00
         -3   -1    0    0    0  501 -0.00000000000E+00  0.00000000000E+00  0.39742715080E+03  0.39742716363E+03  0.10100000000E+00 0.  1.
          3   -1    0    0  501    0  0.00000000000E+00 -0.00000000000E+00 -0.53611301505E+01  0.53620814514E+01  0.10100000000E+00 0. -1.
         23    2    1    2    0    0  0.00000000000E+00  0.17763568394E-14  0.39206602065E+03  0.40278924508E+03  0.92322323456E+02 0.  0.
    9000005    2    3    3    0    0 -0.76704772660E+01  0.14106788248E+02  0.38478122061E+03  0.38515671810E+03  0.55921434848E+01 0.  0.
         22    1    3    3    0    0  0.76704772660E+01 -0.14106788248E+02  0.72848000380E+01  0.17632526982E+02  0.00000000000E+00 0. -1.
         22    1    4    4    0    0 -0.55280561143E+01  0.11003056726E+02  0.22984918188E+03  0.23017878501E+03  0.00000000000E+00 0. -1.
         22    1    4    4    0    0 -0.21424211516E+01  0.31037315222E+01  0.15493203873E+03  0.15497793309E+03  0.00000000000E+00 0. -1.
<mgrwt>
<rscale>  0 0.92322323E+02</rscale>
<asrwt>0</asrwt>
<pdfrwt beam="2">  1        3 0.82486326E-03 0.92322323E+02</pdfrwt>
<pdfrwt beam="1">  1       -3 0.61142724E-01 0.92322323E+02</pdfrwt>
<totfact> 0.19841040E+04</totfact>
</mgrwt>
</event>
<event>
 7    1  0.1312339E-009  0.9123882E+02  0.7818608E-02  0.1299879E+00
         -3   -1    0    0    0  501 -0.00000000000E+00  0.00000000000E+00  0.22109652427E+03  0.22109654734E+03  0.10100000000E+00 0.  1.
          3   -1    0    0  501    0  0.00000000000E+00 -0.00000000000E+00 -0.94124755862E+01  0.94130174578E+01  0.10100000000E+00 0. -1.
         23    2    1    2    0    0  0.35527136788E-14  0.00000000000E+00  0.21168404868E+03  0.23050956480E+03  0.91238823950E+02 0.  0.
    9000005    2    3    3    0    0 -0.27726830350E+02  0.33802287110E+02  0.91313102556E+02  0.10244498575E+03  0.15669099256E+02 0.  0.
         22    1    3    3    0    0  0.27726830350E+02 -0.33802287110E+02  0.12037094613E+03  0.12806457905E+03  0.00000000000E+00 0. -1.
         22    1    4    4    0    0 -0.10376935257E+02  0.29201071594E+01  0.17146161625E+02  0.20253361934E+02  0.00000000000E+00 0. -1.
         22    1    4    4    0    0 -0.17349895092E+02  0.30882179951E+02  0.74166940932E+02  0.82191623815E+02  0.00000000000E+00 0. -1.
<mgrwt>
<rscale>  0 0.91238824E+02</rscale>
<asrwt>0</asrwt>
<pdfrwt beam="2">  1        3 0.14481167E-02 0.91238824E+02</pdfrwt>
<pdfrwt beam="1">  1       -3 0.34014891E-01 0.91238824E+02</pdfrwt>
<totfact> 0.26941973E+04</totfact>
</mgrwt>
</event>
<event>
 7    1  0.1312339E-009  0.9251538E+02  0.7818608E-02  0.1296872E+00
          3   -1    0    0  501    0  0.00000000000E+00  0.00000000000E+00  0.58704744185E+01  0.58713431938E+01  0.10100000000E+00 0. -1.
         -3   -1    0    0    0  501 -0.00000000000E+00 -0.00000000000E+00 -0.36446978411E+03  0.36446979810E+03  0.10100000000E+00 0.  1.
         23    2    1    2    0    0  0.17763568394E-14  0.17763568394E-14 -0.35859930969E+03  0.37034114129E+03  0.92515382649E+02 0.  0.
    9000005    2    3    3    0    0 -0.12852264704E+02 -0.14671885830E+02 -0.34720016715E+03  0.34774943059E+03  0.11249289861E+01 0.  0.
         22    1    3    3    0    0  0.12852264704E+02  0.14671885830E+02 -0.11399142533E+02  0.22591710699E+02  0.00000000000E+00 0. -1.
         22    1    4    4    0    0 -0.96623113779E+01 -0.10943568558E+02 -0.25094429390E+03  0.25136857519E+03  0.00000000000E+00 0.  1.
         22    1    4    4    0    0 -0.31899533260E+01 -0.37283172723E+01 -0.96255873254E+02  0.96380855401E+02  0.00000000000E+00 0.  1.
<mgrwt>
<rscale>  0 0.92515383E+02</rscale>
<asrwt>0</asrwt>
<pdfrwt beam="1">  1        3 0.90321810E-03 0.92515383E+02</pdfrwt>
<pdfrwt beam="2">  1       -3 0.56072325E-01 0.92515383E+02</pdfrwt>
<totfact> 0.20703994E+04</totfact>
</mgrwt>
</event>
<event>
 7    1  0.1312339E-009  0.9945146E+02  0.7818608E-02  0.1281454E+00
         -3   -1    0    0    0  501 -0.00000000000E+00  0.00000000000E+00  0.33297711493E+03  0.33297713024E+03  0.10100000000E+00 0.  1.
          3   -1    0    0  501    0  0.00000000000E+00 -0.00000000000E+00 -0.74255216707E+01  0.74262085267E+01  0.10100000000E+00 0. -1.
         23    2    1    2    0    0 -0.71054273576E-14  0.00000000000E+00  0.32555159325E+03  0.34040333877E+03  0.99451461403E+02 0.  0.
    9000005    2    3    3    0    0  0.40101600762E+02  0.20352009279E+02  0.94379899217E+02  0.10489814819E+03  0.85856538663E+01 0.  0.
         22    1    3    3    0    0 -0.40101600762E+02 -0.20352009279E+02  0.23117169404E+03  0.23550519058E+03  0.00000000000E+00 0. -1.
         22    1    4    4    0    0  0.58866802156E+01 -0.15415237245E+00  0.11648888005E+02  0.13052714609E+02  0.00000000000E+00 0. -1.
         22    1    4    4    0    0  0.34214920547E+02  0.20506161651E+02  0.82731011213E+02  0.91845433583E+02  0.00000000000E+00 0. -1.
<mgrwt>
<rscale>  0 0.99451461E+02</rscale>
<asrwt>0</asrwt>
<pdfrwt beam="2">  1        3 0.11424418E-02 0.99451461E+02</pdfrwt>
<pdfrwt beam="1">  1       -3 0.51227311E-01 0.99451461E+02</pdfrwt>
<totfact> 0.17831874E+04</totfact>
</mgrwt>
</event>
<event>
 7    1  0.1312339E-009  0.9190683E+02  0.7818608E-02  0.1298299E+00
         -3   -1    0    0    0  501 -0.00000000000E+00  0.00000000000E+00  0.12416199322E+02  0.12416610109E+02  0.10100000000E+00 0.  1.
          3   -1    0    0  501    0  0.00000000000E+00 -0.00000000000E+00 -0.17007427825E+03  0.17007430824E+03  0.10100000000E+00 0. -1.
         23    2    1    2    0    0 -0.17763568394E-14  0.00000000000E+00 -0.15765807893E+03  0.18249091835E+03  0.91906830151E+02 0.  0.
    9000005    2    3    3    0    0 -0.83757844940E+01  0.31074135111E+02 -0.14616342346E+02  0.35873409015E+02  0.61244078894E+01 0.  0.
         22    1    3    3    0    0  0.83757844940E+01 -0.31074135111E+02 -0.14304173658E+03  0.14661750934E+03  0.00000000000E+00 0. -1.
         22    1    4    4    0    0 -0.46719980103E+01  0.23400598231E+02 -0.13090558737E+02  0.27217242532E+02  0.00000000000E+00 0.  1.
         22    1    4    4    0    0 -0.37037864837E+01  0.76735368793E+01 -0.15257836086E+01  0.86561664827E+01  0.00000000000E+00 0.  1.
<mgrwt>
<rscale>  0 0.91906830E+02</rscale>
<asrwt>0</asrwt>
<pdfrwt beam="2">  1        3 0.26165306E-01 0.91906830E+02</pdfrwt>
<pdfrwt beam="1">  1       -3 0.19102185E-02 0.91906830E+02</pdfrwt>
<totfact> 0.28801078E+04</totfact>
</mgrwt>
</event>
<event>
 7    1  0.1312339E-009  0.9917743E+02  0.7818608E-02  0.1282035E+00
         -3   -1    0    0    0  501 -0.00000000000E+00  0.00000000000E+00  0.49758234193E+02  0.49758336699E+02  0.10100000000E+00 0.  1.
          3   -1    0    0  501    0  0.00000000000E+00 -0.00000000000E+00 -0.49419568980E+02  0.49419672188E+02  0.10100000000E+00 0. -1.
         23    2    1    2    0    0  0.11102230246E-15  0.71054273576E-14  0.33866521323E+00  0.99178008887E+02  0.99177430661E+02 0.  0.
    9000005    2    3    3    0    0 -0.92053635510E+00 -0.47802499253E+02  0.10259286839E+02  0.50348253046E+02  0.11990300092E+02 0.  0.
         22    1    3    3    0    0  0.92053635510E+00  0.47802499253E+02 -0.99206216257E+01  0.48829755841E+02  0.00000000000E+00 0. -1.
         22    1    4    4    0    0 -0.28396644727E+01 -0.40918262823E+02  0.12464944584E+02  0.42868902135E+02  0.00000000000E+00 0. -1.
         22    1    4    4    0    0  0.19191281176E+01 -0.68842364299E+01 -0.22056577452E+01  0.74793509106E+01  0.00000000000E+00 0. -1.
<mgrwt>
<rscale>  0 0.99177431E+02</rscale>
<asrwt>0</asrwt>
<pdfrwt beam="2">  1        3 0.76030264E-02 0.99177431E+02</pdfrwt>
<pdfrwt beam="1">  1       -3 0.76551288E-02 0.99177431E+02</pdfrwt>
<totfact> 0.27585797E+04</totfact>
</mgrwt>
</event>
<event>
 7    1  0.1312339E-009  0.9668689E+02  0.7818608E-02  0.1287421E+00
          3   -1    0    0  501    0  0.00000000000E+00  0.00000000000E+00  0.16410324939E+02  0.16410635746E+02  0.10100000000E+00 0. -1.
         -3   -1    0    0    0  501 -0.00000000000E+00 -0.00000000000E+00 -0.14241406320E+03  0.14241409901E+03  0.10100000000E+00 0.  1.
         23    2    1    2    0    0 -0.71054273576E-14  0.00000000000E+00 -0.12600373826E+03  0.15882473476E+03  0.96686888026E+02 0.  0.
    9000005    2    3    3    0    0 -0.32070152832E+02  0.35189383450E+02 -0.70391544135E+02  0.85616104492E+02  0.10409632678E+02 0.  0.
         22    1    3    3    0    0  0.32070152832E+02 -0.35189383450E+02 -0.55612194127E+02  0.73208630269E+02  0.00000000000E+00 0. -1.
         22    1    4    4    0    0 -0.24477822198E+02  0.28043202439E+02 -0.61621732847E+02  0.71991825519E+02  0.00000000000E+00 0.  1.
         22    1    4    4    0    0 -0.75923306343E+01  0.71461810113E+01 -0.87698112879E+01  0.13624278973E+02  0.00000000000E+00 0.  1.
<mgrwt>
<rscale>  0 0.96686888E+02</rscale>
<asrwt>0</asrwt>
<pdfrwt beam="1">  1        3 0.25246921E-02 0.96686888E+02</pdfrwt>
<pdfrwt beam="2">  1       -3 0.21909882E-01 0.96686888E+02</pdfrwt>
<totfact> 0.26237904E+04</totfact>
</mgrwt>
</event>
<event>
 7    1  0.1312339E-009  0.9094261E+02  0.7818608E-02  0.1300585E+00
         -3   -1    0    0    0  501 -0.00000000000E+00  0.00000000000E+00  0.30554183259E+02  0.30554350191E+02  0.10100000000E+00 0.  1.
          3   -1    0    0  501    0  0.00000000000E+00 -0.00000000000E+00 -0.67670852855E+02  0.67670928227E+02  0.10100000000E+00 0. -1.
         23    2    1    2    0    0 -0.35527136788E-14  0.00000000000E+00 -0.37116669596E+02  0.98225278418E+02  0.90942609147E+02 0.  0.
    9000005    2    3    3    0    0 -0.29965658937E+02 -0.17466887923E+02  0.10597472326E+02  0.39236531792E+02  0.14972178137E+02 0.  0.
         22    1    3    3    0    0  0.29965658937E+02  0.17466887923E+02 -0.47714141921E+02  0.58988746626E+02  0.00000000000E+00 0. -1.
         22    1    4    4    0    0 -0.43107817741E+01 -0.24935865684E+01  0.79934472778E+01  0.94178560650E+01  0.00000000000E+00 0.  1.
         22    1    4    4    0    0 -0.25654877163E+02 -0.14973301355E+02  0.26040250477E+01  0.29818675727E+02  0.00000000000E+00 0.  1.
<mgrwt>
<rscale>  0 0.90942609E+02</rscale>
<asrwt>0</asrwt>
<pdfrwt beam="2">  1        3 0.10410919E-01 0.90942609E+02</pdfrwt>
<pdfrwt beam="1">  1       -3 0.47006622E-02 0.90942609E+02</pdfrwt>
<totfact> 0.35047740E+04</totfact>
</mgrwt>
</event>
<event>
 7    1  0.1312339E-009  0.9054717E+02  0.7818608E-02  0.1301532E+00
          3   -1    0    0  501    0  0.00000000000E+00  0.00000000000E+00  0.13832925222E+02  0.13833293939E+02  0.10100000000E+00 0. -1.
         -3   -1    0    0    0  501 -0.00000000000E+00 -0.00000000000E+00 -0.14817290992E+03  0.14817294434E+03  0.10100000000E+00 0.  1.
         23    2    1    2    0    0  0.00000000000E+00  0.17763568394E-14 -0.13433998469E+03  0.16200623828E+03  0.90547168664E+02 0.  0.
    9000005    2    3    3    0    0 -0.46311515969E+01 -0.96622378762E+01 -0.14542612362E+03  0.14658842773E+03  0.14986771063E+02 0.  0.
         22    1    3    3    0    0  0.46311515969E+01  0.96622378762E+01  0.11086138925E+02  0.15417810550E+02  0.00000000000E+00 0. -1.
         22    1    4    4    0    0 -0.65949963850E+01 -0.45832852699E+01 -0.12965840304E+03  0.12990689727E+03  0.00000000000E+00 0. -1.
         22    1    4    4    0    0  0.19638447881E+01 -0.50789526063E+01 -0.15767720582E+02  0.16681530454E+02  0.00000000000E+00 0. -1.
<mgrwt>
<rscale>  0 0.90547169E+02</rscale>
<asrwt>0</asrwt>
<pdfrwt beam="1">  1        3 0.21281735E-02 0.90547169E+02</pdfrwt>
<pdfrwt beam="2">  1       -3 0.22795862E-01 0.90547169E+02</pdfrwt>
<totfact> 0.31167120E+04</totfact>
</mgrwt>
</event>
<event>
 7    1  0.1312339E-009  0.9437689E+02  0.7818608E-02  0.1292586E+00
         -3   -1    0    0    0  501 -0.00000000000E+00  0.00000000000E+00  0.25481935967E+03  0.25481937968E+03  0.10100000000E+00 0.  1.
          3   -1    0    0  501    0  0.00000000000E+00 -0.00000000000E+00 -0.87382280625E+01  0.87388117426E+01  0.10100000000E+00 0. -1.
         23    2    1    2    0    0  0.00000000000E+00  0.00000000000E+00  0.24608113160E+03  0.26355819142E+03  0.94376887721E+02 0.  0.
    9000005    2    3    3    0    0  0.86827209454E+01  0.21044418930E+02  0.23766983003E+03  0.23928872078E+03  0.15933818591E+02 0.  0.
         22    1    3    3    0    0 -0.86827209454E+01 -0.21044418930E+02  0.84113015699E+01  0.24269470641E+02  0.00000000000E+00 0. -1.
         22    1    4    4    0    0  0.11789892635E+02  0.15763170100E+02  0.13401543814E+03  0.13545337486E+03  0.00000000000E+00 0. -1.
         22    1    4    4    0    0 -0.31071716896E+01  0.52812488295E+01  0.10365439189E+03  0.10383534593E+03  0.00000000000E+00 0. -1.
<mgrwt>
<rscale>  0 0.94376888E+02</rscale>
<asrwt>0</asrwt>
<pdfrwt beam="2">  1        3 0.13443892E-02 0.94376888E+02</pdfrwt>
<pdfrwt beam="1">  1       -3 0.39203024E-01 0.94376888E+02</pdfrwt>
<totfact> 0.23241911E+04</totfact>
</mgrwt>
</event>
<event>
 7    1  0.1312339E-009  0.8923186E+02  0.7818608E-02  0.1304723E+00
          3   -1    0    0  501    0  0.00000000000E+00  0.00000000000E+00  0.18103303117E+03  0.18103305934E+03  0.10100000000E+00 0. -1.
         -3   -1    0    0    0  501 -0.00000000000E+00 -0.00000000000E+00 -0.10995418391E+02  0.10995882257E+02  0.10100000000E+00 0.  1.
         23    2    1    2    0    0  0.00000000000E+00  0.00000000000E+00  0.17003761277E+03  0.19202894160E+03  0.89231858956E+02 0.  0.
    9000005    2    3    3    0    0  0.12389280311E+02  0.35180050754E+02  0.13749421589E+03  0.14252941717E+03  0.43410964445E+01 0.  0.
         22    1    3    3    0    0 -0.12389280311E+02 -0.35180050754E+02  0.32543396888E+02  0.49499524429E+02  0.00000000000E+00 0.  1.
         22    1    4    4    0    0  0.96687291653E+01  0.31574710705E+02  0.11979202304E+03  0.12426011212E+03  0.00000000000E+00 0.  1.
         22    1    4    4    0    0  0.27205511456E+01  0.36053400491E+01  0.17702192849E+02  0.18269305052E+02  0.00000000000E+00 0.  1.
<mgrwt>
<rscale>  0 0.89231859E+02</rscale>
<asrwt>0</asrwt>
<pdfrwt beam="1">  1        3 0.27851272E-01 0.89231859E+02</pdfrwt>
<pdfrwt beam="2">  1       -3 0.16916408E-02 0.89231859E+02</pdfrwt>
<totfact> 0.30644265E+04</totfact>
</mgrwt>
</event>
<event>
 7    1  0.1312339E-009  0.7333320E+02  0.7818608E-02  0.1349112E+00
          3   -1    0    0  501    0  0.00000000000E+00  0.00000000000E+00  0.82372130279E+01  0.82378322068E+01  0.10100000000E+00 0. -1.
         -3   -1    0    0    0  501 -0.00000000000E+00 -0.00000000000E+00 -0.16320857214E+03  0.16320860339E+03  0.10100000000E+00 0.  1.
         23    2    1    2    0    0  0.00000000000E+00  0.00000000000E+00 -0.15497135911E+03  0.17144643559E+03  0.73333199399E+02 0.  0.
    9000005    2    3    3    0    0  0.66561432845E+01 -0.18013889697E+02 -0.14986386179E+03  0.15157457121E+03  0.12118956196E+02 0.  0.
         22    1    3    3    0    0 -0.66561432845E+01  0.18013889697E+02 -0.51074973146E+01  0.19871864388E+02  0.00000000000E+00 0. -1.
         22    1    4    4    0    0 -0.47376364362E+00  0.97470885789E+00 -0.16170129822E+01  0.19465971161E+01  0.00000000000E+00 0. -1.
         22    1    4    4    0    0  0.71299069281E+01 -0.18988598555E+02 -0.14824684881E+03  0.14962797409E+03  0.00000000000E+00 0. -1.
<mgrwt>
<rscale>  0 0.73333199E+02</rscale>
<asrwt>0</asrwt>
<pdfrwt beam="1">  1        3 0.12673137E-02 0.73333199E+02</pdfrwt>
<pdfrwt beam="2">  1       -3 0.25109059E-01 0.73333199E+02</pdfrwt>
<totfact> 0.53693158E+04</totfact>
</mgrwt>
</event>
<event>
 7    1  0.1312339E-009  0.8570507E+02  0.7818608E-02  0.1313599E+00
          3   -1    0    0  501    0  0.00000000000E+00  0.00000000000E+00  0.88765616794E+02  0.88765674254E+02  0.10100000000E+00 0. -1.
         -3   -1    0    0    0  501 -0.00000000000E+00 -0.00000000000E+00 -0.20687325546E+02  0.20687572097E+02  0.10100000000E+00 0.  1.
         23    2    1    2    0    0  0.00000000000E+00  0.00000000000E+00  0.68078291248E+02  0.10945324635E+03  0.85705072181E+02 0.  0.
    9000005    2    3    3    0    0 -0.20562079806E+02 -0.29456232212E+02  0.88546408591E+01  0.40186302522E+02  0.15686475178E+02 0.  0.
         22    1    3    3    0    0  0.20562079806E+02  0.29456232212E+02  0.59223650389E+02  0.69266943830E+02  0.00000000000E+00 0. -1.
         22    1    4    4    0    0 -0.20360660801E+02 -0.26078020164E+02  0.12355780971E+02  0.35316921827E+02  0.00000000000E+00 0.  1.
         22    1    4    4    0    0 -0.20141900454E+00 -0.33782120481E+01 -0.35011401123E+01  0.48693806941E+01  0.00000000000E+00 0.  1.
<mgrwt>
<rscale>  0 0.85705072E+02</rscale>
<asrwt>0</asrwt>
<pdfrwt beam="1">  1        3 0.13656272E-01 0.85705072E+02</pdfrwt>
<pdfrwt beam="2">  1       -3 0.31826890E-02 0.85705072E+02</pdfrwt>
<totfact> 0.40176364E+04</totfact>
</mgrwt>
</event>
<event>
 7    1  0.1312339E-009  0.9004063E+02  0.7818608E-02  0.1302753E+00
          3   -1    0    0  501    0  0.00000000000E+00  0.00000000000E+00  0.55096346269E+02  0.55096438843E+02  0.10100000000E+00 0. -1.
         -3   -1    0    0    0  501 -0.00000000000E+00 -0.00000000000E+00 -0.36786795960E+02  0.36786934610E+02  0.10100000000E+00 0.  1.
         23    2    1    2    0    0 -0.17763568394E-14  0.17763568394E-14  0.18309550309E+02  0.91883373453E+02  0.90040627966E+02 0.  0.
    9000005    2    3    3    0    0 -0.79936622777E+01  0.81383110332E+01 -0.34882795602E+02  0.37481568275E+02  0.76110306994E+01 0.  0.
         22    1    3    3    0    0  0.79936622777E+01 -0.81383110332E+01  0.53192345911E+02  0.54401805178E+02  0.00000000000E+00 0. -1.
         22    1    4    4    0    0  0.14543702484E+01  0.44500166451E+00 -0.43005558937E+01  0.45615787065E+01  0.00000000000E+00 0.  1.
         22    1    4    4    0    0 -0.94480325261E+01  0.76933093686E+01 -0.30582239708E+02  0.32919989569E+02  0.00000000000E+00 0.  1.
<mgrwt>
<rscale>  0 0.90040628E+02</rscale>
<asrwt>0</asrwt>
<pdfrwt beam="1">  1        3 0.84763786E-02 0.90040628E+02</pdfrwt>
<pdfrwt beam="2">  1       -3 0.56595249E-02 0.90040628E+02</pdfrwt>
<totfact> 0.36508084E+04</totfact>
</mgrwt>
</event>
<event>
 7    1  0.1312339E-009  0.9105567E+02  0.7818608E-02  0.1300315E+00
          3   -1    0    0  501    0  0.00000000000E+00  0.00000000000E+00  0.60001597610E+02  0.60001682616E+02  0.10100000000E+00 0. -1.
         -3   -1    0    0    0  501 -0.00000000000E+00 -0.00000000000E+00 -0.34545296593E+02  0.34545444239E+02  0.10100000000E+00 0.  1.
         23    2    1    2    0    0  0.00000000000E+00  0.00000000000E+00  0.25456301017E+02  0.94547126855E+02  0.91055674919E+02 0.  0.
    9000005    2    3    3    0    0 -0.27074038127E+02  0.32157190369E+02  0.30858897130E+02  0.52164624832E+02  0.13372056351E+01 0.  0.
         22    1    3    3    0    0  0.27074038127E+02 -0.32157190369E+02 -0.54025961124E+01  0.42382502023E+02  0.00000000000E+00 0.  1.
         22    1    4    4    0    0 -0.92752471540E+01  0.10482980348E+02  0.10932522143E+02  0.17760718655E+02  0.00000000000E+00 0.  1.
         22    1    4    4    0    0 -0.17798790973E+02  0.21674210021E+02  0.19926374987E+02  0.34403906177E+02  0.00000000000E+00 0.  1.
<mgrwt>
<rscale>  0 0.91055675E+02</rscale>
<asrwt>0</asrwt>
<pdfrwt beam="1">  1        3 0.92310329E-02 0.91055675E+02</pdfrwt>
<pdfrwt beam="2">  1       -3 0.53146789E-02 0.91055675E+02</pdfrwt>
<totfact> 0.35208332E+04</totfact>
</mgrwt>
</event>
<event>
 7    1  0.1312339E-009  0.9269976E+02  0.7818608E-02  0.1296442E+00
         -3   -1    0    0    0  501 -0.00000000000E+00  0.00000000000E+00  0.18549509889E+03  0.18549512639E+03  0.10100000000E+00 0.  1.
          3   -1    0    0  501    0  0.00000000000E+00 -0.00000000000E+00 -0.11581251322E+02  0.11581691724E+02  0.10100000000E+00 0. -1.
         23    2    1    2    0    0  0.00000000000E+00  0.00000000000E+00  0.17391384757E+03  0.19707681811E+03  0.92699761923E+02 0.  0.
    9000005    2    3    3    0    0  0.23849055431E+02 -0.32047949446E+02  0.39404127413E+02  0.56760342511E+02  0.85558585835E+01 0.  0.
         22    1    3    3    0    0 -0.23849055431E+02  0.32047949446E+02  0.13450972015E+03  0.14031647560E+03  0.00000000000E+00 0. -1.
         22    1    4    4    0    0  0.17371960109E+02 -0.17194562882E+02  0.26451500546E+02  0.36015550417E+02  0.00000000000E+00 0. -1.
         22    1    4    4    0    0  0.64770953217E+01 -0.14853386564E+02  0.12952626867E+02  0.20744792093E+02  0.00000000000E+00 0. -1.
<mgrwt>
<rscale>  0 0.92699762E+02</rscale>
<asrwt>0</asrwt>
<pdfrwt beam="2">  1        3 0.17817670E-02 0.92699762E+02</pdfrwt>
<pdfrwt beam="1">  1       -3 0.28537743E-01 0.92699762E+02</pdfrwt>
<totfact> 0.27393932E+04</totfact>
</mgrwt>
</event>
<event>
 7    1  0.1312339E-009  0.9266413E+02  0.7818608E-02  0.1296525E+00
         -3   -1    0    0    0  501 -0.00000000000E+00  0.00000000000E+00  0.33506631500E+02  0.33506783723E+02  0.10100000000E+00 0.  1.
          3   -1    0    0  501    0  0.00000000000E+00 -0.00000000000E+00 -0.64066389748E+02  0.64066469360E+02  0.10100000000E+00 0. -1.
         23    2    1    2    0    0  0.00000000000E+00 -0.35527136788E-14 -0.30559758247E+02  0.97573253084E+02  0.92664129485E+02 0.  0.
    9000005    2    3    3    0    0 -0.96398657692E+01 -0.29719310577E+02 -0.50798996171E+02  0.60347036717E+02  0.92229276989E+01 0.  0.
         22    1    3    3    0    0  0.96398657692E+01  0.29719310577E+02  0.20239237924E+02  0.37226216366E+02  0.00000000000E+00 0.  1.
         22    1    4    4    0    0 -0.71617240476E+01 -0.25503613460E+02 -0.47687043126E+02  0.54550698189E+02  0.00000000000E+00 0.  1.
         22    1    4    4    0    0 -0.24781417216E+01 -0.42156971169E+01 -0.31119530451E+01  0.57963385278E+01  0.00000000000E+00 0.  1.
<mgrwt>
<rscale>  0 0.92664129E+02</rscale>
<asrwt>0</asrwt>
<pdfrwt beam="2">  1        3 0.98563855E-02 0.92664129E+02</pdfrwt>
<pdfrwt beam="1">  1       -3 0.51548842E-02 0.92664129E+02</pdfrwt>
<totfact> 0.33346338E+04</totfact>
</mgrwt>
</event>
<event>
 7    1  0.1312339E-009  0.9113665E+02  0.7818608E-02  0.1300122E+00
          3   -1    0    0  501    0  0.00000000000E+00  0.00000000000E+00  0.58665847741E+02  0.58665934683E+02  0.10100000000E+00 0. -1.
         -3   -1    0    0    0  501 -0.00000000000E+00 -0.00000000000E+00 -0.35394720507E+02  0.35394864610E+02  0.10100000000E+00 0.  1.
         23    2    1    2    0    0  0.00000000000E+00  0.00000000000E+00  0.23271127234E+02  0.94060799293E+02  0.91136647957E+02 0.  0.
    9000005    2    3    3    0    0 -0.46747014521E+01 -0.14052806682E+02 -0.32016665278E+02  0.36823798933E+02  0.10563669014E+02 0.  0.
         22    1    3    3    0    0  0.46747014521E+01  0.14052806682E+02  0.55287792512E+02  0.57237000360E+02  0.00000000000E+00 0. -1.
         22    1    4    4    0    0 -0.24088363673E+01  0.67051013182E+00 -0.16376284238E+01  0.29889635889E+01  0.00000000000E+00 0.  1.
         22    1    4    4    0    0 -0.22658650848E+01 -0.14723316814E+02 -0.30379036854E+02  0.33834835344E+02  0.00000000000E+00 0.  1.
<mgrwt>
<rscale>  0 0.91136648E+02</rscale>
<asrwt>0</asrwt>
<pdfrwt beam="1">  1        3 0.90255327E-02 0.91136648E+02</pdfrwt>
<pdfrwt beam="2">  1       -3 0.54453594E-02 0.91136648E+02</pdfrwt>
<totfact> 0.35160329E+04</totfact>
</mgrwt>
</event>
<event>
 7    1  0.1312339E-009  0.8951825E+02  0.7818608E-02  0.1304023E+00
          3   -1    0    0  501    0  0.00000000000E+00  0.00000000000E+00  0.27547301680E+02  0.27547486833E+02  0.10100000000E+00 0. -1.
         -3   -1    0    0    0  501 -0.00000000000E+00 -0.00000000000E+00 -0.72724607246E+02  0.72724677380E+02  0.10100000000E+00 0.  1.
         23    2    1    2    0    0  0.00000000000E+00  0.00000000000E+00 -0.45177305566E+02  0.10027216421E+03  0.89518254998E+02 0.  0.
    9000005    2    3    3    0    0 -0.40283954605E+02  0.16710522596E+02 -0.33221167680E+02  0.55050622917E+02  0.49886408442E+01 0.  0.
         22    1    3    3    0    0  0.40283954605E+02 -0.16710522596E+02 -0.11956137886E+02  0.45221541296E+02  0.00000000000E+00 0.  1.
         22    1    4    4    0    0 -0.12894160472E+02  0.75519368066E+01 -0.12853926868E+02  0.19710772683E+02  0.00000000000E+00 0. -1.
         22    1    4    4    0    0 -0.27389794133E+02  0.91585857896E+01 -0.20367240812E+02  0.35339850235E+02  0.00000000000E+00 0. -1.
<mgrwt>
<rscale>  0 0.89518255E+02</rscale>
<asrwt>0</asrwt>
<pdfrwt beam="1">  1        3 0.42380661E-02 0.89518255E+02</pdfrwt>
<pdfrwt beam="2">  1       -3 0.11188421E-01 0.89518255E+02</pdfrwt>
<totfact> 0.36423370E+04</totfact>
</mgrwt>
</event>
<event>
 7    1  0.1312339E-009  0.9085676E+02  0.7818608E-02  0.1300790E+00
         -3   -1    0    0    0  501 -0.00000000000E+00  0.00000000000E+00  0.32598096748E+03  0.32598098313E+03  0.10100000000E+00 0. -1.
          3   -1    0    0  501    0  0.00000000000E+00 -0.00000000000E+00 -0.63304342477E+01  0.63312399073E+01  0.10100000000E+00 0.  1.
         23    2    1    2    0    0  0.00000000000E+00  0.00000000000E+00  0.31965053324E+03  0.33231222304E+03  0.90856756393E+02 0.  0.
    9000005    2    3    3    0    0 -0.29114498468E+02 -0.33457126025E+02  0.18878654736E+03  0.19413691373E+03  0.90414327180E+01 0.  0.
         22    1    3    3    0    0  0.29114498468E+02  0.33457126025E+02  0.13086398587E+03  0.13817530931E+03  0.00000000000E+00 0. -1.
         22    1    4    4    0    0 -0.18348065093E+02 -0.27108231782E+02  0.13337156140E+03  0.13732982602E+03  0.00000000000E+00 0. -1.
         22    1    4    4    0    0 -0.10766433375E+02 -0.63488942432E+01  0.55414985957E+02  0.56807087712E+02  0.00000000000E+00 0. -1.
<mgrwt>
<rscale>  0 0.90856756E+02</rscale>
<asrwt>0</asrwt>
<pdfrwt beam="2">  1        3 0.97397607E-03 0.90856756E+02</pdfrwt>
<pdfrwt beam="1">  1       -3 0.50150985E-01 0.90856756E+02</pdfrwt>
<totfact> 0.23038813E+04</totfact>
</mgrwt>
</event>
<event>
 7    1  0.1312339E-009  0.9162955E+02  0.7818608E-02  0.1298953E+00
         -3   -1    0    0    0  501 -0.00000000000E+00  0.00000000000E+00  0.70274632344E+02  0.70274704924E+02  0.10100000000E+00 0.  1.
          3   -1    0    0  501    0  0.00000000000E+00 -0.00000000000E+00 -0.29868268112E+02  0.29868438878E+02  0.10100000000E+00 0. -1.
         23    2    1    2    0    0  0.00000000000E+00  0.35527136788E-14  0.40406364233E+02  0.10014314380E+03  0.91629552984E+02 0.  0.
    9000005    2    3    3    0    0 -0.24366116403E+02 -0.18641736449E+02  0.57095020303E+02  0.65218464736E+02  0.72377367175E+01 0.  0.
         22    1    3    3    0    0  0.24366116403E+02  0.18641736449E+02 -0.16688656070E+02  0.34924679066E+02  0.00000000000E+00 0. -1.
         22    1    4    4    0    0 -0.14908671902E+02 -0.15226658769E+02  0.35660487102E+02  0.41542628414E+02  0.00000000000E+00 0. -1.
         22    1    4    4    0    0 -0.94574445018E+01 -0.34150776798E+01  0.21434533200E+02  0.23675836322E+02  0.00000000000E+00 0. -1.
<mgrwt>
<rscale>  0 0.91629553E+02</rscale>
<asrwt>0</asrwt>
<pdfrwt beam="2">  1        3 0.45951369E-02 0.91629553E+02</pdfrwt>
<pdfrwt beam="1">  1       -3 0.10811501E-01 0.91629553E+02</pdfrwt>
<totfact> 0.34196652E+04</totfact>
</mgrwt>
</event>
<event>
 7    1  0.1312339E-009  0.9165041E+02  0.7818608E-02  0.1298904E+00
          3   -1    0    0  501    0  0.00000000000E+00  0.00000000000E+00  0.74285299081E+01  0.74292164860E+01  0.10100000000E+00 0. -1.
         -3   -1    0    0    0  501 -0.00000000000E+00 -0.00000000000E+00 -0.28267331983E+03  0.28267333787E+03  0.10100000000E+00 0.  1.
         23    2    1    2    0    0 -0.17763568394E-14  0.00000000000E+00 -0.27524478992E+03  0.29010255436E+03  0.91650410075E+02 0.  0.
    9000005    2    3    3    0    0  0.91495938008E+01  0.28392956087E+02 -0.24746162628E+03  0.24933762821E+03  0.64900953300E+01 0.  0.
         22    1    3    3    0    0 -0.91495938008E+01 -0.28392956087E+02 -0.27783163637E+02  0.40764926147E+02  0.00000000000E+00 0. -1.
         22    1    4    4    0    0  0.50528315736E+01  0.65040957097E+01 -0.71245190238E+02  0.71719673033E+02  0.00000000000E+00 0.  1.
         22    1    4    4    0    0  0.40967622272E+01  0.21888860377E+02 -0.17621643605E+03  0.17761795518E+03  0.00000000000E+00 0.  1.
<mgrwt>
<rscale>  0 0.91650410E+02</rscale>
<asrwt>0</asrwt>
<pdfrwt beam="1">  1        3 0.11429052E-02 0.91650410E+02</pdfrwt>
<pdfrwt beam="2">  1       -3 0.43488249E-01 0.91650410E+02</pdfrwt>
<totfact> 0.24074419E+04</totfact>
</mgrwt>
</event>
<event>
 7    1  0.1312339E-009  0.9153432E+02  0.7818608E-02  0.1299178E+00
          3   -1    0    0  501    0  0.00000000000E+00  0.00000000000E+00  0.19136255493E+02  0.19136522027E+02  0.10100000000E+00 0. -1.
         -3   -1    0    0    0  501 -0.00000000000E+00 -0.00000000000E+00 -0.10945782896E+03  0.10945787555E+03  0.10100000000E+00 0.  1.
         23    2    1    2    0    0  0.00000000000E+00  0.00000000000E+00 -0.90321573464E+02  0.12859439758E+03  0.91534323924E+02 0.  0.
    9000005    2    3    3    0    0  0.33635550318E+02 -0.29362468955E+02 -0.59095752422E+02  0.74109934401E+02  0.25435396985E+01 0.  0.
         22    1    3    3    0    0 -0.33635550318E+02  0.29362468955E+02 -0.31225821041E+02  0.54484463180E+02  0.00000000000E+00 0. -1.
         22    1    4    4    0    0  0.13067532036E+02 -0.10409458121E+02 -0.20499616243E+02  0.26445254356E+02  0.00000000000E+00 0.  1.
         22    1    4    4    0    0  0.20568018282E+02 -0.18953010835E+02 -0.38596136180E+02  0.47664680045E+02  0.00000000000E+00 0.  1.
<mgrwt>
<rscale>  0 0.91534324E+02</rscale>
<asrwt>0</asrwt>
<pdfrwt beam="1">  1        3 0.29440635E-02 0.91534324E+02</pdfrwt>
<pdfrwt beam="2">  1       -3 0.16839690E-01 0.91534324E+02</pdfrwt>
<totfact> 0.32324498E+04</totfact>
</mgrwt>
</event>
<event>
 7    1  0.1312339E-009  0.8640584E+02  0.7818608E-02  0.1311797E+00
         -3   -1    0    0    0  501 -0.00000000000E+00  0.00000000000E+00  0.20715241653E+02  0.20715487871E+02  0.10100000000E+00 0.  1.
          3   -1    0    0  501    0  0.00000000000E+00 -0.00000000000E+00 -0.90101559148E+02  0.90101615757E+02  0.10100000000E+00 0. -1.
         23    2    1    2    0    0  0.00000000000E+00  0.00000000000E+00 -0.69386317495E+02  0.11081710363E+03  0.86405841243E+02 0.  0.
    9000005    2    3    3    0    0  0.32422263400E+02  0.15705580478E+02 -0.64952486645E+02  0.74519345045E+02  0.60364594322E+01 0.  0.
         22    1    3    3    0    0 -0.32422263400E+02 -0.15705580478E+02 -0.44338308507E+01  0.36297758583E+02  0.00000000000E+00 0. -1.
         22    1    4    4    0    0  0.19167005416E+02  0.11839859952E+02 -0.43891737531E+02  0.49336001092E+02  0.00000000000E+00 0. -1.
         22    1    4    4    0    0  0.13255257984E+02  0.38657205267E+01 -0.21060749114E+02  0.25183343953E+02  0.00000000000E+00 0. -1.
<mgrwt>
<rscale>  0 0.86405841E+02</rscale>
<asrwt>0</asrwt>
<pdfrwt beam="2">  1        3 0.13861801E-01 0.86405841E+02</pdfrwt>
<pdfrwt beam="1">  1       -3 0.31869836E-02 0.86405841E+02</pdfrwt>
<totfact> 0.39190511E+04</totfact>
</mgrwt>
</event>
<event>
 7    1  0.1312339E-009  0.9085330E+02  0.7818608E-02  0.1300798E+00
          3   -1    0    0  501    0  0.00000000000E+00  0.00000000000E+00  0.17371400507E+02  0.17371694119E+02  0.10100000000E+00 0. -1.
         -3   -1    0    0    0  501 -0.00000000000E+00 -0.00000000000E+00 -0.11879051194E+03  0.11879055488E+03  0.10100000000E+00 0.  1.
         23    2    1    2    0    0  0.00000000000E+00  0.35527136788E-14 -0.10141911143E+03  0.13616224899E+03  0.90853298716E+02 0.  0.
    9000005    2    3    3    0    0  0.92653708958E+01  0.26196704800E+02 -0.20138421174E+00  0.31199671169E+02  0.14186771487E+02 0.  0.
         22    1    3    3    0    0 -0.92653708958E+01 -0.26196704800E+02 -0.10121772722E+03  0.10496257783E+03  0.00000000000E+00 0.  1.
         22    1    4    4    0    0  0.82389320640E+01  0.70994807184E+01 -0.42048685571E+01  0.11660340802E+02  0.00000000000E+00 0.  1.
         22    1    4    4    0    0  0.10264388318E+01  0.19097224081E+02  0.40034843454E+01  0.19539330367E+02  0.00000000000E+00 0.  1.
<mgrwt>
<rscale>  0 0.90853299E+02</rscale>
<asrwt>0</asrwt>
<pdfrwt beam="1">  1        3 0.26725491E-02 0.90853299E+02</pdfrwt>
<pdfrwt beam="2">  1       -3 0.18275489E-01 0.90853299E+02</pdfrwt>
<totfact> 0.32488167E+04</totfact>
</mgrwt>
</event>
<event>
 7    1  0.1312339E-009  0.9442100E+02  0.7818608E-02  0.1292485E+00
          3   -1    0    0  501    0  0.00000000000E+00  0.00000000000E+00  0.91029470536E+02  0.91029526567E+02  0.10100000000E+00 0. -1.
         -3   -1    0    0    0  501 -0.00000000000E+00 -0.00000000000E+00 -0.24484554187E+02  0.24484762502E+02  0.10100000000E+00 0.  1.
         23    2    1    2    0    0  0.00000000000E+00  0.35527136788E-14  0.66544916349E+02  0.11551428907E+03  0.94420999186E+02 0.  0.
    9000005    2    3    3    0    0  0.35312000975E+02 -0.26513418258E+02  0.53050921450E+02  0.69340848013E+02  0.66222485531E+01 0.  0.
         22    1    3    3    0    0 -0.35312000975E+02  0.26513418258E+02  0.13493994899E+02  0.46173441056E+02  0.00000000000E+00 0.  1.
         22    1    4    4    0    0  0.10639473243E+02 -0.45211912693E+01  0.15053671505E+02  0.18980321050E+02  0.00000000000E+00 0. -1.
         22    1    4    4    0    0  0.24672527732E+02 -0.21992226989E+02  0.37997249945E+02  0.50360526963E+02  0.00000000000E+00 0. -1.
<mgrwt>
<rscale>  0 0.94420999E+02</rscale>
<asrwt>0</asrwt>
<pdfrwt beam="1">  1        3 0.14004554E-01 0.94420999E+02</pdfrwt>
<pdfrwt beam="2">  1       -3 0.37668748E-02 0.94420999E+02</pdfrwt>
<totfact> 0.30504930E+04</totfact>
</mgrwt>
</event>
<event>
 7    1  0.1312339E-009  0.9178898E+02  0.7818608E-02  0.1298576E+00
         -3   -1    0    0    0  501 -0.00000000000E+00  0.00000000000E+00  0.39033003607E+03  0.39033004914E+03  0.10100000000E+00 0.  1.
          3   -1    0    0  501    0  0.00000000000E+00 -0.00000000000E+00 -0.53957283304E+01  0.53966735324E+01  0.10100000000E+00 0. -1.
         23    2    1    2    0    0  0.00000000000E+00 -0.35527136788E-14  0.38493430774E+03  0.39572672267E+03  0.91788984959E+02 0.  0.
    9000005    2    3    3    0    0 -0.56271745860E+01 -0.23864810623E+02  0.35897713442E+03  0.36002001285E+03  0.12191485998E+02 0.  0.
         22    1    3    3    0    0  0.56271745860E+01  0.23864810623E+02  0.25957173317E+02  0.35706709825E+02  0.00000000000E+00 0. -1.
         22    1    4    4    0    0  0.37838098607E+01 -0.93218803150E+01  0.13228817736E+03  0.13267017954E+03  0.00000000000E+00 0. -1.
         22    1    4    4    0    0 -0.94109844467E+01 -0.14542930308E+02  0.22668895706E+03  0.22734983331E+03  0.00000000000E+00 0. -1.
<mgrwt>
<rscale>  0 0.91788985E+02</rscale>
<asrwt>0</asrwt>
<pdfrwt beam="2">  1        3 0.83018575E-03 0.91788985E+02</pdfrwt>
<pdfrwt beam="1">  1       -3 0.60050849E-01 0.91788985E+02</pdfrwt>
<totfact> 0.20361738E+04</totfact>
</mgrwt>
</event>
<event>
 7    1  0.1312339E-009  0.9011295E+02  0.7818608E-02  0.1302578E+00
          3   -1    0    0  501    0  0.00000000000E+00  0.00000000000E+00  0.12214741038E+01  0.12256426830E+01  0.10100000000E+00 0. -1.
         -3   -1    0    0    0  501 -0.00000000000E+00 -0.00000000000E+00 -0.16591613163E+04  0.16591613194E+04  0.10100000000E+00 0.  1.
         23    2    1    2    0    0  0.88817841970E-15 -0.35527136788E-14 -0.16579398422E+04  0.16603869621E+04  0.90112948171E+02 0.  0.
    9000005    2    3    3    0    0  0.54713167198E+01 -0.18072691546E+02 -0.15818794922E+04  0.15820177441E+04  0.89920644636E+01 0.  0.
         22    1    3    3    0    0 -0.54713167198E+01  0.18072691546E+02 -0.76060349993E+02  0.78369217984E+02  0.00000000000E+00 0. -1.
         22    1    4    4    0    0  0.57682335537E+01 -0.15746352167E+02 -0.10570564631E+04  0.10571894752E+04  0.00000000000E+00 0.  1.
         22    1    4    4    0    0 -0.29691683388E+00 -0.23263393784E+01 -0.52482302909E+03  0.52482826894E+03  0.00000000000E+00 0.  1.
<mgrwt>
<rscale>  0 0.90112948E+02</rscale>
<asrwt>0</asrwt>
<pdfrwt beam="1">  1        3 0.18824132E-03 0.90112948E+02</pdfrwt>
<pdfrwt beam="2">  1       -3 0.25525411E+00 0.90112948E+02</pdfrwt>
<totfact> 0.53267303E+03</totfact>
</mgrwt>
</event>
<event>
 7    1  0.1312339E-009  0.9020463E+02  0.7818608E-02  0.1302357E+00
         -3   -1    0    0    0  501 -0.00000000000E+00  0.00000000000E+00  0.40351229122E+02  0.40351355524E+02  0.10100000000E+00 0. -1.
          3   -1    0    0  501    0  0.00000000000E+00 -0.00000000000E+00 -0.50412549677E+02  0.50412650852E+02  0.10100000000E+00 0.  1.
         23    2    1    2    0    0 -0.17763568394E-14  0.00000000000E+00 -0.10061320555E+02  0.90764006377E+02  0.90204626723E+02 0.  0.
    9000005    2    3    3    0    0 -0.13198215449E+02 -0.36766896493E+02 -0.25986348168E+02  0.48578652600E+02  0.12593555039E+02 0.  0.
         22    1    3    3    0    0  0.13198215449E+02  0.36766896493E+02  0.15925027613E+02  0.42185353777E+02  0.00000000000E+00 0.  1.
         22    1    4    4    0    0 -0.76792548359E+01 -0.32979444920E+02 -0.18690585223E+02  0.38677547983E+02  0.00000000000E+00 0.  1.
         22    1    4    4    0    0 -0.55189606133E+01 -0.37874515737E+01 -0.72957629455E+01  0.99011046168E+01  0.00000000000E+00 0.  1.
<mgrwt>
<rscale>  0 0.90204627E+02</rscale>
<asrwt>0</asrwt>
<pdfrwt beam="2">  1        3 0.77557944E-02 0.90204627E+02</pdfrwt>
<pdfrwt beam="1">  1       -3 0.62078989E-02 0.90204627E+02</pdfrwt>
<totfact> 0.36417128E+04</totfact>
</mgrwt>
</event>
<event>
 7    1  0.1312339E-009  0.9506848E+02  0.7818608E-02  0.1291022E+00
         -3   -1    0    0    0  501 -0.00000000000E+00  0.00000000000E+00  0.30899657247E+02  0.30899822313E+02  0.10100000000E+00 0.  1.
          3   -1    0    0  501    0  0.00000000000E+00 -0.00000000000E+00 -0.73123522108E+02  0.73123591860E+02  0.10100000000E+00 0. -1.
         23    2    1    2    0    0  0.00000000000E+00  0.00000000000E+00 -0.42223864861E+02  0.10402341417E+03  0.95068480226E+02 0.  0.
    9000005    2    3    3    0    0  0.11649149335E+02 -0.32301938577E+02 -0.56258581690E+02  0.66927711018E+02  0.11626373996E+02 0.  0.
         22    1    3    3    0    0 -0.11649149335E+02  0.32301938577E+02  0.14034716829E+02  0.37095703155E+02  0.00000000000E+00 0.  1.
         22    1    4    4    0    0 -0.21046393754E+01 -0.17163077021E+01 -0.43845348301E+01  0.51574571938E+01  0.00000000000E+00 0. -1.
         22    1    4    4    0    0  0.13753788711E+02 -0.30585630875E+02 -0.51874046860E+02  0.61770253825E+02  0.00000000000E+00 0. -1.
<mgrwt>
<rscale>  0 0.95068480E+02</rscale>
<asrwt>0</asrwt>
<pdfrwt beam="2">  1        3 0.11249791E-01 0.95068480E+02</pdfrwt>
<pdfrwt beam="1">  1       -3 0.47538115E-02 0.95068480E+02</pdfrwt>
<totfact> 0.30666567E+04</totfact>
</mgrwt>
</event>
<event>
 7    1  0.1312339E-009  0.9052953E+02  0.7818608E-02  0.1301574E+00
          3   -1    0    0  501    0  0.00000000000E+00  0.00000000000E+00  0.13080799129E+03  0.13080803028E+03  0.10100000000E+00 0. -1.
         -3   -1    0    0    0  501 -0.00000000000E+00 -0.00000000000E+00 -0.15663204610E+02  0.15663530242E+02  0.10100000000E+00 0.  1.
         23    2    1    2    0    0  0.00000000000E+00  0.00000000000E+00  0.11514478668E+03  0.14647156053E+03  0.90529531882E+02 0.  0.
    9000005    2    3    3    0    0  0.33537513723E+02  0.22862343482E+01  0.12818992823E+02  0.38765665686E+02  0.14438094228E+02 0.  0.
         22    1    3    3    0    0 -0.33537513723E+02 -0.22862343482E+01  0.10232579386E+03  0.10770589484E+03  0.00000000000E+00 0. -1.
         22    1    4    4    0    0  0.79840976301E+01  0.60181380078E+01  0.72430219409E+01  0.12346058759E+02  0.00000000000E+00 0. -1.
         22    1    4    4    0    0  0.25553416093E+02 -0.37319036596E+01  0.55759708818E+01  0.26419606927E+02  0.00000000000E+00 0. -1.
<mgrwt>
<rscale>  0 0.90529532E+02</rscale>
<asrwt>0</asrwt>
<pdfrwt beam="1">  1        3 0.20124334E-01 0.90529532E+02</pdfrwt>
<pdfrwt beam="2">  1       -3 0.24097518E-02 0.90529532E+02</pdfrwt>
<totfact> 0.32137702E+04</totfact>
</mgrwt>
</event>
<event>
 7    1  0.1312339E-009  0.9167621E+02  0.7818608E-02  0.1298843E+00
         -3   -1    0    0    0  501 -0.00000000000E+00  0.00000000000E+00  0.92269141691E+02  0.92269196969E+02  0.10100000000E+00 0.  1.
          3   -1    0    0  501    0  0.00000000000E+00 -0.00000000000E+00 -0.22771597233E+02  0.22771821217E+02  0.10100000000E+00 0. -1.
         23    2    1    2    0    0 -0.35527136788E-14 -0.71054273576E-14  0.69497544458E+02  0.11504101819E+03  0.91676208363E+02 0.  0.
    9000005    2    3    3    0    0  0.31623925371E+02  0.31604056887E+02  0.45276066487E+02  0.64192526934E+02  0.84775733628E+01 0.  0.
         22    1    3    3    0    0 -0.31623925371E+02 -0.31604056887E+02  0.24221477971E+02  0.50848491252E+02  0.00000000000E+00 0.  1.
         22    1    4    4    0    0  0.11862233012E+02  0.73084217528E+01  0.10902622001E+02  0.17691601596E+02  0.00000000000E+00 0. -1.
         22    1    4    4    0    0  0.19761692359E+02  0.24295635134E+02  0.34373444486E+02  0.46500925338E+02  0.00000000000E+00 0. -1.
<mgrwt>
<rscale>  0 0.91676208E+02</rscale>
<asrwt>0</asrwt>
<pdfrwt beam="2">  1        3 0.35033441E-02 0.91676208E+02</pdfrwt>
<pdfrwt beam="1">  1       -3 0.14195274E-01 0.91676208E+02</pdfrwt>
<totfact> 0.33094860E+04</totfact>
</mgrwt>
</event>
<event>
 7    1  0.1312339E-009  0.9492299E+02  0.7818608E-02  0.1291350E+00
         -3   -1    0    0    0  501 -0.00000000000E+00  0.00000000000E+00  0.41571214367E+03  0.41571215594E+03  0.10100000000E+00 0.  1.
          3   -1    0    0  501    0  0.00000000000E+00 -0.00000000000E+00 -0.54181549053E+01  0.54190961957E+01  0.10100000000E+00 0. -1.
         23    2    1    2    0    0  0.00000000000E+00  0.00000000000E+00  0.41029398876E+03  0.42113125213E+03  0.94922991463E+02 0.  0.
    9000005    2    3    3    0    0 -0.29067183452E+02  0.33621211965E+02  0.26830725117E+03  0.27235114359E+03  0.14528500708E+02 0.  0.
         22    1    3    3    0    0  0.29067183452E+02 -0.33621211965E+02  0.14198673759E+03  0.14878010855E+03  0.00000000000E+00 0.  1.
         22    1    4    4    0    0 -0.10610021822E+02  0.22287336888E+02  0.16082701407E+03  0.16271025291E+03  0.00000000000E+00 0.  1.
         22    1    4    4    0    0 -0.18457161630E+02  0.11333875077E+02  0.10748023711E+03  0.10964089068E+03  0.00000000000E+00 0.  1.
<mgrwt>
<rscale>  0 0.94922991E+02</rscale>
<asrwt>0</asrwt>
<pdfrwt beam="2">  1        3 0.83363548E-03 0.94922991E+02</pdfrwt>
<pdfrwt beam="1">  1       -3 0.63955800E-01 0.94922991E+02</pdfrwt>
<totfact> 0.17931309E+04</totfact>
</mgrwt>
</event>
<event>
 7    1  0.1312339E-009  0.6950457E+02  0.7818608E-02  0.1361786E+00
          3   -1    0    0  501    0  0.00000000000E+00  0.00000000000E+00  0.11158467322E+02  0.11158924410E+02  0.10100000000E+00 0. -1.
         -3   -1    0    0    0  501 -0.00000000000E+00 -0.00000000000E+00 -0.10823092699E+03  0.10823097412E+03  0.10100000000E+00 0.  1.
         23    2    1    2    0    0  0.00000000000E+00  0.00000000000E+00 -0.97072459673E+02  0.11938989853E+03  0.69504571391E+02 0.  0.
    9000005    2    3    3    0    0  0.26273899170E+02 -0.68738251213E+01 -0.17014759225E+02  0.34851134343E+02  0.13694242736E+02 0.  0.
         22    1    3    3    0    0 -0.26273899170E+02  0.68738251213E+01 -0.80057700448E+02  0.84538764188E+02  0.00000000000E+00 0.  1.
         22    1    4    4    0    0  0.24995204665E+02 -0.89528804441E+01 -0.18148104357E+02  0.32160037566E+02  0.00000000000E+00 0. -1.
         22    1    4    4    0    0  0.12786945043E+01  0.20790553228E+01  0.11333451324E+01  0.26910967763E+01  0.00000000000E+00 0. -1.
<mgrwt>
<rscale>  0 0.69504571E+02</rscale>
<asrwt>0</asrwt>
<pdfrwt beam="1">  1        3 0.17167261E-02 0.69504571E+02</pdfrwt>
<pdfrwt beam="2">  1       -3 0.16650950E-01 0.69504571E+02</pdfrwt>
<totfact> 0.68678363E+04</totfact>
</mgrwt>
</event>
<event>
 7    1  0.1312339E-009  0.7836881E+02  0.7818608E-02  0.1333745E+00
         -3   -1    0    0    0  501 -0.00000000000E+00  0.00000000000E+00  0.16427223833E+02  0.16427534321E+02  0.10100000000E+00 0.  1.
          3   -1    0    0  501    0  0.00000000000E+00 -0.00000000000E+00 -0.93466649433E+02  0.93466704004E+02  0.10100000000E+00 0. -1.
         23    2    1    2    0    0 -0.35527136788E-14  0.17763568394E-14 -0.77039425600E+02  0.10989423832E+03  0.78368810889E+02 0.  0.
    9000005    2    3    3    0    0 -0.16583701408E+02  0.10253602211E+02  0.65093020435E+01  0.24100617340E+02  0.12582258636E+02 0.  0.
         22    1    3    3    0    0  0.16583701408E+02 -0.10253602211E+02 -0.83548727644E+02  0.85793620984E+02  0.00000000000E+00 0. -1.
         22    1    4    4    0    0 -0.37915959266E+01  0.60512774608E+01 -0.28647395316E+01  0.76942115361E+01  0.00000000000E+00 0.  1.
         22    1    4    4    0    0 -0.12792105481E+02  0.42023247504E+01  0.93740415752E+01  0.16406405804E+02  0.00000000000E+00 0.  1.
<mgrwt>
<rscale>  0 0.78368811E+02</rscale>
<asrwt>0</asrwt>
<pdfrwt beam="2">  1        3 0.14379512E-01 0.78368811E+02</pdfrwt>
<pdfrwt beam="1">  1       -3 0.25272933E-02 0.78368811E+02</pdfrwt>
<totfact> 0.51027127E+04</totfact>
</mgrwt>
</event>
<event>
 7    1  0.1312339E-009  0.9228486E+02  0.7818608E-02  0.1297411E+00
         -3   -1    0    0    0  501 -0.00000000000E+00  0.00000000000E+00  0.34306681686E+02  0.34306830360E+02  0.10100000000E+00 0.  1.
          3   -1    0    0  501    0  0.00000000000E+00 -0.00000000000E+00 -0.62061165952E+02  0.62061248137E+02  0.10100000000E+00 0. -1.
         23    2    1    2    0    0  0.35527136788E-14  0.00000000000E+00 -0.27754484266E+02  0.96368078497E+02  0.92284858760E+02 0.  0.
    9000005    2    3    3    0    0  0.29222695803E+02  0.12322920688E+02  0.18981554003E+02  0.39887306571E+02  0.14995916406E+02 0.  0.
         22    1    3    3    0    0 -0.29222695803E+02 -0.12322920688E+02 -0.46736038269E+02  0.56480771926E+02  0.00000000000E+00 0. -1.
         22    1    4    4    0    0  0.72425846366E+01  0.70370809907E+01 -0.40494678229E+00  0.10106409995E+02  0.00000000000E+00 0.  1.
         22    1    4    4    0    0  0.21980111166E+02  0.52858396976E+01  0.19386500785E+02  0.29780896576E+02  0.00000000000E+00 0.  1.
<mgrwt>
<rscale>  0 0.92284859E+02</rscale>
<asrwt>0</asrwt>
<pdfrwt beam="2">  1        3 0.95478894E-02 0.92284859E+02</pdfrwt>
<pdfrwt beam="1">  1       -3 0.52779688E-02 0.92284859E+02</pdfrwt>
<totfact> 0.33809666E+04</totfact>
</mgrwt>
</event>
<event>
 7    1  0.1312339E-009  0.9150918E+02  0.7818608E-02  0.1299238E+00
          3   -1    0    0  501    0  0.00000000000E+00  0.00000000000E+00  0.39097748354E+03  0.39097749659E+03  0.10100000000E+00 0. -1.
         -3   -1    0    0    0  501 -0.00000000000E+00 -0.00000000000E+00 -0.53539944259E+01  0.53549469944E+01  0.10100000000E+00 0.  1.
         23    2    1    2    0    0  0.35527136788E-14  0.00000000000E+00  0.38562348912E+03  0.39633244358E+03  0.91509182476E+02 0.  0.
    9000005    2    3    3    0    0 -0.31422235142E+02 -0.22389539940E+02  0.29805241358E+03  0.30063844361E+03  0.77190786814E+01 0.  0.
         22    1    3    3    0    0  0.31422235142E+02  0.22389539940E+02  0.87571075540E+02  0.95693999975E+02  0.00000000000E+00 0. -1.
         22    1    4    4    0    0 -0.25657888460E+02 -0.20566167234E+02  0.26558245708E+03  0.26761041830E+03  0.00000000000E+00 0. -1.
         22    1    4    4    0    0 -0.57643466819E+01 -0.18233727059E+01  0.32469956496E+02  0.33028025305E+02  0.00000000000E+00 0. -1.
<mgrwt>
<rscale>  0 0.91509182E+02</rscale>
<asrwt>0</asrwt>
<pdfrwt beam="1">  1        3 0.60150460E-01 0.91509182E+02</pdfrwt>
<pdfrwt beam="2">  1       -3 0.82376567E-03 0.91509182E+02</pdfrwt>
<totfact> 0.20524913E+04</totfact>
</mgrwt>
</event>
<event>
 7    1  0.1312339E-009  0.9048867E+02  0.7818608E-02  0.1301673E+00
          3   -1    0    0  501    0  0.00000000000E+00  0.00000000000E+00  0.26194780794E+02  0.26194975508E+02  0.10100000000E+00 0. -1.
         -3   -1    0    0    0  501 -0.00000000000E+00 -0.00000000000E+00 -0.78146720970E+02  0.78146786238E+02  0.10100000000E+00 0.  1.
         23    2    1    2    0    0 -0.17763568394E-14  0.00000000000E+00 -0.51951940175E+02  0.10434176175E+03  0.90488668662E+02 0.  0.
    9000005    2    3    3    0    0  0.98337133598E+01 -0.36497140278E+02 -0.54361194501E+02  0.66466338668E+02  0.58216442270E+01 0.  0.
         22    1    3    3    0    0 -0.98337133598E+01  0.36497140278E+02  0.24092543255E+01  0.37875423078E+02  0.00000000000E+00 0. -1.
         22    1    4    4    0    0  0.42246225523E+01 -0.25656706041E+02 -0.35620748413E+02  0.44101606751E+02  0.00000000000E+00 0. -1.
         22    1    4    4    0    0  0.56090908075E+01 -0.10840434237E+02 -0.18740446088E+02  0.22364731917E+02  0.00000000000E+00 0. -1.
<mgrwt>
<rscale>  0 0.90488669E+02</rscale>
<asrwt>0</asrwt>
<pdfrwt beam="1">  1        3 0.40299863E-02 0.90488669E+02</pdfrwt>
<pdfrwt beam="2">  1       -3 0.12022592E-01 0.90488669E+02</pdfrwt>
<totfact> 0.35067990E+04</totfact>
</mgrwt>
</event>
<event>
 7    1  0.1312339E-009  0.9338788E+02  0.7818608E-02  0.1294849E+00
         -3   -1    0    0    0  501 -0.00000000000E+00  0.00000000000E+00  0.58200857088E+01  0.58209620045E+01  0.10100000000E+00 0.  1.
          3   -1    0    0  501    0  0.00000000000E+00 -0.00000000000E+00 -0.37459154314E+03  0.37459155676E+03  0.10100000000E+00 0. -1.
         23    2    1    2    0    0  0.35527136788E-14  0.00000000000E+00 -0.36877145743E+03  0.38041251876E+03  0.93387882587E+02 0.  0.
    9000005    2    3    3    0    0 -0.26175749498E+02  0.35773915874E+02 -0.23544473584E+03  0.23991000060E+03  0.12555549980E+02 0.  0.
         22    1    3    3    0    0  0.26175749498E+02 -0.35773915874E+02 -0.13332672159E+03  0.14050251816E+03  0.00000000000E+00 0. -1.
         22    1    4    4    0    0 -0.18262304505E+02  0.17429000125E+02 -0.15368971385E+03  0.15574918926E+03  0.00000000000E+00 0. -1.
         22    1    4    4    0    0 -0.79134449933E+01  0.18344915749E+02 -0.81755021987E+02  0.84160811341E+02  0.00000000000E+00 0. -1.
<mgrwt>
<rscale>  0 0.93387883E+02</rscale>
<asrwt>0</asrwt>
<pdfrwt beam="2">  1        3 0.57629518E-01 0.93387883E+02</pdfrwt>
<pdfrwt beam="1">  1       -3 0.89546655E-03 0.93387883E+02</pdfrwt>
<totfact> 0.19898617E+04</totfact>
</mgrwt>
</event>
<event>
 7    1  0.1312339E-009  0.9178082E+02  0.7818608E-02  0.1298596E+00
          3   -1    0    0  501    0  0.00000000000E+00  0.00000000000E+00  0.15701901280E+02  0.15702226110E+02  0.10100000000E+00 0. -1.
         -3   -1    0    0    0  501 -0.00000000000E+00 -0.00000000000E+00 -0.13411768631E+03  0.13411772434E+03  0.10100000000E+00 0.  1.
         23    2    1    2    0    0  0.00000000000E+00  0.00000000000E+00 -0.11841578503E+03  0.14981995045E+03  0.91780822665E+02 0.  0.
    9000005    2    3    3    0    0 -0.32625929006E+02  0.19701027188E+02 -0.10056614011E+03  0.10773442397E+03  0.63699179938E+01 0.  0.
         22    1    3    3    0    0  0.32625929006E+02 -0.19701027188E+02 -0.17849644922E+02  0.42085526486E+02  0.00000000000E+00 0. -1.
         22    1    4    4    0    0 -0.14486487109E+02  0.10964027461E+02 -0.54864840891E+02  0.57794627544E+02  0.00000000000E+00 0. -1.
         22    1    4    4    0    0 -0.18139441896E+02  0.87369997262E+01 -0.45701299220E+02  0.49939796425E+02  0.00000000000E+00 0. -1.
<mgrwt>
<rscale>  0 0.91780823E+02</rscale>
<asrwt>0</asrwt>
<pdfrwt beam="1">  1        3 0.24157051E-02 0.91780823E+02</pdfrwt>
<pdfrwt beam="2">  1       -3 0.20633517E-01 0.91780823E+02</pdfrwt>
<totfact> 0.30763016E+04</totfact>
</mgrwt>
</event>
<event>
 7    1  0.1312339E-009  0.9041475E+02  0.7818608E-02  0.1301850E+00
         -3   -1    0    0    0  501 -0.00000000000E+00  0.00000000000E+00  0.19038040287E+03  0.19038042966E+03  0.10100000000E+00 0.  1.
          3   -1    0    0  501    0  0.00000000000E+00 -0.00000000000E+00 -0.10734593964E+02  0.10735069100E+02  0.10100000000E+00 0. -1.
         23    2    1    2    0    0 -0.17763568394E-14  0.00000000000E+00  0.17964580890E+03  0.20111549876E+03  0.90414750923E+02 0.  0.
    9000005    2    3    3    0    0  0.14992236072E+02  0.15542426980E+02  0.17783711583E+03  0.17944511460E+03  0.10400731213E+02 0.  0.
         22    1    3    3    0    0 -0.14992236072E+02 -0.15542426980E+02  0.18086930758E+01  0.21670384157E+02  0.00000000000E+00 0. -1.
         22    1    4    4    0    0  0.11639479715E+02  0.46608293385E+01  0.98644092583E+02  0.99437708238E+02  0.00000000000E+00 0. -1.
         22    1    4    4    0    0  0.33527563567E+01  0.10881597642E+02  0.79193023244E+02  0.80007406363E+02  0.00000000000E+00 0. -1.
<mgrwt>
<rscale>  0 0.90414751E+02</rscale>
<asrwt>0</asrwt>
<pdfrwt beam="2">  1        3 0.16515146E-02 0.90414751E+02</pdfrwt>
<pdfrwt beam="1">  1       -3 0.29289331E-01 0.90414751E+02</pdfrwt>
<totfact> 0.29089987E+04</totfact>
</mgrwt>
</event>
<event>
 7    1  0.1312339E-009  0.9053701E+02  0.7818608E-02  0.1301556E+00
          3   -1    0    0  501    0  0.00000000000E+00  0.00000000000E+00  0.32972670328E+01  0.32988135572E+01  0.10100000000E+00 0. -1.
         -3   -1    0    0    0  501 -0.00000000000E+00 -0.00000000000E+00 -0.62134857082E+03  0.62134857902E+03  0.10100000000E+00 0.  1.
         23    2    1    2    0    0  0.00000000000E+00 -0.35527136788E-14 -0.61805130378E+03  0.62464739258E+03  0.90537014261E+02 0.  0.
    9000005    2    3    3    0    0 -0.22856091619E+01  0.20020961196E+02 -0.58812769916E+03  0.58857129232E+03  0.10766277349E+02 0.  0.
         22    1    3    3    0    0  0.22856091619E+01 -0.20020961196E+02 -0.29923604624E+02  0.36076100263E+02  0.00000000000E+00 0. -1.
         22    1    4    4    0    0 -0.52471920178E+01  0.41822656217E+01 -0.18533747523E+03  0.18545890136E+03  0.00000000000E+00 0.  1.
         22    1    4    4    0    0  0.29615828559E+01  0.15838695574E+02 -0.40279022393E+03  0.40311239096E+03  0.00000000000E+00 0.  1.
<mgrwt>
<rscale>  0 0.90537014E+02</rscale>
<asrwt>0</asrwt>
<pdfrwt beam="1">  1        3 0.50739194E-03 0.90537014E+02</pdfrwt>
<pdfrwt beam="2">  1       -3 0.95592114E-01 0.90537014E+02</pdfrwt>
<totfact> 0.15511925E+04</totfact>
</mgrwt>
</event>
<event>
 7    1  0.1312339E-009  0.9102058E+02  0.7818608E-02  0.1300399E+00
         -3   -1    0    0    0  501 -0.00000000000E+00  0.00000000000E+00  0.15388843357E+02  0.15389174795E+02  0.10100000000E+00 0.  1.
          3   -1    0    0  501    0  0.00000000000E+00 -0.00000000000E+00 -0.13458834555E+03  0.13458838345E+03  0.10100000000E+00 0. -1.
         23    2    1    2    0    0  0.00000000000E+00  0.00000000000E+00 -0.11919950220E+03  0.14997755825E+03  0.91020583680E+02 0.  0.
    9000005    2    3    3    0    0 -0.45458804076E+02 -0.16938822825E+01 -0.58208515023E+02  0.73890288472E+02  0.14735685148E+01 0.  0.
         22    1    3    3    0    0  0.45458804076E+02  0.16938822825E+01 -0.60990987173E+02  0.76087269773E+02  0.00000000000E+00 0.  1.
         22    1    4    4    0    0 -0.27859720093E+02 -0.16788874888E+01 -0.35171177161E+02  0.44899825944E+02  0.00000000000E+00 0. -1.
         22    1    4    4    0    0 -0.17599083983E+02 -0.14994793684E-01 -0.23037337862E+02  0.28990462529E+02  0.00000000000E+00 0. -1.
<mgrwt>
<rscale>  0 0.91020584E+02</rscale>
<asrwt>0</asrwt>
<pdfrwt beam="2">  1        3 0.20705927E-01 0.91020584E+02</pdfrwt>
<pdfrwt beam="1">  1       -3 0.23675429E-02 0.91020584E+02</pdfrwt>
<totfact> 0.31454330E+04</totfact>
</mgrwt>
</event>
<event>
 7    1  0.1312339E-009  0.9069023E+02  0.7818608E-02  0.1301189E+00
          3   -1    0    0  501    0  0.00000000000E+00  0.00000000000E+00  0.84973508391E+02  0.84973568415E+02  0.10100000000E+00 0. -1.
         -3   -1    0    0    0  501 -0.00000000000E+00 -0.00000000000E+00 -0.24197715566E+02  0.24197926349E+02  0.10100000000E+00 0.  1.
         23    2    1    2    0    0  0.00000000000E+00  0.00000000000E+00  0.60775792825E+02  0.10917149476E+03  0.90690232526E+02 0.  0.
    9000005    2    3    3    0    0 -0.17100940504E+02  0.38067362939E+01  0.80553371135E+02  0.82750177403E+02  0.71981144524E+01 0.  0.
         22    1    3    3    0    0  0.17100940504E+02 -0.38067362939E+01 -0.19777578309E+02  0.26421317362E+02  0.00000000000E+00 0.  1.
         22    1    4    4    0    0 -0.33016159309E+01  0.27469421239E+01  0.31155240573E+02  0.31449886708E+02  0.00000000000E+00 0. -1.
         22    1    4    4    0    0 -0.13799324574E+02  0.10597941700E+01  0.49398130562E+02  0.51300290695E+02  0.00000000000E+00 0. -1.
<mgrwt>
<rscale>  0 0.90690233E+02</rscale>
<asrwt>0</asrwt>
<pdfrwt beam="1">  1        3 0.13072868E-01 0.90690233E+02</pdfrwt>
<pdfrwt beam="2">  1       -3 0.37227463E-02 0.90690233E+02</pdfrwt>
<totfact> 0.34501690E+04</totfact>
</mgrwt>
</event>
<event>
 7    1  0.1312339E-009  0.9064886E+02  0.7818608E-02  0.1301288E+00
         -3   -1    0    0    0  501 -0.00000000000E+00  0.00000000000E+00  0.36816056985E+01  0.36829908389E+01  0.10100000000E+00 0.  1.
          3   -1    0    0  501    0  0.00000000000E+00 -0.00000000000E+00 -0.55788493790E+03  0.55788494704E+03  0.10100000000E+00 0. -1.
         23    2    1    2    0    0 -0.17763568394E-14  0.35527136788E-14 -0.55420333220E+03  0.56156793788E+03  0.90648857871E+02 0.  0.
    9000005    2    3    3    0    0  0.10979982238E+02 -0.23483197571E+02 -0.50553969798E+03  0.50643020240E+03  0.15137473175E+02 0.  0.
         22    1    3    3    0    0 -0.10979982238E+02  0.23483197571E+02 -0.48663634224E+02  0.55137735481E+02  0.00000000000E+00 0.  1.
         22    1    4    4    0    0 -0.54370123975E+00  0.18434979552E+01 -0.19440783225E+02  0.19535561117E+02  0.00000000000E+00 0.  1.
         22    1    4    4    0    0  0.11523683477E+02 -0.25326695526E+02 -0.48609891475E+03  0.48689464128E+03  0.00000000000E+00 0.  1.
<mgrwt>
<rscale>  0 0.90648858E+02</rscale>
<asrwt>0</asrwt>
<pdfrwt beam="2">  1        3 0.85828492E-01 0.90648858E+02</pdfrwt>
<pdfrwt beam="1">  1       -3 0.56650857E-03 0.90648858E+02</pdfrwt>
<totfact> 0.16772078E+04</totfact>
</mgrwt>
</event>
<event>
 6    1  0.1312339E-009  0.3239102E+03  0.7818608E-02  0.1073864E+00
         -3   -1    0    0    0  501 -0.00000000000E+00  0.00000000000E+00  0.28845200591E+03  0.28845202359E+03  0.10100000000E+00 0.  1.
          3   -1    0    0  501    0  0.00000000000E+00 -0.00000000000E+00 -0.90931735323E+02  0.90931791415E+02  0.10100000000E+00 0. -1.
    9000005    2    1    2    0    0  0.26214439916E+02  0.44404231731E+02 -0.80874482730E+02  0.96253860163E+02  0.80740933713E+01 0.  0.
         22    1    1    2    0    0 -0.26214439916E+02 -0.44404231731E+02  0.27839475332E+03  0.28312995485E+03  0.00000000000E+00 0.  1.
         22    1    3    3    0    0  0.19616788125E+02  0.25967677414E+02 -0.52832683451E+02  0.62051841933E+02  0.00000000000E+00 0. -1.
         22    1    3    3    0    0  0.65976517914E+01  0.18436554317E+02 -0.28041799279E+02  0.34202018231E+02  0.00000000000E+00 0. -1.
<mgrwt>
<rscale>  0 0.32391021E+03</rscale>
<asrwt>0</asrwt>
<pdfrwt beam="2">  1        3 0.13989504E-01 0.32391021E+03</pdfrwt>
<pdfrwt beam="1">  1       -3 0.44377236E-01 0.32391021E+03</pdfrwt>
<totfact> 0.54656979E+02</totfact>
</mgrwt>
</event>
<event>
 7    1  0.1312339E-009  0.8683412E+02  0.7818608E-02  0.1310705E+00
          3   -1    0    0  501    0  0.00000000000E+00  0.00000000000E+00  0.67750466909E+02  0.67750542193E+02  0.10100000000E+00 0. -1.
         -3   -1    0    0    0  501 -0.00000000000E+00 -0.00000000000E+00 -0.27823110175E+02  0.27823293493E+02  0.10100000000E+00 0.  1.
         23    2    1    2    0    0 -0.17763568394E-14 -0.88817841970E-15  0.39927356734E+02  0.95573835685E+02  0.86834119169E+02 0.  0.
    9000005    2    3    3    0    0 -0.15226243274E+02 -0.56919006506E+01  0.64149943476E+02  0.66402446865E+02  0.54620036992E+01 0.  0.
         22    1    3    3    0    0  0.15226243274E+02  0.56919006506E+01 -0.24222586742E+02  0.29171388820E+02  0.00000000000E+00 0.  1.
         22    1    4    4    0    0 -0.98714699421E+01 -0.44587506869E+01  0.51229266162E+02  0.52361857186E+02  0.00000000000E+00 0.  1.
         22    1    4    4    0    0 -0.53547733317E+01 -0.12331499636E+01  0.12920677314E+02  0.14040589679E+02  0.00000000000E+00 0.  1.
<mgrwt>
<rscale>  0 0.86834119E+02</rscale>
<asrwt>0</asrwt>
<pdfrwt beam="1">  1        3 0.10423168E-01 0.86834119E+02</pdfrwt>
<pdfrwt beam="2">  1       -3 0.42804985E-02 0.86834119E+02</pdfrwt>
<totfact> 0.39954258E+04</totfact>
</mgrwt>
</event>
<event>
 7    1  0.1312339E-009  0.9146816E+02  0.7818608E-02  0.1299335E+00
         -3   -1    0    0    0  501 -0.00000000000E+00  0.00000000000E+00  0.24853729176E+03  0.24853731228E+03  0.10100000000E+00 0.  1.
          3   -1    0    0  501    0  0.00000000000E+00 -0.00000000000E+00 -0.84153392121E+01  0.84159452858E+01  0.10100000000E+00 0. -1.
         23    2    1    2    0    0  0.00000000000E+00  0.00000000000E+00  0.24012195255E+03  0.25695325757E+03  0.91468161014E+02 0.  0.
    9000005    2    3    3    0    0 -0.20640770417E+02 -0.68369342350E+01  0.23276938711E+03  0.23400014685E+03  0.10084447301E+02 0.  0.
         22    1    3    3    0    0  0.20640770417E+02  0.68369342350E+01  0.73525654401E+01  0.22953110719E+02  0.00000000000E+00 0. -1.
         22    1    4    4    0    0 -0.19544619664E+02 -0.27605535795E+01  0.18932721269E+03  0.19035337212E+03  0.00000000000E+00 0.  1.
         22    1    4    4    0    0 -0.10961507531E+01 -0.40763806555E+01  0.43442174418E+02  0.43646774725E+02  0.00000000000E+00 0.  1.
<mgrwt>
<rscale>  0 0.91468161E+02</rscale>
<asrwt>0</asrwt>
<pdfrwt beam="2">  1        3 0.12947158E-02 0.91468161E+02</pdfrwt>
<pdfrwt beam="1">  1       -3 0.38236554E-01 0.91468161E+02</pdfrwt>
<totfact> 0.25572612E+04</totfact>
</mgrwt>
</event>
<event>
 7    1  0.1312339E-009  0.1033165E+03  0.7818608E-02  0.1273472E+00
          3   -1    0    0  501    0  0.00000000000E+00  0.00000000000E+00  0.21011434574E+02  0.21011677321E+02  0.10100000000E+00 0. -1.
         -3   -1    0    0    0  501 -0.00000000000E+00 -0.00000000000E+00 -0.12700494667E+03  0.12700498683E+03  0.10100000000E+00 0.  1.
         23    2    1    2    0    0  0.00000000000E+00  0.00000000000E+00 -0.10599351210E+03  0.14801666415E+03  0.10331654398E+03 0.  0.
    9000005    2    3    3    0    0 -0.10758377123E+02  0.26991135068E+02  0.55953915630E+01  0.32706875015E+02  0.13934389686E+02 0.  0.
         22    1    3    3    0    0  0.10758377123E+02 -0.26991135068E+02 -0.11158890366E+03  0.11530978914E+03  0.00000000000E+00 0.  1.
         22    1    4    4    0    0  0.30367473002E+01  0.36809757954E+01 -0.89175596822E+00  0.48545489676E+01  0.00000000000E+00 0.  1.
         22    1    4    4    0    0 -0.13795124423E+02  0.23310159273E+02  0.64871475312E+01  0.27852326048E+02  0.00000000000E+00 0.  1.
<mgrwt>
<rscale>  0 0.10331654E+03</rscale>
<asrwt>0</asrwt>
<pdfrwt beam="1">  1        3 0.32325502E-02 0.10331654E+03</pdfrwt>
<pdfrwt beam="2">  1       -3 0.19539244E-01 0.10331654E+03</pdfrwt>
<totfact> 0.22339806E+04</totfact>
</mgrwt>
</event>
<event>
 7    1  0.1312339E-009  0.9137273E+02  0.7818608E-02  0.1299561E+00
         -3   -1    0    0    0  501 -0.00000000000E+00  0.00000000000E+00  0.37688624029E+02  0.37688759361E+02  0.10100000000E+00 0.  1.
          3   -1    0    0  501    0  0.00000000000E+00 -0.00000000000E+00 -0.55380986516E+02  0.55381078615E+02  0.10100000000E+00 0. -1.
         23    2    1    2    0    0  0.00000000000E+00  0.00000000000E+00 -0.17692362488E+02  0.93069837976E+02  0.91372725966E+02 0.  0.
    9000005    2    3    3    0    0 -0.44181822133E+02  0.25362858986E+01 -0.14753604912E+02  0.48717809282E+02  0.14045993388E+02 0.  0.
         22    1    3    3    0    0  0.44181822133E+02 -0.25362858986E+01 -0.29387575759E+01  0.44352028693E+02  0.00000000000E+00 0. -1.
         22    1    4    4    0    0 -0.28410835665E+02  0.20935469255E+01 -0.16372899357E+02  0.32857729003E+02  0.00000000000E+00 0. -1.
         22    1    4    4    0    0 -0.15770986468E+02  0.44273897303E+00  0.16192944447E+01  0.15860080279E+02  0.00000000000E+00 0. -1.
<mgrwt>
<rscale>  0 0.91372726E+02</rscale>
<asrwt>0</asrwt>
<pdfrwt beam="2">  1        3 0.85201692E-02 0.91372726E+02</pdfrwt>
<pdfrwt beam="1">  1       -3 0.57982674E-02 0.91372726E+02</pdfrwt>
<totfact> 0.34988214E+04</totfact>
</mgrwt>
</event>
<event>
 7    1  0.1312339E-009  0.9237848E+02  0.7818608E-02  0.1297192E+00
         -3   -1    0    0    0  501 -0.00000000000E+00  0.00000000000E+00  0.21666969710E+03  0.21666972064E+03  0.10100000000E+00 0.  1.
          3   -1    0    0  501    0  0.00000000000E+00 -0.00000000000E+00 -0.98462525794E+01  0.98467705801E+01  0.10100000000E+00 0. -1.
         23    2    1    2    0    0  0.00000000000E+00  0.00000000000E+00  0.20682344452E+03  0.22651649122E+03  0.92378480132E+02 0.  0.
    9000005    2    3    3    0    0  0.97727357074E+01 -0.33946538769E+02  0.17632959966E+03  0.17985013898E+03  0.24639226525E+01 0.  0.
         22    1    3    3    0    0 -0.97727357074E+01  0.33946538769E+02  0.30493844859E+02  0.46666352245E+02  0.00000000000E+00 0. -1.
         22    1    4    4    0    0  0.36396665786E+01 -0.11763517548E+02  0.55747406204E+02  0.57091162331E+02  0.00000000000E+00 0.  1.
         22    1    4    4    0    0  0.61330691287E+01 -0.22183021222E+02  0.12058219346E+03  0.12275897665E+03  0.00000000000E+00 0.  1.
<mgrwt>
<rscale>  0 0.92378480E+02</rscale>
<asrwt>0</asrwt>
<pdfrwt beam="2">  1        3 0.15148499E-02 0.92378480E+02</pdfrwt>
<pdfrwt beam="1">  1       -3 0.33333837E-01 0.92378480E+02</pdfrwt>
<totfact> 0.26236566E+04</totfact>
</mgrwt>
</event>
<event>
 7    1  0.1312339E-009  0.9042074E+02  0.7818608E-02  0.1301836E+00
         -3   -1    0    0    0  501 -0.00000000000E+00  0.00000000000E+00  0.57503075801E+02  0.57503164500E+02  0.10100000000E+00 0.  1.
          3   -1    0    0  501    0  0.00000000000E+00 -0.00000000000E+00 -0.35545350107E+02  0.35545493600E+02  0.10100000000E+00 0. -1.
         23    2    1    2    0    0  0.00000000000E+00  0.17763568394E-14  0.21957725694E+02  0.93048658100E+02  0.90420744614E+02 0.  0.
    9000005    2    3    3    0    0  0.41935698232E+02 -0.13750175190E+02  0.89579716499E+01  0.47041444436E+02  0.13600813746E+02 0.  0.
         22    1    3    3    0    0 -0.41935698232E+02  0.13750175190E+02  0.12999754044E+02  0.46007213664E+02  0.00000000000E+00 0.  1.
         22    1    4    4    0    0  0.25582913593E+02 -0.10978155052E+02  0.11759015838E+02  0.30220519680E+02  0.00000000000E+00 0.  1.
         22    1    4    4    0    0  0.16352784639E+02 -0.27720201376E+01 -0.28010441877E+01  0.16820924756E+02  0.00000000000E+00 0.  1.
<mgrwt>
<rscale>  0 0.90420745E+02</rscale>
<asrwt>0</asrwt>
<pdfrwt beam="2">  1        3 0.54685333E-02 0.90420745E+02</pdfrwt>
<pdfrwt beam="1">  1       -3 0.88466449E-02 0.90420745E+02</pdfrwt>
<totfact> 0.36002266E+04</totfact>
</mgrwt>
</event>
<event>
 7    1  0.1312339E-009  0.8791255E+02  0.7818608E-02  0.1307987E+00
          3   -1    0    0  501    0  0.00000000000E+00  0.00000000000E+00  0.26722146962E+02  0.26722337833E+02  0.10100000000E+00 0. -1.
         -3   -1    0    0    0  501 -0.00000000000E+00 -0.00000000000E+00 -0.72304860983E+02  0.72304931525E+02  0.10100000000E+00 0.  1.
         23    2    1    2    0    0  0.00000000000E+00  0.35527136788E-14 -0.45582714021E+02  0.99027269358E+02  0.87912548928E+02 0.  0.
    9000005    2    3    3    0    0  0.24823448964E+02 -0.22980037018E+02  0.60772573873E+01  0.37277464778E+02  0.14435740477E+02 0.  0.
         22    1    3    3    0    0 -0.24823448964E+02  0.22980037018E+02 -0.51659971408E+02  0.61749804580E+02  0.00000000000E+00 0.  1.
         22    1    4    4    0    0  0.25898285083E+02 -0.18577920323E+02  0.34994032481E+01  0.32064093887E+02  0.00000000000E+00 0. -1.
         22    1    4    4    0    0 -0.10748361188E+01 -0.44021166951E+01  0.25778541392E+01  0.52133708906E+01  0.00000000000E+00 0. -1.
<mgrwt>
<rscale>  0 0.87912549E+02</rscale>
<asrwt>0</asrwt>
<pdfrwt beam="1">  1        3 0.41111197E-02 0.87912549E+02</pdfrwt>
<pdfrwt beam="2">  1       -3 0.11123845E-01 0.87912549E+02</pdfrwt>
<totfact> 0.38355990E+04</totfact>
</mgrwt>
</event>
<event>
 7    1  0.1312339E-009  0.9023144E+02  0.7818608E-02  0.1302292E+00
         -3   -1    0    0    0  501 -0.00000000000E+00  0.00000000000E+00  0.49060232164E+02  0.49060336128E+02  0.10100000000E+00 0.  1.
          3   -1    0    0  501    0  0.00000000000E+00 -0.00000000000E+00 -0.41488147189E+02  0.41488270128E+02  0.10100000000E+00 0. -1.
         23    2    1    2    0    0  0.00000000000E+00  0.71054273576E-14  0.75720849746E+01  0.90548606255E+02  0.90231444763E+02 0.  0.
    9000005    2    3    3    0    0  0.18809730801E+02 -0.39737513221E+02  0.67566223083E+01  0.46576559349E+02  0.13814774917E+02 0.  0.
         22    1    3    3    0    0 -0.18809730801E+02  0.39737513221E+02  0.81546266634E+00  0.43972046906E+02  0.00000000000E+00 0. -1.
         22    1    4    4    0    0  0.19239679920E+02 -0.33647566830E+02  0.94633133247E+01  0.39898350042E+02  0.00000000000E+00 0. -1.
         22    1    4    4    0    0 -0.42994911925E+00 -0.60899463907E+01 -0.27066910165E+01  0.66782093068E+01  0.00000000000E+00 0. -1.
<mgrwt>
<rscale>  0 0.90231445E+02</rscale>
<asrwt>0</asrwt>
<pdfrwt beam="2">  1        3 0.63828093E-02 0.90231445E+02</pdfrwt>
<pdfrwt beam="1">  1       -3 0.75477455E-02 0.90231445E+02</pdfrwt>
<totfact> 0.36404994E+04</totfact>
</mgrwt>
</event>
<event>
 7    1  0.1312339E-009  0.9515858E+02  0.7818608E-02  0.1290819E+00
         -3   -1    0    0    0  501 -0.00000000000E+00  0.00000000000E+00  0.62375890309E+02  0.62375972079E+02  0.10100000000E+00 0.  1.
          3   -1    0    0  501    0  0.00000000000E+00 -0.00000000000E+00 -0.36292513801E+02  0.36292654340E+02  0.10100000000E+00 0. -1.
         23    2    1    2    0    0  0.00000000000E+00  0.00000000000E+00  0.26083376508E+02  0.98668626419E+02  0.95158579799E+02 0.  0.
    9000005    2    3    3    0    0 -0.21830204084E+02  0.42172340679E+02  0.13867311426E+02  0.49635001479E+02  0.40332266052E+01 0.  0.
         22    1    3    3    0    0  0.21830204084E+02 -0.42172340679E+02  0.12216065081E+02  0.49033624941E+02  0.00000000000E+00 0. -1.
         22    1    4    4    0    0 -0.68314914837E+01  0.17052360549E+02  0.44715876202E+01  0.18906278640E+02  0.00000000000E+00 0. -1.
         22    1    4    4    0    0 -0.14998712601E+02  0.25119980130E+02  0.93957238059E+01  0.30728722838E+02  0.00000000000E+00 0. -1.
<mgrwt>
<rscale>  0 0.95158580E+02</rscale>
<asrwt>0</asrwt>
<pdfrwt beam="2">  1        3 0.55834808E-02 0.95158580E+02</pdfrwt>
<pdfrwt beam="1">  1       -3 0.95963078E-02 0.95158580E+02</pdfrwt>
<totfact> 0.30937649E+04</totfact>
</mgrwt>
</event>
<event>
 7    1  0.1312339E-009  0.9155924E+02  0.7818608E-02  0.1299119E+00
          3   -1    0    0  501    0  0.00000000000E+00  0.00000000000E+00  0.49254214114E+02  0.49254317669E+02  0.10100000000E+00 0.  1.
         -3   -1    0    0    0  501 -0.00000000000E+00 -0.00000000000E+00 -0.42549929018E+02  0.42550048888E+02  0.10100000000E+00 0. -1.
         23    2    1    2    0    0  0.00000000000E+00  0.00000000000E+00  0.67042850965E+01  0.91804366557E+02  0.91559239186E+02 0.  0.
    9000005    2    3    3    0    0  0.14379946628E+02  0.33655060744E+02  0.30100248262E+02  0.48366858903E+02  0.96892784035E+01 0.  0.
         22    1    3    3    0    0 -0.14379946628E+02 -0.33655060744E+02 -0.23395963166E+02  0.43437507654E+02  0.00000000000E+00 0. -1.
         22    1    4    4    0    0  0.80067719686E+01  0.27933672869E+02  0.25414169258E+02  0.38604125121E+02  0.00000000000E+00 0. -1.
         22    1    4    4    0    0  0.63731746598E+01  0.57213878757E+01  0.46860790042E+01  0.97627337821E+01  0.00000000000E+00 0. -1.
<mgrwt>
<rscale>  0 0.91559239E+02</rscale>
<asrwt>0</asrwt>
<pdfrwt beam="1">  1        3 0.75775886E-02 0.91559239E+02</pdfrwt>
<pdfrwt beam="2">  1       -3 0.65461601E-02 0.91559239E+02</pdfrwt>
<totfact> 0.34889488E+04</totfact>
</mgrwt>
</event>
<event>
 7    1  0.1312339E-009  0.8911496E+02  0.7818608E-02  0.1305009E+00
         -3   -1    0    0    0  501 -0.00000000000E+00  0.00000000000E+00  0.15223605065E+02  0.15223940100E+02  0.10100000000E+00 0.  1.
          3   -1    0    0  501    0  0.00000000000E+00 -0.00000000000E+00 -0.13041206784E+03  0.13041210695E+03  0.10100000000E+00 0. -1.
         23    2    1    2    0    0  0.88817841970E-15  0.00000000000E+00 -0.11518846278E+03  0.14563604705E+03  0.89114960833E+02 0.  0.
    9000005    2    3    3    0    0 -0.58135806007E+01 -0.43218145431E+02 -0.65131837942E+02  0.79248762850E+02  0.11687783611E+02 0.  0.
         22    1    3    3    0    0  0.58135806007E+01  0.43218145431E+02 -0.50056624833E+02  0.66387284201E+02  0.00000000000E+00 0.  1.
         22    1    4    4    0    0 -0.20443922688E+01 -0.19592008054E+02 -0.39781227758E+02  0.44391129759E+02  0.00000000000E+00 0.  1.
         22    1    4    4    0    0 -0.37691883319E+01 -0.23626137377E+02 -0.25350610184E+02  0.34857633092E+02  0.00000000000E+00 0.  1.
<mgrwt>
<rscale>  0 0.89114961E+02</rscale>
<asrwt>0</asrwt>
<pdfrwt beam="2">  1        3 0.20063423E-01 0.89114961E+02</pdfrwt>
<pdfrwt beam="1">  1       -3 0.23421220E-02 0.89114961E+02</pdfrwt>
<totfact> 0.33588855E+04</totfact>
</mgrwt>
</event>
<event>
 7    1  0.1312339E-009  0.9084540E+02  0.7818608E-02  0.1300817E+00
         -3   -1    0    0    0  501 -0.00000000000E+00  0.00000000000E+00  0.64554593413E+01  0.64562493994E+01  0.10100000000E+00 0.  1.
          3   -1    0    0  501    0  0.00000000000E+00 -0.00000000000E+00 -0.31958842187E+03  0.31958843783E+03  0.10100000000E+00 0. -1.
         23    2    1    2    0    0  0.00000000000E+00  0.00000000000E+00 -0.31313296253E+03  0.32604468723E+03  0.90845395306E+02 0.  0.
    9000005    2    3    3    0    0  0.14730176175E+02  0.38714404546E+02 -0.95098051785E+02  0.10410999974E+03  0.89145601294E+01 0.  0.
         22    1    3    3    0    0 -0.14730176175E+02 -0.38714404546E+02 -0.21803491074E+03  0.22193468749E+03  0.00000000000E+00 0. -1.
         22    1    4    4    0    0  0.10331798579E+02  0.34355014474E+02 -0.85053609724E+02  0.92309964838E+02  0.00000000000E+00 0.  1.
         22    1    4    4    0    0  0.43983775959E+01  0.43593900721E+01 -0.10044442062E+02  0.11800034898E+02  0.00000000000E+00 0.  1.
<mgrwt>
<rscale>  0 0.90845395E+02</rscale>
<asrwt>0</asrwt>
<pdfrwt beam="2">  1        3 0.49167499E-01 0.90845395E+02</pdfrwt>
<pdfrwt beam="1">  1       -3 0.99320984E-03 0.90845395E+02</pdfrwt>
<totfact> 0.23283549E+04</totfact>
</mgrwt>
</event>
<event>
 7    1  0.1312339E-009  0.9309636E+02  0.7818608E-02  0.1295522E+00
         -3   -1    0    0    0  501 -0.00000000000E+00  0.00000000000E+00  0.14344873131E+03  0.14344876687E+03  0.10100000000E+00 0.  1.
          3   -1    0    0  501    0  0.00000000000E+00 -0.00000000000E+00 -0.15104375827E+02  0.15104713507E+02  0.10100000000E+00 0. -1.
         23    2    1    2    0    0  0.00000000000E+00  0.00000000000E+00  0.12834435549E+03  0.15855348038E+03  0.93096361661E+02 0.  0.
    9000005    2    3    3    0    0  0.40962930996E+02 -0.79567103461E+01  0.96603931683E+02  0.10612519165E+03  0.13746480696E+02 0.  0.
         22    1    3    3    0    0 -0.40962930996E+02  0.79567103461E+01  0.31740423804E+02  0.52428288724E+02  0.00000000000E+00 0. -1.
         22    1    4    4    0    0  0.29436153553E+02 -0.17074433929E+01  0.77810618448E+02  0.83209944371E+02  0.00000000000E+00 0. -1.
         22    1    4    4    0    0  0.11526777442E+02 -0.62492669532E+01  0.18793313235E+02  0.22915247282E+02  0.00000000000E+00 0. -1.
<mgrwt>
<rscale>  0 0.93096362E+02</rscale>
<asrwt>0</asrwt>
<pdfrwt beam="2">  1        3 0.23237789E-02 0.93096362E+02</pdfrwt>
<pdfrwt beam="1">  1       -3 0.22069064E-01 0.93096362E+02</pdfrwt>
<totfact> 0.29099977E+04</totfact>
</mgrwt>
</event>
<event>
 7    1  0.1312339E-009  0.9176961E+02  0.7818608E-02  0.1298622E+00
         -3   -1    0    0    0  501 -0.00000000000E+00  0.00000000000E+00  0.14833081853E+02  0.14833425709E+02  0.10100000000E+00 0.  1.
          3   -1    0    0  501    0  0.00000000000E+00 -0.00000000000E+00 -0.14193849766E+03  0.14193853360E+03  0.10100000000E+00 0. -1.
         23    2    1    2    0    0  0.00000000000E+00  0.35527136788E-14 -0.12710541581E+03  0.15677195930E+03  0.91769605515E+02 0.  0.
    9000005    2    3    3    0    0  0.39833052060E+02 -0.18982895789E+02 -0.83764051138E+02  0.94921363023E+02  0.68283618860E+01 0.  0.
         22    1    3    3    0    0 -0.39833052060E+02  0.18982895789E+02 -0.43341364671E+02  0.61850596282E+02  0.00000000000E+00 0.  1.
         22    1    4    4    0    0  0.19314326941E+02 -0.10874767588E+02 -0.48489426747E+02  0.53315366467E+02  0.00000000000E+00 0. -1.
         22    1    4    4    0    0  0.20518725119E+02 -0.81081282015E+01 -0.35274624391E+02  0.41605996555E+02  0.00000000000E+00 0. -1.
<mgrwt>
<rscale>  0 0.91769606E+02</rscale>
<asrwt>0</asrwt>
<pdfrwt beam="2">  1        3 0.21836720E-01 0.91769606E+02</pdfrwt>
<pdfrwt beam="1">  1       -3 0.22820419E-02 0.91769606E+02</pdfrwt>
<totfact> 0.30359569E+04</totfact>
</mgrwt>
</event>
<event>
 7    1  0.1312339E-009  0.9085497E+02  0.7818608E-02  0.1300794E+00
         -3   -1    0    0    0  501 -0.00000000000E+00  0.00000000000E+00  0.14418153728E+03  0.14418157265E+03  0.10100000000E+00 0.  1.
          3   -1    0    0  501    0  0.00000000000E+00 -0.00000000000E+00 -0.14312687687E+02  0.14313044045E+02  0.10100000000E+00 0. -1.
         23    2    1    2    0    0 -0.71054273576E-14 -0.17763568394E-14  0.12986884959E+03  0.15849461670E+03  0.90854969200E+02 0.  0.
    9000005    2    3    3    0    0  0.39509666039E+02  0.11404783362E+02  0.38349006172E+02  0.58160352693E+02  0.14862622818E+02 0.  0.
         22    1    3    3    0    0 -0.39509666039E+02 -0.11404783362E+02  0.91519843420E+02  0.10033426401E+03  0.00000000000E+00 0.  1.
         22    1    4    4    0    0  0.26429695967E+02  0.22246150909E+00  0.21416798647E+02  0.34018488831E+02  0.00000000000E+00 0.  1.
         22    1    4    4    0    0  0.13079970071E+02  0.11182321853E+02  0.16932207525E+02  0.24141863862E+02  0.00000000000E+00 0.  1.
<mgrwt>
<rscale>  0 0.90854969E+02</rscale>
<asrwt>0</asrwt>
<pdfrwt beam="2">  1        3 0.22019819E-02 0.90854969E+02</pdfrwt>
<pdfrwt beam="1">  1       -3 0.22181807E-01 0.90854969E+02</pdfrwt>
<totfact> 0.31092135E+04</totfact>
</mgrwt>
</event>
<event>
 7    1  0.1312339E-009  0.9337884E+02  0.7818608E-02  0.1294870E+00
         -3   -1    0    0    0  501 -0.00000000000E+00  0.00000000000E+00  0.17776377586E+02  0.17776664509E+02  0.10100000000E+00 0.  1.
          3   -1    0    0  501    0  0.00000000000E+00 -0.00000000000E+00 -0.12262785063E+03  0.12262789222E+03  0.10100000000E+00 0. -1.
         23    2    1    2    0    0  0.00000000000E+00  0.00000000000E+00 -0.10485147304E+03  0.14040455673E+03  0.93378842098E+02 0.  0.
    9000005    2    3    3    0    0 -0.45327085440E+01 -0.27650596373E+02 -0.10779130642E+03  0.11223110208E+03  0.13847512737E+02 0.  0.
         22    1    3    3    0    0  0.45327085440E+01  0.27650596373E+02  0.29398333757E+01  0.28173454648E+02  0.00000000000E+00 0.  1.
         22    1    4    4    0    0 -0.28523979046E+01 -0.28273796093E+02 -0.90735821153E+02  0.95081717273E+02  0.00000000000E+00 0.  1.
         22    1    4    4    0    0 -0.16803106394E+01  0.62319972014E+00 -0.17055485266E+02  0.17149384811E+02  0.00000000000E+00 0.  1.
<mgrwt>
<rscale>  0 0.93378842E+02</rscale>
<asrwt>0</asrwt>
<pdfrwt beam="2">  1        3 0.18865848E-01 0.93378842E+02</pdfrwt>
<pdfrwt beam="1">  1       -3 0.27348527E-02 0.93378842E+02</pdfrwt>
<totfact> 0.29900821E+04</totfact>
</mgrwt>
</event>
<event>
 7    1  0.1312339E-009  0.8996539E+02  0.7818608E-02  0.1302936E+00
         -3   -1    0    0    0  501 -0.00000000000E+00  0.00000000000E+00  0.41211270825E+02  0.41211394589E+02  0.10100000000E+00 0.  1.
          3   -1    0    0  501    0  0.00000000000E+00 -0.00000000000E+00 -0.49099011820E+02  0.49099115702E+02  0.10100000000E+00 0. -1.
         23    2    1    2    0    0  0.00000000000E+00  0.00000000000E+00 -0.78877409956E+01  0.90310510292E+02  0.89965392297E+02 0.  0.
    9000005    2    3    3    0    0 -0.31479481478E+02 -0.16208852339E+02  0.21735552967E+02  0.44145326512E+02  0.14922832902E+02 0.  0.
         22    1    3    3    0    0  0.31479481478E+02  0.16208852339E+02 -0.29623293962E+02  0.46165183780E+02  0.00000000000E+00 0. -1.
         22    1    4    4    0    0 -0.10309942377E+02 -0.99316478396E+01  0.18579424456E+01  0.14435528766E+02  0.00000000000E+00 0.  1.
         22    1    4    4    0    0 -0.21169539101E+02 -0.62772044993E+01  0.19877610521E+02  0.29709797746E+02  0.00000000000E+00 0.  1.
<mgrwt>
<rscale>  0 0.89965392E+02</rscale>
<asrwt>0</asrwt>
<pdfrwt beam="2">  1        3 0.75537116E-02 0.89965392E+02</pdfrwt>
<pdfrwt beam="1">  1       -3 0.63402130E-02 0.89965392E+02</pdfrwt>
<totfact> 0.36717015E+04</totfact>
</mgrwt>
</event>
<event>
 7    1  0.1312339E-009  0.9983457E+02  0.7818608E-02  0.1280644E+00
          3   -1    0    0  501    0  0.00000000000E+00  0.00000000000E+00  0.18770018557E+03  0.18770021274E+03  0.10100000000E+00 0. -1.
         -3   -1    0    0    0  501 -0.00000000000E+00 -0.00000000000E+00 -0.13274860750E+02  0.13275244967E+02  0.10100000000E+00 0.  1.
         23    2    1    2    0    0  0.44408920985E-15  0.00000000000E+00  0.17442532482E+03  0.20097545771E+03  0.99834566477E+02 0.  0.
    9000005    2    3    3    0    0 -0.29412827756E+01  0.46834300098E+02  0.12052814499E+03  0.12951211883E+03  0.66522461984E+01 0.  0.
         22    1    3    3    0    0  0.29412827756E+01 -0.46834300098E+02  0.53897179826E+02  0.71463338875E+02  0.00000000000E+00 0.  1.
         22    1    4    4    0    0 -0.17866681290E+01  0.40138502977E+02  0.96206349714E+02  0.10425906833E+03  0.00000000000E+00 0. -1.
         22    1    4    4    0    0 -0.11546146466E+01  0.66957971211E+01  0.24321795278E+02  0.25253050501E+02  0.00000000000E+00 0. -1.
<mgrwt>
<rscale>  0 0.99834566E+02</rscale>
<asrwt>0</asrwt>
<pdfrwt beam="1">  1        3 0.28876984E-01 0.99834566E+02</pdfrwt>
<pdfrwt beam="2">  1       -3 0.20423178E-02 0.99834566E+02</pdfrwt>
<totfact> 0.22238090E+04</totfact>
</mgrwt>
</event>
<event>
 7    1  0.1312339E-009  0.8876441E+02  0.7818608E-02  0.1305872E+00
         -3   -1    0    0    0  501 -0.00000000000E+00  0.00000000000E+00  0.61007440952E+02  0.61007524556E+02  0.10100000000E+00 0.  1.
          3   -1    0    0  501    0  0.00000000000E+00 -0.00000000000E+00 -0.32287357421E+02  0.32287515393E+02  0.10100000000E+00 0. -1.
         23    2    1    2    0    0  0.00000000000E+00  0.00000000000E+00  0.28720083531E+02  0.93295039949E+02  0.88764414497E+02 0.  0.
    9000005    2    3    3    0    0 -0.55499705635E+01  0.40513705131E+02  0.31468490459E+02  0.52310698825E+02  0.86012117220E+01 0.  0.
         22    1    3    3    0    0  0.55499705635E+01 -0.40513705131E+02 -0.27484069283E+01  0.40984341124E+02  0.00000000000E+00 0. -1.
         22    1    4    4    0    0 -0.40775222916E+01  0.61651822085E+01  0.50369784293E+01  0.89446526707E+01  0.00000000000E+00 0. -1.
         22    1    4    4    0    0 -0.14724482718E+01  0.34348522923E+02  0.26431512030E+02  0.43366046154E+02  0.00000000000E+00 0. -1.
<mgrwt>
<rscale>  0 0.88764414E+02</rscale>
<asrwt>0</asrwt>
<pdfrwt beam="2">  1        3 0.49673044E-02 0.88764414E+02</pdfrwt>
<pdfrwt beam="1">  1       -3 0.93857786E-02 0.88764414E+02</pdfrwt>
<totfact> 0.37833966E+04</totfact>
</mgrwt>
</event>
<event>
 7    1  0.1312339E-009  0.9082401E+02  0.7818608E-02  0.1300868E+00
         -3   -1    0    0    0  501 -0.00000000000E+00  0.00000000000E+00  0.20226182104E+03  0.20226184625E+03  0.10100000000E+00 0.  1.
          3   -1    0    0  501    0  0.00000000000E+00 -0.00000000000E+00 -0.10195667819E+02  0.10196168068E+02  0.10100000000E+00 0. -1.
         23    2    1    2    0    0  0.00000000000E+00 -0.44408920985E-15  0.19206615322E+03  0.21245801432E+03  0.90824009147E+02 0.  0.
    9000005    2    3    3    0    0  0.38370798171E+02  0.38746077267E+01  0.43659048440E+02  0.59121784141E+02  0.10096638652E+02 0.  0.
         22    1    3    3    0    0 -0.38370798171E+02 -0.38746077267E+01  0.14840710478E+03  0.15333623018E+03  0.00000000000E+00 0.  1.
         22    1    4    4    0    0  0.22308197469E+02 -0.27767080219E+01  0.24680552360E+02  0.33384059767E+02  0.00000000000E+00 0.  1.
         22    1    4    4    0    0  0.16062600702E+02  0.66513157485E+01  0.18978496080E+02  0.25737724374E+02  0.00000000000E+00 0.  1.
<mgrwt>
<rscale>  0 0.90824009E+02</rscale>
<asrwt>0</asrwt>
<pdfrwt beam="2">  1        3 0.15686049E-02 0.90824009E+02</pdfrwt>
<pdfrwt beam="1">  1       -3 0.31117240E-01 0.90824009E+02</pdfrwt>
<totfact> 0.28157734E+04</totfact>
</mgrwt>
</event>
<event>
 7    1  0.1312339E-009  0.9062381E+02  0.7818608E-02  0.1301348E+00
          3   -1    0    0  501    0  0.00000000000E+00  0.00000000000E+00  0.12351374769E+03  0.12351378898E+03  0.10100000000E+00 0. -1.
         -3   -1    0    0    0  501 -0.00000000000E+00 -0.00000000000E+00 -0.16622800651E+02  0.16623107485E+02  0.10100000000E+00 0.  1.
         23    2    1    2    0    0  0.00000000000E+00  0.00000000000E+00  0.10689094704E+03  0.14013689647E+03  0.90623811402E+02 0.  0.
    9000005    2    3    3    0    0  0.12010261896E+02 -0.22984258015E+02  0.11018398036E+03  0.11399561540E+03  0.13489562408E+02 0.  0.
         22    1    3    3    0    0 -0.12010261896E+02  0.22984258015E+02 -0.32930333289E+01  0.26141281067E+02  0.00000000000E+00 0.  1.
         22    1    4    4    0    0  0.68173391260E+01 -0.14043218352E+02  0.89719052809E+02  0.91066989252E+02  0.00000000000E+00 0. -1.
         22    1    4    4    0    0  0.51929227704E+01 -0.89410396631E+01  0.20464927555E+02  0.22928626147E+02  0.00000000000E+00 0. -1.
<mgrwt>
<rscale>  0 0.90623811E+02</rscale>
<asrwt>0</asrwt>
<pdfrwt beam="1">  1        3 0.19002141E-01 0.90623811E+02</pdfrwt>
<pdfrwt beam="2">  1       -3 0.25573808E-02 0.90623811E+02</pdfrwt>
<totfact> 0.32451553E+04</totfact>
</mgrwt>
</event>
<event>
 7    1  0.1312339E-009  0.8805264E+02  0.7818608E-02  0.1307637E+00
          3   -1    0    0  501    0  0.00000000000E+00  0.00000000000E+00  0.13052671883E+02  0.13053062640E+02  0.10100000000E+00 0. -1.
         -3   -1    0    0    0  501 -0.00000000000E+00 -0.00000000000E+00 -0.14849699072E+03  0.14849702506E+03  0.10100000000E+00 0.  1.
         23    2    1    2    0    0  0.35527136788E-14  0.00000000000E+00 -0.13544431883E+03  0.16155008770E+03  0.88052639558E+02 0.  0.
    9000005    2    3    3    0    0 -0.17864396075E+02 -0.28289194933E+02 -0.11858612615E+03  0.12408525276E+03  0.14665109578E+02 0.  0.
         22    1    3    3    0    0  0.17864396075E+02  0.28289194933E+02 -0.16858192679E+02  0.37464834945E+02  0.00000000000E+00 0. -1.
         22    1    4    4    0    0 -0.18117400454E+02 -0.22459907158E+02 -0.10987141313E+03  0.11359760144E+03  0.00000000000E+00 0.  1.
         22    1    4    4    0    0  0.25300437886E+00 -0.58292877750E+01 -0.87147130220E+01  0.10487651321E+02  0.00000000000E+00 0.  1.
<mgrwt>
<rscale>  0 0.88052640E+02</rscale>
<asrwt>0</asrwt>
<pdfrwt beam="1">  1        3 0.20081362E-02 0.88052640E+02</pdfrwt>
<pdfrwt beam="2">  1       -3 0.22845722E-01 0.88052640E+02</pdfrwt>
<totfact> 0.33633561E+04</totfact>
</mgrwt>
</event>
<event>
 7    1  0.1312339E-009  0.9099881E+02  0.7818608E-02  0.1300451E+00
          3   -1    0    0  501    0  0.00000000000E+00  0.00000000000E+00  0.48753950502E+02  0.48754055119E+02  0.10100000000E+00 0. -1.
         -3   -1    0    0    0  501 -0.00000000000E+00 -0.00000000000E+00 -0.42461904029E+02  0.42462024148E+02  0.10100000000E+00 0.  1.
         23    2    1    2    0    0 -0.35527136788E-14  0.71054273576E-14  0.62920464725E+01  0.91216079267E+02  0.90998809157E+02 0.  0.
    9000005    2    3    3    0    0  0.27802006472E+02 -0.35116378204E+02  0.60802268412E+01  0.46425941407E+02  0.10596569968E+02 0.  0.
         22    1    3    3    0    0 -0.27802006472E+02  0.35116378204E+02  0.21181963132E+00  0.44790137860E+02  0.00000000000E+00 0.  1.
         22    1    4    4    0    0  0.24685440541E+02 -0.34759130537E+02  0.43787062509E+01  0.42857218748E+02  0.00000000000E+00 0.  1.
         22    1    4    4    0    0  0.31165659307E+01 -0.35724766642E+00  0.17015205903E+01  0.35687226587E+01  0.00000000000E+00 0.  1.
<mgrwt>
<rscale>  0 0.90998809E+02</rscale>
<asrwt>0</asrwt>
<pdfrwt beam="1">  1        3 0.75006250E-02 0.90998809E+02</pdfrwt>
<pdfrwt beam="2">  1       -3 0.65326179E-02 0.90998809E+02</pdfrwt>
<totfact> 0.35524487E+04</totfact>
</mgrwt>
</event>
<event>
 7    1  0.1312339E-009  0.8852603E+02  0.7818608E-02  0.1306461E+00
          3   -1    0    0  501    0  0.00000000000E+00  0.00000000000E+00  0.44675237833E+01  0.44686653214E+01  0.10100000000E+00 0. -1.
         -3   -1    0    0    0  501 -0.00000000000E+00 -0.00000000000E+00 -0.43848876191E+03  0.43848877354E+03  0.10100000000E+00 0.  1.
         23    2    1    2    0    0  0.00000000000E+00  0.00000000000E+00 -0.43402123813E+03  0.44295743886E+03  0.88526027243E+02 0.  0.
    9000005    2    3    3    0    0  0.32576127487E+02 -0.29092497976E+02 -0.20759059754E+03  0.21235298852E+03  0.96103083664E+01 0.  0.
         22    1    3    3    0    0 -0.32576127487E+02  0.29092497976E+02 -0.22643064058E+03  0.23060445034E+03  0.00000000000E+00 0.  1.
         22    1    4    4    0    0  0.28864459290E+02 -0.28943437630E+02 -0.19429000178E+03  0.19854340680E+03  0.00000000000E+00 0. -1.
         22    1    4    4    0    0  0.37116681968E+01 -0.14906034593E+00 -0.13300595765E+02  0.13809581728E+02  0.00000000000E+00 0. -1.
<mgrwt>
<rscale>  0 0.88526027E+02</rscale>
<asrwt>0</asrwt>
<pdfrwt beam="1">  1        3 0.68740040E-03 0.88526027E+02</pdfrwt>
<pdfrwt beam="2">  1       -3 0.67459864E-01 0.88526027E+02</pdfrwt>
<totfact> 0.20946051E+04</totfact>
</mgrwt>
</event>
<event>
 7    1  0.1841010E-009  0.9000916E+02  0.7818608E-02  0.1302830E+00
         -3   -1    0    0    0  501 -0.00000000000E+00  0.00000000000E+00  0.17781411361E+02  0.17781698203E+02  0.10100000000E+00 0.  1.
          3   -1    0    0  501    0  0.00000000000E+00 -0.00000000000E+00 -0.11390492645E+03  0.11390497123E+03  0.10100000000E+00 0. -1.
         23    2    1    2    0    0  0.00000000000E+00  0.00000000000E+00 -0.96123515086E+02  0.13168666943E+03  0.90009159271E+02 0.  0.
    9000005    2    3    3    0    0  0.33281319126E+02  0.24966966813E+01 -0.82134992188E+01  0.37654490964E+02  0.15379187990E+02 0.  0.
         22    1    3    3    0    0 -0.33281319126E+02 -0.24966966813E+01 -0.87910015867E+02  0.94032178465E+02  0.00000000000E+00 0. -1.
         22    1    4    4    0    0  0.35530232749E+01  0.37741178739E+01  0.28419053256E+01  0.59113759818E+01  0.00000000000E+00 0. -1.
         22    1    4    4    0    0  0.29728295851E+02 -0.12774211926E+01 -0.11055404544E+02  0.31743114982E+02  0.00000000000E+00 0. -1.
<mgrwt>
<rscale>  0 0.90009159E+02</rscale>
<asrwt>0</asrwt>
<pdfrwt beam="2">  1        3 0.17523860E-01 0.90009159E+02</pdfrwt>
<pdfrwt beam="1">  1       -3 0.27356273E-02 0.90009159E+02</pdfrwt>
<totfact> 0.33617862E+04</totfact>
</mgrwt>
</event>
<event>
 7    1  0.1312339E-009  0.9345220E+02  0.7818608E-02  0.1294701E+00
          3   -1    0    0  501    0  0.00000000000E+00  0.00000000000E+00  0.12000118083E+02  0.12000543113E+02  0.10100000000E+00 0. -1.
         -3   -1    0    0    0  501 -0.00000000000E+00 -0.00000000000E+00 -0.18193858658E+03  0.18193861461E+03  0.10100000000E+00 0.  1.
         23    2    1    2    0    0  0.00000000000E+00  0.00000000000E+00 -0.16993846849E+03  0.19393915772E+03  0.93452200747E+02 0.  0.
    9000005    2    3    3    0    0  0.32682163875E+02 -0.16585320493E+02 -0.14297488192E+03  0.14843935890E+03  0.15787011173E+02 0.  0.
         22    1    3    3    0    0 -0.32682163875E+02  0.16585320493E+02 -0.26963586578E+02  0.45499798818E+02  0.00000000000E+00 0. -1.
         22    1    4    4    0    0  0.19605842589E+02 -0.82480837453E+01 -0.10949993681E+03  0.11154665441E+03  0.00000000000E+00 0.  1.
         22    1    4    4    0    0  0.13076321285E+02 -0.83372367481E+01 -0.33474945107E+02  0.36892704494E+02  0.00000000000E+00 0.  1.
<mgrwt>
<rscale>  0 0.93452201E+02</rscale>
<asrwt>0</asrwt>
<pdfrwt beam="1">  1        3 0.18462070E-02 0.93452201E+02</pdfrwt>
<pdfrwt beam="2">  1       -3 0.27990585E-01 0.93452201E+02</pdfrwt>
<totfact> 0.26954398E+04</totfact>
</mgrwt>
</event>
<event>
 7    1  0.1312339E-009  0.9577108E+02  0.7818608E-02  0.1289449E+00
         -3   -1    0    0    0  501 -0.00000000000E+00  0.00000000000E+00  0.13957869098E+02  0.13958234514E+02  0.10100000000E+00 0.  1.
          3   -1    0    0  501    0  0.00000000000E+00 -0.00000000000E+00 -0.16427933004E+03  0.16427936109E+03  0.10100000000E+00 0. -1.
         23    2    1    2    0    0 -0.35527136788E-14  0.00000000000E+00 -0.15032146094E+03  0.17823759560E+03  0.95771075312E+02 0.  0.
    9000005    2    3    3    0    0 -0.23651840888E+02  0.99735719295E+01 -0.15015203778E+03  0.15256834516E+03  0.85196114742E+01 0.  0.
         22    1    3    3    0    0  0.23651840888E+02 -0.99735719295E+01 -0.16942316514E+00  0.25669250450E+02  0.00000000000E+00 0.  1.
         22    1    4    4    0    0 -0.14827395553E+02  0.10070464597E+02 -0.11066909912E+03  0.11211117436E+03  0.00000000000E+00 0.  1.
         22    1    4    4    0    0 -0.88244453355E+01 -0.96892667796E-01 -0.39482938658E+02  0.40457170795E+02  0.00000000000E+00 0.  1.
<mgrwt>
<rscale>  0 0.95771075E+02</rscale>
<asrwt>0</asrwt>
<pdfrwt beam="2">  1        3 0.25273772E-01 0.95771075E+02</pdfrwt>
<pdfrwt beam="1">  1       -3 0.21473951E-02 0.95771075E+02</pdfrwt>
<totfact> 0.25959149E+04</totfact>
</mgrwt>
</event>
<event>
 7    1  0.1312339E-009  0.8882579E+02  0.7818608E-02  0.1305720E+00
         -3   -1    0    0    0  501 -0.00000000000E+00  0.00000000000E+00  0.19405911577E+03  0.19405914205E+03  0.10100000000E+00 0.  1.
          3   -1    0    0  501    0  0.00000000000E+00 -0.00000000000E+00 -0.10164176711E+02  0.10164678510E+02  0.10100000000E+00 0. -1.
         23    2    1    2    0    0 -0.35527136788E-14  0.00000000000E+00  0.18389493906E+03  0.20422382056E+03  0.88825786084E+02 0.  0.
    9000005    2    3    3    0    0 -0.30174591484E+02 -0.26361604868E+02  0.49965110101E+02  0.64428830427E+02  0.70086931938E+01 0.  0.
         22    1    3    3    0    0  0.30174591484E+02  0.26361604868E+02  0.13392982896E+03  0.13979499013E+03  0.00000000000E+00 0.  1.
         22    1    4    4    0    0 -0.36201728418E+01 -0.37679167177E+01  0.33103836521E+01  0.61855870958E+01  0.00000000000E+00 0.  1.
         22    1    4    4    0    0 -0.26554418642E+02 -0.22593688150E+02  0.46654726449E+02  0.58243243331E+02  0.00000000000E+00 0.  1.
<mgrwt>
<rscale>  0 0.88825786E+02</rscale>
<asrwt>0</asrwt>
<pdfrwt beam="2">  1        3 0.15637601E-02 0.88825786E+02</pdfrwt>
<pdfrwt beam="1">  1       -3 0.29855290E-01 0.88825786E+02</pdfrwt>
<totfact> 0.30338591E+04</totfact>
</mgrwt>
</event>
<event>
 7    1  0.1312339E-009  0.9154196E+02  0.7818608E-02  0.1299160E+00
          3   -1    0    0  501    0  0.00000000000E+00  0.00000000000E+00  0.31263395192E+03  0.31263396824E+03  0.10100000000E+00 0. -1.
         -3   -1    0    0    0  501 -0.00000000000E+00 -0.00000000000E+00 -0.67006745806E+01  0.67014357294E+01  0.10100000000E+00 0.  1.
         23    2    1    2    0    0  0.00000000000E+00  0.35527136788E-14  0.30593327734E+03  0.31933540397E+03  0.91541957819E+02 0.  0.
    9000005    2    3    3    0    0  0.37685760891E+02  0.24695005492E+02  0.15813469881E+03  0.16482171627E+03  0.11382236844E+02 0.  0.
         22    1    3    3    0    0 -0.37685760891E+02 -0.24695005492E+02  0.14779857853E+03  0.15451368770E+03  0.00000000000E+00 0. -1.
         22    1    4    4    0    0  0.12463173927E+01 -0.11504982528E+01  0.81662601385E+01  0.83405490181E+01  0.00000000000E+00 0. -1.
         22    1    4    4    0    0  0.36439443498E+02  0.25845503745E+02  0.14996843867E+03  0.15648116725E+03  0.00000000000E+00 0. -1.
<mgrwt>
<rscale>  0 0.91541958E+02</rscale>
<asrwt>0</asrwt>
<pdfrwt beam="1">  1        3 0.48097589E-01 0.91541958E+02</pdfrwt>
<pdfrwt beam="2">  1       -3 0.10309329E-02 0.91541958E+02</pdfrwt>
<totfact> 0.23053149E+04</totfact>
</mgrwt>
</event>
<event>
 7    1  0.1733814E-009  0.9016734E+02  0.7818608E-02  0.1302447E+00
         -3   -1    0    0    0  501 -0.00000000000E+00  0.00000000000E+00  0.16699615854E+02  0.16699921278E+02  0.10100000000E+00 0.  1.
          3   -1    0    0  501    0  0.00000000000E+00 -0.00000000000E+00 -0.12171018236E+03  0.12171022426E+03  0.10100000000E+00 0. -1.
         23    2    1    2    0    0  0.00000000000E+00  0.00000000000E+00 -0.10501056650E+03  0.13841014554E+03  0.90167340604E+02 0.  0.
    9000005    2    3    3    0    0  0.25612931388E+02 -0.21087255655E+01  0.14143917583E+01  0.28926170830E+02  0.13200525636E+02 0.  0.
         22    1    3    3    0    0 -0.25612931388E+02  0.21087255655E+01 -0.10642495826E+03  0.10948397471E+03  0.00000000000E+00 0. -1.
         22    1    4    4    0    0  0.15127622792E+02 -0.43683428935E+00  0.72822628808E+01  0.16794854813E+02  0.00000000000E+00 0.  1.
         22    1    4    4    0    0  0.10485308596E+02 -0.16718912762E+01 -0.58678711225E+01  0.12131316017E+02  0.00000000000E+00 0.  1.
<mgrwt>
<rscale>  0 0.90167341E+02</rscale>
<asrwt>0</asrwt>
<pdfrwt beam="2">  1        3 0.18724670E-01 0.90167341E+02</pdfrwt>
<pdfrwt beam="1">  1       -3 0.25691985E-02 0.90167341E+02</pdfrwt>
<totfact> 0.33010929E+04</totfact>
</mgrwt>
</event>
<event>
 7    1  0.1312339E-009  0.9144226E+02  0.7818608E-02  0.1299396E+00
          3   -1    0    0  501    0  0.00000000000E+00  0.00000000000E+00  0.25964655029E+02  0.25964851468E+02  0.10100000000E+00 0. -1.
         -3   -1    0    0    0  501 -0.00000000000E+00 -0.00000000000E+00 -0.80509748405E+02  0.80509811757E+02  0.10100000000E+00 0.  1.
         23    2    1    2    0    0  0.71054273576E-14  0.00000000000E+00 -0.54545093376E+02  0.10647466323E+03  0.91442258818E+02 0.  0.
    9000005    2    3    3    0    0  0.36027034745E+02 -0.27758801735E+02 -0.31935658756E+02  0.55684065276E+02  0.35114839067E+01 0.  0.
         22    1    3    3    0    0 -0.36027034745E+02  0.27758801735E+02 -0.22609434620E+02  0.50790597950E+02  0.00000000000E+00 0.  1.
         22    1    4    4    0    0  0.14031831245E+02 -0.12899853449E+02 -0.13974550867E+02  0.23634436296E+02  0.00000000000E+00 0. -1.
         22    1    4    4    0    0  0.21995203500E+02 -0.14858948286E+02 -0.17961107889E+02  0.32049628980E+02  0.00000000000E+00 0. -1.
<mgrwt>
<rscale>  0 0.91442259E+02</rscale>
<asrwt>0</asrwt>
<pdfrwt beam="1">  1        3 0.39945823E-02 0.91442259E+02</pdfrwt>
<pdfrwt beam="2">  1       -3 0.12386135E-01 0.91442259E+02</pdfrwt>
<totfact> 0.33929361E+04</totfact>
</mgrwt>
</event>
<event>
 7    1  0.1312339E-009  0.8934401E+02  0.7818608E-02  0.1304448E+00
          3   -1    0    0  501    0  0.00000000000E+00  0.00000000000E+00  0.44392136516E+02  0.44392251412E+02  0.10100000000E+00 0. -1.
         -3   -1    0    0    0  501 -0.00000000000E+00 -0.00000000000E+00 -0.44953407270E+02  0.44953520732E+02  0.10100000000E+00 0.  1.
         23    2    1    2    0    0  0.00000000000E+00  0.35527136788E-14 -0.56127075471E+00  0.89345772144E+02  0.89344009173E+02 0.  0.
    9000005    2    3    3    0    0  0.29964897601E+02 -0.24279177591E+02  0.20690697755E+02  0.45311470534E+02  0.11732469290E+02 0.  0.
         22    1    3    3    0    0 -0.29964897601E+02  0.24279177591E+02 -0.21251968510E+02  0.44034301610E+02  0.00000000000E+00 0.  1.
         22    1    4    4    0    0  0.16589438309E+02 -0.10474839472E+02  0.16506901450E+02  0.25639998457E+02  0.00000000000E+00 0. -1.
         22    1    4    4    0    0  0.13375459292E+02 -0.13804338119E+02  0.41837963052E+01  0.19671472077E+02  0.00000000000E+00 0. -1.
<mgrwt>
<rscale>  0 0.89344009E+02</rscale>
<asrwt>0</asrwt>
<pdfrwt beam="1">  1        3 0.68295770E-02 0.89344009E+02</pdfrwt>
<pdfrwt beam="2">  1       -3 0.69159264E-02 0.89344009E+02</pdfrwt>
<totfact> 0.37493559E+04</totfact>
</mgrwt>
</event>
<event>
 7    1  0.1312339E-009  0.9198592E+02  0.7818608E-02  0.1298113E+00
          3   -1    0    0  501    0  0.00000000000E+00  0.00000000000E+00  0.12370017960E+02  0.12370430281E+02  0.10100000000E+00 0. -1.
         -3   -1    0    0    0  501 -0.00000000000E+00 -0.00000000000E+00 -0.17100311517E+03  0.17100314500E+03  0.10100000000E+00 0.  1.
         23    2    1    2    0    0 -0.71054273576E-14 -0.11102230246E-15 -0.15863309721E+03  0.18337357528E+03  0.91985915118E+02 0.  0.
    9000005    2    3    3    0    0  0.34651519807E+02  0.85353219776E+00 -0.20393783835E+02  0.40854930518E+02  0.71946220440E+01 0.  0.
         22    1    3    3    0    0 -0.34651519807E+02 -0.85353219776E+00 -0.13823931337E+03  0.14251864476E+03  0.00000000000E+00 0.  1.
         22    1    4    4    0    0  0.33978097179E+02  0.10419637230E+01 -0.18214849108E+02  0.38566533476E+02  0.00000000000E+00 0.  1.
         22    1    4    4    0    0  0.67342262761E+00 -0.18843152526E+00 -0.21789347275E+01  0.22883970420E+01  0.00000000000E+00 0.  1.
<mgrwt>
<rscale>  0 0.91985915E+02</rscale>
<asrwt>0</asrwt>
<pdfrwt beam="1">  1        3 0.19031138E-02 0.91985915E+02</pdfrwt>
<pdfrwt beam="2">  1       -3 0.26308204E-01 0.91985915E+02</pdfrwt>
<totfact> 0.28686742E+04</totfact>
</mgrwt>
</event>
<event>
 7    1  0.1312339E-009  0.9046652E+02  0.7818608E-02  0.1301726E+00
         -3   -1    0    0    0  501 -0.00000000000E+00  0.00000000000E+00  0.73333964439E+02  0.73334033991E+02  0.10100000000E+00 0.  1.
          3   -1    0    0  501    0  0.00000000000E+00 -0.00000000000E+00 -0.27900239133E+02  0.27900421944E+02  0.10100000000E+00 0. -1.
         23    2    1    2    0    0 -0.17763568394E-14  0.00000000000E+00  0.45433725306E+02  0.10123445594E+03  0.90466522390E+02 0.  0.
    9000005    2    3    3    0    0  0.91466657707E+01  0.41226507215E+02  0.40248844394E+02  0.58688370546E+02  0.64085076643E+01 0.  0.
         22    1    3    3    0    0 -0.91466657707E+01 -0.41226507215E+02  0.51848809125E+01  0.42546085389E+02  0.00000000000E+00 0. -1.
         22    1    4    4    0    0  0.17425852432E+01  0.10361643093E+02  0.13974998470E+02  0.17484302479E+02  0.00000000000E+00 0.  1.
         22    1    4    4    0    0  0.74040805275E+01  0.30864864122E+02  0.26273845923E+02  0.41204068068E+02  0.00000000000E+00 0.  1.
<mgrwt>
<rscale>  0 0.90466522E+02</rscale>
<asrwt>0</asrwt>
<pdfrwt beam="2">  1        3 0.42923639E-02 0.90466522E+02</pdfrwt>
<pdfrwt beam="1">  1       -3 0.11282168E-01 0.90466522E+02</pdfrwt>
<totfact> 0.35324126E+04</totfact>
</mgrwt>
</event>
<event>
 7    1  0.1312339E-009  0.9205151E+02  0.7818608E-02  0.1297958E+00
          3   -1    0    0  501    0  0.00000000000E+00  0.00000000000E+00  0.78224953607E+03  0.78224954259E+03  0.10100000000E+00 0. -1.
         -3   -1    0    0    0  501 -0.00000000000E+00 -0.00000000000E+00 -0.27071007310E+01  0.27089841948E+01  0.10100000000E+00 0.  1.
         23    2    1    2    0    0  0.17763568394E-14  0.22204460493E-15  0.77954243534E+03  0.78495852679E+03  0.92051508833E+02 0.  0.
    9000005    2    3    3    0    0 -0.12947829570E+02  0.15642708894E+01  0.76608683557E+03  0.76621962609E+03  0.57777630278E+01 0.  0.
         22    1    3    3    0    0  0.12947829570E+02 -0.15642708894E+01  0.13455599774E+02  0.18738900696E+02  0.00000000000E+00 0.  1.
         22    1    4    4    0    0 -0.17699382832E+01 -0.51611204187E+00  0.25351366134E+03  0.25352036514E+03  0.00000000000E+00 0.  1.
         22    1    4    4    0    0 -0.11177891287E+02  0.20803829312E+01  0.51257317423E+03  0.51269926096E+03  0.00000000000E+00 0.  1.
<mgrwt>
<rscale>  0 0.92051509E+02</rscale>
<asrwt>0</asrwt>
<pdfrwt beam="1">  1        3 0.12034628E+00 0.92051509E+02</pdfrwt>
<pdfrwt beam="2">  1       -3 0.41662225E-03 0.92051509E+02</pdfrwt>
<totfact> 0.12306162E+04</totfact>
</mgrwt>
</event>
<event>
 6    1  0.1312339E-009  0.3667812E+02  0.7818608E-02  0.1534184E+00
          3   -1    0    0  501    0  0.00000000000E+00  0.00000000000E+00  0.41319665401E+01  0.41332007559E+01  0.10100000000E+00 0. -1.
         -3   -1    0    0    0  501 -0.00000000000E+00 -0.00000000000E+00 -0.81381513206E+02  0.81381575879E+02  0.10100000000E+00 0.  1.
    9000005    2    1    2    0    0 -0.11772969761E+02  0.68015665384E+01 -0.27421879483E+02  0.33865376434E+02  0.14492761029E+02 0.  0.
         22    1    1    2    0    0  0.11772969761E+02 -0.68015665384E+01 -0.49827667182E+02  0.51649400202E+02  0.00000000000E+00 0.  1.
         22    1    3    3    0    0 -0.42501164820E+01 -0.44618266877E+01 -0.10684189266E+02  0.12333826972E+02  0.00000000000E+00 0.  1.
         22    1    3    3    0    0 -0.75228532787E+01  0.11263393226E+02 -0.16737690217E+02  0.21531549462E+02  0.00000000000E+00 0.  1.
<mgrwt>
<rscale>  0 0.36678121E+02</rscale>
<asrwt>0</asrwt>
<pdfrwt beam="1">  1        3 0.63578698E-03 0.36678121E+02</pdfrwt>
<pdfrwt beam="2">  1       -3 0.12520331E-01 0.36678121E+02</pdfrwt>
<totfact> 0.36979673E+05</totfact>
</mgrwt>
</event>
<event>
 7    1  0.1312339E-009  0.9308895E+02  0.7818608E-02  0.1295539E+00
          3   -1    0    0  501    0  0.00000000000E+00  0.00000000000E+00  0.13848045983E+03  0.13848049666E+03  0.10100000000E+00 0. -1.
         -3   -1    0    0    0  501 -0.00000000000E+00 -0.00000000000E+00 -0.15643795346E+02  0.15644121382E+02  0.10100000000E+00 0.  1.
         23    2    1    2    0    0  0.00000000000E+00  0.35527136788E-14  0.12283666449E+03  0.15412461805E+03  0.93088945346E+02 0.  0.
    9000005    2    3    3    0    0  0.13102854883E+02  0.17723434444E+02 -0.56805407874E+01  0.23731071480E+02  0.67149292924E+01 0.  0.
         22    1    3    3    0    0 -0.13102854883E+02 -0.17723434444E+02  0.12851720527E+03  0.13039354657E+03  0.00000000000E+00 0. -1.
         22    1    4    4    0    0  0.83581904461E+01  0.15772771059E+02 -0.51217260446E+01  0.18570722444E+02  0.00000000000E+00 0. -1.
         22    1    4    4    0    0  0.47446644370E+01  0.19506633844E+01 -0.55881474282E+00  0.51603490362E+01  0.00000000000E+00 0. -1.
<mgrwt>
<rscale>  0 0.93088945E+02</rscale>
<asrwt>0</asrwt>
<pdfrwt beam="1">  1        3 0.21304715E-01 0.93088945E+02</pdfrwt>
<pdfrwt beam="2">  1       -3 0.24067656E-02 0.93088945E+02</pdfrwt>
<totfact> 0.29355268E+04</totfact>
</mgrwt>
</event>
<event>
 7    1  0.1312339E-009  0.9956636E+02  0.7818608E-02  0.1281210E+00
         -3   -1    0    0    0  501 -0.00000000000E+00  0.00000000000E+00  0.22193159860E+02  0.22193389682E+02  0.10100000000E+00 0.  1.
          3   -1    0    0  501    0  0.00000000000E+00 -0.00000000000E+00 -0.11167164488E+03  0.11167169055E+03  0.10100000000E+00 0. -1.
         23    2    1    2    0    0 -0.97144514655E-16 -0.35527136788E-14 -0.89478485020E+02  0.13386508024E+03  0.99566361915E+02 0.  0.
    9000005    2    3    3    0    0  0.11090863201E+00 -0.30323316366E+02  0.78507836698E+01  0.31921456796E+02  0.61505108397E+01 0.  0.
         22    1    3    3    0    0 -0.11090863201E+00  0.30323316366E+02 -0.97329268689E+02  0.10194362344E+03  0.00000000000E+00 0. -1.
         22    1    4    4    0    0  0.22601291129E+01 -0.13330676440E+02  0.12992170564E+01  0.13583191191E+02  0.00000000000E+00 0.  1.
         22    1    4    4    0    0 -0.21492204809E+01 -0.16992639926E+02  0.65515666134E+01  0.18338265606E+02  0.00000000000E+00 0.  1.
<mgrwt>
<rscale>  0 0.99566362E+02</rscale>
<asrwt>0</asrwt>
<pdfrwt beam="2">  1        3 0.17180274E-01 0.99566362E+02</pdfrwt>
<pdfrwt beam="1">  1       -3 0.34143535E-02 0.99566362E+02</pdfrwt>
<totfact> 0.25419817E+04</totfact>
</mgrwt>
</event>
<event>
 7    1  0.1312339E-009  0.9091725E+02  0.7818608E-02  0.1300646E+00
          3   -1    0    0  501    0  0.00000000000E+00  0.00000000000E+00  0.51061154709E+01  0.51071142735E+01  0.10100000000E+00 0. -1.
         -3   -1    0    0    0  501 -0.00000000000E+00 -0.00000000000E+00 -0.40466757680E+03  0.40466758940E+03  0.10100000000E+00 0.  1.
         23    2    1    2    0    0  0.00000000000E+00  0.11102230246E-15 -0.39956146133E+03  0.40977470367E+03  0.90917250259E+02 0.  0.
    9000005    2    3    3    0    0 -0.31667633368E+02  0.38533916171E+00 -0.34628183851E+03  0.34779320889E+03  0.67835810896E+01 0.  0.
         22    1    3    3    0    0  0.31667633368E+02 -0.38533916171E+00 -0.53279622812E+02  0.61981494790E+02  0.00000000000E+00 0. -1.
         22    1    4    4    0    0 -0.27107438950E+02 -0.62112371040E+00 -0.26679178956E+03  0.26816610155E+03  0.00000000000E+00 0.  1.
         22    1    4    4    0    0 -0.45601944176E+01  0.10064628721E+01 -0.79490048950E+02  0.79627107336E+02  0.00000000000E+00 0.  1.
<mgrwt>
<rscale>  0 0.90917250E+02</rscale>
<asrwt>0</asrwt>
<pdfrwt beam="1">  1        3 0.78563435E-03 0.90917250E+02</pdfrwt>
<pdfrwt beam="2">  1       -3 0.62256603E-01 0.90917250E+02</pdfrwt>
<totfact> 0.20463207E+04</totfact>
</mgrwt>
</event>
<event>
 7    1  0.1312339E-009  0.9201341E+02  0.7818608E-02  0.1298048E+00
          3   -1    0    0  501    0  0.00000000000E+00  0.00000000000E+00  0.23214044205E+03  0.23214046402E+03  0.10100000000E+00 0. -1.
         -3   -1    0    0    0  501 -0.00000000000E+00 -0.00000000000E+00 -0.91175275434E+01  0.91180869432E+01  0.10100000000E+00 0.  1.
         23    2    1    2    0    0  0.33306690739E-15  0.00000000000E+00  0.22302291451E+03  0.24125855097E+03  0.92013412167E+02 0.  0.
    9000005    2    3    3    0    0  0.73266720166E+00 -0.45575491402E+02  0.11985015865E+03  0.12846546710E+03  0.78519736200E+01 0.  0.
         22    1    3    3    0    0 -0.73266720166E+00  0.45575491402E+02  0.10317275585E+03  0.11279308387E+03  0.00000000000E+00 0.  1.
         22    1    4    4    0    0  0.27704569368E+01 -0.91261489546E+01  0.20186038575E+02  0.22325729097E+02  0.00000000000E+00 0. -1.
         22    1    4    4    0    0 -0.20377897352E+01 -0.36449342448E+02  0.99664120079E+02  0.10613973800E+03  0.00000000000E+00 0. -1.
<mgrwt>
<rscale>  0 0.92013412E+02</rscale>
<asrwt>0</asrwt>
<pdfrwt beam="1">  1        3 0.35713958E-01 0.92013412E+02</pdfrwt>
<pdfrwt beam="2">  1       -3 0.14027413E-02 0.92013412E+02</pdfrwt>
<totfact> 0.25852395E+04</totfact>
</mgrwt>
</event>
<event>
 7    1  0.1312339E-009  0.9086464E+02  0.7818608E-02  0.1300771E+00
         -3   -1    0    0    0  501 -0.00000000000E+00  0.00000000000E+00  0.61712307951E+02  0.61712390601E+02  0.10100000000E+00 0.  1.
          3   -1    0    0  501    0  0.00000000000E+00 -0.00000000000E+00 -0.33446886120E+02  0.33447038615E+02  0.10100000000E+00 0. -1.
         23    2    1    2    0    0 -0.71054273576E-14  0.00000000000E+00  0.28265421832E+02  0.95159429215E+02  0.90864640523E+02 0.  0.
    9000005    2    3    3    0    0  0.44077747045E+02 -0.47590597999E+01  0.11040191352E+02  0.47596786314E+02  0.13344354895E+02 0.  0.
         22    1    3    3    0    0 -0.44077747045E+02  0.47590597999E+01  0.17225230480E+02  0.47562642902E+02  0.00000000000E+00 0.  1.
         22    1    4    4    0    0  0.21714757172E+02 -0.68931934626E+01  0.10600183750E+02  0.25127886713E+02  0.00000000000E+00 0.  1.
         22    1    4    4    0    0  0.22362989873E+02  0.21341336626E+01  0.44000760129E+00  0.22468899600E+02  0.00000000000E+00 0.  1.
<mgrwt>
<rscale>  0 0.90864641E+02</rscale>
<asrwt>0</asrwt>
<pdfrwt beam="2">  1        3 0.51456929E-02 0.90864641E+02</pdfrwt>
<pdfrwt beam="1">  1       -3 0.94942193E-02 0.90864641E+02</pdfrwt>
<totfact> 0.35363820E+04</totfact>
</mgrwt>
</event>
<event>
 7    1  0.1312339E-009  0.9158984E+02  0.7818608E-02  0.1299047E+00
          3   -1    0    0  501    0  0.00000000000E+00  0.00000000000E+00  0.14731248479E+03  0.14731251941E+03  0.10100000000E+00 0. -1.
         -3   -1    0    0    0  501 -0.00000000000E+00 -0.00000000000E+00 -0.14236015895E+02  0.14236374171E+02  0.10100000000E+00 0.  1.
         23    2    1    2    0    0  0.44408920985E-15  0.35527136788E-14  0.13307646890E+03  0.16154889359E+03  0.91589838110E+02 0.  0.
    9000005    2    3    3    0    0 -0.37603202866E+01  0.19349828297E+02  0.13937795607E+03  0.14085433864E+03  0.50173908129E+01 0.  0.
         22    1    3    3    0    0  0.37603202866E+01 -0.19349828297E+02 -0.63014871775E+01  0.20694554946E+02  0.00000000000E+00 0.  1.
         22    1    4    4    0    0 -0.32019135736E+01  0.67082011911E+01  0.41317512840E+02  0.41980818013E+02  0.00000000000E+00 0. -1.
         22    1    4    4    0    0 -0.55840671306E+00  0.12641627106E+02  0.98060443234E+02  0.98873520627E+02  0.00000000000E+00 0. -1.
<mgrwt>
<rscale>  0 0.91589838E+02</rscale>
<asrwt>0</asrwt>
<pdfrwt beam="1">  1        3 0.22663489E-01 0.91589838E+02</pdfrwt>
<pdfrwt beam="2">  1       -3 0.21901866E-02 0.91589838E+02</pdfrwt>
<totfact> 0.30242366E+04</totfact>
</mgrwt>
</event>
<event>
 7    1  0.1312339E-009  0.8809020E+02  0.7818608E-02  0.1307544E+00
          3   -1    0    0  501    0  0.00000000000E+00  0.00000000000E+00  0.65490036796E+02  0.65490114678E+02  0.10100000000E+00 0. -1.
         -3   -1    0    0    0  501 -0.00000000000E+00 -0.00000000000E+00 -0.29622201802E+02  0.29622373986E+02  0.10100000000E+00 0.  1.
         23    2    1    2    0    0  0.00000000000E+00  0.35527136788E-14  0.35867834994E+02  0.95112488665E+02  0.88090203274E+02 0.  0.
    9000005    2    3    3    0    0 -0.16188534524E+02 -0.30962716412E+02  0.45506185827E+02  0.58868092347E+02  0.13186390348E+02 0.  0.
         22    1    3    3    0    0  0.16188534524E+02  0.30962716412E+02 -0.96383508325E+01  0.36244396318E+02  0.00000000000E+00 0.  1.
         22    1    4    4    0    0 -0.42300188669E+01 -0.21408941887E+02  0.29811821343E+02  0.36945643100E+02  0.00000000000E+00 0.  1.
         22    1    4    4    0    0 -0.11958515658E+02 -0.95537745256E+01  0.15694364484E+02  0.21922449246E+02  0.00000000000E+00 0.  1.
<mgrwt>
<rscale>  0 0.88090203E+02</rscale>
<asrwt>0</asrwt>
<pdfrwt beam="1">  1        3 0.10075409E-01 0.88090203E+02</pdfrwt>
<pdfrwt beam="2">  1       -3 0.45572811E-02 0.88090203E+02</pdfrwt>
<totfact> 0.38469804E+04</totfact>
</mgrwt>
</event>
<event>
 7    1  0.1312339E-009  0.9275130E+02  0.7818608E-02  0.1296323E+00
          3   -1    0    0  501    0  0.00000000000E+00  0.00000000000E+00  0.12605848228E+03  0.12605852274E+03  0.10100000000E+00 0. -1.
         -3   -1    0    0    0  501 -0.00000000000E+00 -0.00000000000E+00 -0.17060944736E+02  0.17061243691E+02  0.10100000000E+00 0.  1.
         23    2    1    2    0    0 -0.88817841970E-15  0.00000000000E+00  0.10899753755E+03  0.14311976643E+03  0.92751303781E+02 0.  0.
    9000005    2    3    3    0    0 -0.55014173315E+01 -0.21007142416E+02  0.11743106336E+03  0.11982405904E+03  0.98073879048E+01 0.  0.
         22    1    3    3    0    0  0.55014173315E+01  0.21007142416E+02 -0.84335258187E+01  0.23295707391E+02  0.00000000000E+00 0.  1.
         22    1    4    4    0    0 -0.24668951338E+01 -0.23226028940E+01  0.38755575875E+02  0.38903402386E+02  0.00000000000E+00 0. -1.
         22    1    4    4    0    0 -0.30345221977E+01 -0.18684539521E+02  0.78675487489E+02  0.80920656657E+02  0.00000000000E+00 0. -1.
<mgrwt>
<rscale>  0 0.92751304E+02</rscale>
<asrwt>0</asrwt>
<pdfrwt beam="1">  1        3 0.19393638E-01 0.92751304E+02</pdfrwt>
<pdfrwt beam="2">  1       -3 0.26247869E-02 0.92751304E+02</pdfrwt>
<totfact> 0.30291238E+04</totfact>
</mgrwt>
</event>
<event>
 7    1  0.1312339E-009  0.9032926E+02  0.7818608E-02  0.1302056E+00
          3   -1    0    0  501    0  0.00000000000E+00  0.00000000000E+00  0.12978132932E+03  0.12978136862E+03  0.10100000000E+00 0. -1.
         -3   -1    0    0    0  501 -0.00000000000E+00 -0.00000000000E+00 -0.15717341753E+02  0.15717666264E+02  0.10100000000E+00 0.  1.
         23    2    1    2    0    0  0.35527136788E-14 -0.35527136788E-14  0.11406398757E+03  0.14549903488E+03  0.90329263768E+02 0.  0.
    9000005    2    3    3    0    0  0.16661803186E+02 -0.26546195631E+02  0.10927982011E+03  0.11379407555E+03  0.49695432354E+01 0.  0.
         22    1    3    3    0    0 -0.16661803186E+02  0.26546195631E+02  0.47841674555E+01  0.31704959330E+02  0.00000000000E+00 0.  1.
         22    1    4    4    0    0  0.17307428870E+00 -0.12891098555E+00  0.39850525220E+01  0.39908916741E+01  0.00000000000E+00 0. -1.
         22    1    4    4    0    0  0.16488728897E+02 -0.26417284646E+02  0.10529476759E+03  0.10980318388E+03  0.00000000000E+00 0. -1.
<mgrwt>
<rscale>  0 0.90329264E+02</rscale>
<asrwt>0</asrwt>
<pdfrwt beam="1">  1        3 0.19966386E-01 0.90329264E+02</pdfrwt>
<pdfrwt beam="2">  1       -3 0.24180806E-02 0.90329264E+02</pdfrwt>
<totfact> 0.32392547E+04</totfact>
</mgrwt>
</event>
<event>
 7    1  0.1312339E-009  0.1066270E+03  0.7818608E-02  0.1266947E+00
         -3   -1    0    0    0  501 -0.00000000000E+00  0.00000000000E+00  0.27981202292E+02  0.27981384574E+02  0.10100000000E+00 0.  1.
          3   -1    0    0  501    0  0.00000000000E+00 -0.00000000000E+00 -0.10157932836E+03  0.10157937857E+03  0.10100000000E+00 0. -1.
         23    2    1    2    0    0  0.00000000000E+00  0.17763568394E-14 -0.73598126065E+02  0.12956076314E+03  0.10662695337E+03 0.  0.
    9000005    2    3    3    0    0  0.25894797898E+02  0.11494049230E+02 -0.91558414050E+02  0.96016379555E+02  0.57920837041E+01 0.  0.
         22    1    3    3    0    0 -0.25894797898E+02 -0.11494049230E+02  0.17960287984E+02  0.33544383589E+02  0.00000000000E+00 0.  1.
         22    1    4    4    0    0  0.12404574570E+02  0.28444958711E+01 -0.35489982598E+02  0.37702831350E+02  0.00000000000E+00 0.  1.
         22    1    4    4    0    0  0.13490223328E+02  0.86495533585E+01 -0.56068431452E+02  0.58313548205E+02  0.00000000000E+00 0.  1.
<mgrwt>
<rscale>  0 0.10662695E+03</rscale>
<asrwt>0</asrwt>
<pdfrwt beam="2">  1        3 0.15627607E-01 0.10662695E+03</pdfrwt>
<pdfrwt beam="1">  1       -3 0.43048183E-02 0.10662695E+03</pdfrwt>
<totfact> 0.21230855E+04</totfact>
</mgrwt>
</event>
<event>
 7    1  0.1312339E-009  0.9043033E+02  0.7818608E-02  0.1301813E+00
          3   -1    0    0  501    0  0.00000000000E+00  0.00000000000E+00  0.92616185058E+02  0.92616240129E+02  0.10100000000E+00 0. -1.
         -3   -1    0    0    0  501 -0.00000000000E+00 -0.00000000000E+00 -0.22073840303E+02  0.22074071367E+02  0.10100000000E+00 0.  1.
         23    2    1    2    0    0  0.00000000000E+00  0.00000000000E+00  0.70542344755E+02  0.11469031150E+03  0.90430333116E+02 0.  0.
    9000005    2    3    3    0    0  0.15915636261E+02  0.20316629772E+02  0.81579514888E+02  0.86620896692E+02  0.13486644191E+02 0.  0.
         22    1    3    3    0    0 -0.15915636261E+02 -0.20316629772E+02 -0.11037170133E+02  0.28069414804E+02  0.00000000000E+00 0.  1.
         22    1    4    4    0    0  0.12362764698E+02  0.21947616488E+02  0.69470027816E+02  0.73896011971E+02  0.00000000000E+00 0.  1.
         22    1    4    4    0    0  0.35528715632E+01 -0.16309867167E+01  0.12109487072E+02  0.12724884721E+02  0.00000000000E+00 0.  1.
<mgrwt>
<rscale>  0 0.90430333E+02</rscale>
<asrwt>0</asrwt>
<pdfrwt beam="1">  1        3 0.14248666E-01 0.90430333E+02</pdfrwt>
<pdfrwt beam="2">  1       -3 0.33959975E-02 0.90430333E+02</pdfrwt>
<totfact> 0.34371539E+04</totfact>
</mgrwt>
</event>
<event>
 7    1  0.1312339E-009  0.9254950E+02  0.7818608E-02  0.1296793E+00
         -3   -1    0    0    0  501 -0.00000000000E+00  0.00000000000E+00  0.84158185483E+02  0.84158246089E+02  0.10100000000E+00 0.  1.
          3   -1    0    0  501    0  0.00000000000E+00 -0.00000000000E+00 -0.25444204479E+02  0.25444404936E+02  0.10100000000E+00 0. -1.
         23    2    1    2    0    0  0.00000000000E+00  0.00000000000E+00  0.58713981004E+02  0.10960265103E+03  0.92549497818E+02 0.  0.
    9000005    2    3    3    0    0  0.39522704635E+02  0.18704940376E+02  0.43775850267E+02  0.63395868773E+02  0.13812752613E+02 0.  0.
         22    1    3    3    0    0 -0.39522704635E+02 -0.18704940376E+02  0.14938130737E+02  0.46206782252E+02  0.00000000000E+00 0. -1.
         22    1    4    4    0    0  0.34169698984E+02  0.15045913585E+02  0.29050769410E+02  0.47306395419E+02  0.00000000000E+00 0. -1.
         22    1    4    4    0    0  0.53530056518E+01  0.36590267911E+01  0.14725080857E+02  0.16089473354E+02  0.00000000000E+00 0. -1.
<mgrwt>
<rscale>  0 0.92549498E+02</rscale>
<asrwt>0</asrwt>
<pdfrwt beam="2">  1        3 0.39145130E-02 0.92549498E+02</pdfrwt>
<pdfrwt beam="1">  1       -3 0.12947433E-01 0.92549498E+02</pdfrwt>
<totfact> 0.32619063E+04</totfact>
</mgrwt>
</event>
<event>
 7    1  0.1312339E-009  0.8863289E+02  0.7818608E-02  0.1306197E+00
         -3   -1    0    0    0  501 -0.00000000000E+00  0.00000000000E+00  0.22393177507E+03  0.22393179784E+03  0.10100000000E+00 0.  1.
          3   -1    0    0  501    0  0.00000000000E+00 -0.00000000000E+00 -0.87699783583E+01  0.87705599254E+01  0.10100000000E+00 0. -1.
         23    2    1    2    0    0  0.00000000000E+00  0.00000000000E+00  0.21516179671E+03  0.23270235777E+03  0.88632886382E+02 0.  0.
    9000005    2    3    3    0    0  0.36173003118E+02 -0.91375688867E+01  0.16932674090E+03  0.17360215759E+03  0.86129331725E+01 0.  0.
         22    1    3    3    0    0 -0.36173003118E+02  0.91375688867E+01  0.45835055810E+02  0.59100200176E+02  0.00000000000E+00 0. -1.
         22    1    4    4    0    0  0.84169576944E+01  0.14219819899E+00  0.52199643107E+02  0.52874078126E+02  0.00000000000E+00 0. -1.
         22    1    4    4    0    0  0.27756045424E+02 -0.92797670857E+01  0.11712709779E+03  0.12072807947E+03  0.00000000000E+00 0. -1.
<mgrwt>
<rscale>  0 0.88632886E+02</rscale>
<asrwt>0</asrwt>
<pdfrwt beam="2">  1        3 0.13492737E-02 0.88632886E+02</pdfrwt>
<pdfrwt beam="1">  1       -3 0.34451094E-01 0.88632886E+02</pdfrwt>
<totfact> 0.29010828E+04</totfact>
</mgrwt>
</event>
<event>
 7    1  0.1312339E-009  0.9391880E+02  0.7818608E-02  0.1293630E+00
          3   -1    0    0  501    0  0.00000000000E+00  0.00000000000E+00  0.23032912175E+03  0.23032914390E+03  0.10100000000E+00 0. -1.
         -3   -1    0    0    0  501 -0.00000000000E+00 -0.00000000000E+00 -0.95737723128E+01  0.95743050556E+01  0.10100000000E+00 0.  1.
         23    2    1    2    0    0 -0.17763568394E-14  0.35527136788E-14  0.22075534944E+03  0.23990344895E+03  0.93918797443E+02 0.  0.
    9000005    2    3    3    0    0 -0.13269757504E+02  0.24147632241E+02  0.20685872605E+03  0.20904391641E+03  0.12232409301E+02 0.  0.
         22    1    3    3    0    0  0.13269757504E+02 -0.24147632241E+02  0.13896623386E+02  0.30859532541E+02  0.00000000000E+00 0.  1.
         22    1    4    4    0    0  0.73984929819E+00 -0.12847048054E+00  0.27338860107E+02  0.27349170986E+02  0.00000000000E+00 0. -1.
         22    1    4    4    0    0 -0.14009606802E+02  0.24276102722E+02  0.17951986595E+03  0.18169474543E+03  0.00000000000E+00 0. -1.
<mgrwt>
<rscale>  0 0.93918797E+02</rscale>
<asrwt>0</asrwt>
<pdfrwt beam="1">  1        3 0.35435294E-01 0.93918797E+02</pdfrwt>
<pdfrwt beam="2">  1       -3 0.14729307E-02 0.93918797E+02</pdfrwt>
<totfact> 0.24516969E+04</totfact>
</mgrwt>
</event>
<event>
 7    1  0.1312339E-009  0.9351189E+02  0.7818608E-02  0.1294563E+00
         -3   -1    0    0    0  501 -0.00000000000E+00  0.00000000000E+00  0.47476486083E+02  0.47476593515E+02  0.10100000000E+00 0.  1.
          3   -1    0    0  501    0  0.00000000000E+00 -0.00000000000E+00 -0.46046122528E+02  0.46046233298E+02  0.10100000000E+00 0. -1.
         23    2    1    2    0    0  0.00000000000E+00  0.00000000000E+00  0.14303635549E+01  0.93522826813E+02  0.93511887989E+02 0.  0.
    9000005    2    3    3    0    0  0.79605823109E+01  0.40137761177E+02  0.20644724340E+02  0.48316605965E+02  0.15293103866E+02 0.  0.
         22    1    3    3    0    0 -0.79605823109E+01 -0.40137761177E+02 -0.19214360785E+02  0.45206220848E+02  0.00000000000E+00 0.  1.
         22    1    4    4    0    0  0.10281920538E+02  0.20261690525E+02  0.59435026335E+01  0.23485723673E+02  0.00000000000E+00 0. -1.
         22    1    4    4    0    0 -0.23213382274E+01  0.19876070652E+02  0.14701221707E+02  0.24830882292E+02  0.00000000000E+00 0. -1.
<mgrwt>
<rscale>  0 0.93511888E+02</rscale>
<asrwt>0</asrwt>
<pdfrwt beam="2">  1        3 0.70840356E-02 0.93511888E+02</pdfrwt>
<pdfrwt beam="1">  1       -3 0.73040916E-02 0.93511888E+02</pdfrwt>
<totfact> 0.32811533E+04</totfact>
</mgrwt>
</event>
<event>
 7    1  0.1312339E-009  0.9154154E+02  0.7818608E-02  0.1299161E+00
          3   -1    0    0  501    0  0.00000000000E+00  0.00000000000E+00  0.19595946994E+02  0.19596207275E+02  0.10100000000E+00 0. -1.
         -3   -1    0    0    0  501 -0.00000000000E+00 -0.00000000000E+00 -0.10690700425E+03  0.10690705196E+03  0.10100000000E+00 0.  1.
         23    2    1    2    0    0  0.88817841970E-15  0.35527136788E-14 -0.87311057256E+02  0.12650325924E+03  0.91541541815E+02 0.  0.
    9000005    2    3    3    0    0 -0.60687894799E+01  0.27782029100E+02 -0.92416759159E+02  0.97611399853E+02  0.13358767197E+02 0.  0.
         22    1    3    3    0    0  0.60687894799E+01 -0.27782029100E+02  0.51057019029E+01  0.28891859382E+02  0.00000000000E+00 0. -1.
         22    1    4    4    0    0 -0.85298907624E+01  0.19868838095E+02 -0.51347892767E+02  0.55714772325E+02  0.00000000000E+00 0. -1.
         22    1    4    4    0    0  0.24611012825E+01  0.79131910049E+01 -0.41068866393E+02  0.41896627527E+02  0.00000000000E+00 0. -1.
<mgrwt>
<rscale>  0 0.91541542E+02</rscale>
<asrwt>0</asrwt>
<pdfrwt beam="1">  1        3 0.30147848E-02 0.91541542E+02</pdfrwt>
<pdfrwt beam="2">  1       -3 0.16447255E-01 0.91541542E+02</pdfrwt>
<totfact> 0.32454763E+04</totfact>
</mgrwt>
</event>
<event>
 7    1  0.1312339E-009  0.8861872E+02  0.7818608E-02  0.1306232E+00
         -3   -1    0    0    0  501 -0.00000000000E+00  0.00000000000E+00  0.14410142532E+03  0.14410146072E+03  0.10100000000E+00 0.  1.
          3   -1    0    0  501    0  0.00000000000E+00 -0.00000000000E+00 -0.13624341853E+02  0.13624716214E+02  0.10100000000E+00 0. -1.
         23    2    1    2    0    0  0.00000000000E+00  0.00000000000E+00  0.13047708347E+03  0.15772617693E+03  0.88618720250E+02 0.  0.
    9000005    2    3    3    0    0  0.10824094857E+02 -0.42720853719E+02  0.62770583073E+02  0.76940023614E+02  0.61146351077E+01 0.  0.
         22    1    3    3    0    0 -0.10824094857E+02  0.42720853719E+02  0.67706500397E+02  0.80786153318E+02  0.00000000000E+00 0.  1.
         22    1    4    4    0    0  0.89927790842E+01 -0.40570560016E+02  0.59986372856E+02  0.72974004577E+02  0.00000000000E+00 0.  1.
         22    1    4    4    0    0  0.18313157723E+01 -0.21502937028E+01  0.27842102170E+01  0.39660190366E+01  0.00000000000E+00 0.  1.
<mgrwt>
<rscale>  0 0.88618720E+02</rscale>
<asrwt>0</asrwt>
<pdfrwt beam="2">  1        3 0.20960842E-02 0.88618720E+02</pdfrwt>
<pdfrwt beam="1">  1       -3 0.22169481E-01 0.88618720E+02</pdfrwt>
<totfact> 0.33303198E+04</totfact>
</mgrwt>
</event>
<event>
 7    1  0.1312339E-009  0.9310899E+02  0.7818608E-02  0.1295493E+00
          3   -1    0    0  501    0  0.00000000000E+00  0.00000000000E+00  0.30606393682E+02  0.30606560330E+02  0.10100000000E+00 0. -1.
         -3   -1    0    0    0  501 -0.00000000000E+00 -0.00000000000E+00 -0.70812288902E+02  0.70812360931E+02  0.10100000000E+00 0.  1.
         23    2    1    2    0    0  0.35527136788E-14  0.00000000000E+00 -0.40205895220E+02  0.10141892126E+03  0.93108987639E+02 0.  0.
    9000005    2    3    3    0    0 -0.18594718931E+02  0.50604149081E+01 -0.66054972512E+02  0.69176927402E+02  0.71285706893E+01 0.  0.
         22    1    3    3    0    0  0.18594718931E+02 -0.50604149081E+01  0.25849077291E+02  0.32241993858E+02  0.00000000000E+00 0. -1.
         22    1    4    4    0    0 -0.18082203169E+02  0.52085637689E+01 -0.55399689049E+02  0.58508296461E+02  0.00000000000E+00 0.  1.
         22    1    4    4    0    0 -0.51251576164E+00 -0.14814886076E+00 -0.10655283462E+02  0.10668630941E+02  0.00000000000E+00 0.  1.
<mgrwt>
<rscale>  0 0.93108988E+02</rscale>
<asrwt>0</asrwt>
<pdfrwt beam="1">  1        3 0.47086943E-02 0.93108988E+02</pdfrwt>
<pdfrwt beam="2">  1       -3 0.10894217E-01 0.93108988E+02</pdfrwt>
<totfact> 0.32644618E+04</totfact>
</mgrwt>
</event>
<event>
 7    1  0.1312339E-009  0.8991569E+02  0.7818608E-02  0.1303056E+00
          3   -1    0    0  501    0  0.00000000000E+00  0.00000000000E+00  0.42833247689E+02  0.42833366767E+02  0.10100000000E+00 0. -1.
         -3   -1    0    0    0  501 -0.00000000000E+00 -0.00000000000E+00 -0.47187585975E+02  0.47187694064E+02  0.10100000000E+00 0.  1.
         23    2    1    2    0    0 -0.17763568394E-14  0.71054273576E-14 -0.43543382856E+01  0.90021060831E+02  0.89915689016E+02 0.  0.
    9000005    2    3    3    0    0 -0.14634404953E+02  0.37690775531E+02  0.14406873845E+02  0.45448160443E+02  0.14940445280E+02 0.  0.
         22    1    3    3    0    0  0.14634404953E+02 -0.37690775531E+02 -0.18761212131E+02  0.44572900389E+02  0.00000000000E+00 0.  1.
         22    1    4    4    0    0 -0.10343595626E+02  0.36448409431E+02  0.15356106752E+02  0.40881371492E+02  0.00000000000E+00 0.  1.
         22    1    4    4    0    0 -0.42908093265E+01  0.12423661004E+01 -0.94923290723E+00  0.45667889502E+01  0.00000000000E+00 0.  1.
<mgrwt>
<rscale>  0 0.89915689E+02</rscale>
<asrwt>0</asrwt>
<pdfrwt beam="1">  1        3 0.65897479E-02 0.89915689E+02</pdfrwt>
<pdfrwt beam="2">  1       -3 0.72596461E-02 0.89915689E+02</pdfrwt>
<totfact> 0.36795495E+04</totfact>
</mgrwt>
</event>
<event>
 7    1  0.1312339E-009  0.8954058E+02  0.7818608E-02  0.1303968E+00
          3   -1    0    0  501    0  0.00000000000E+00  0.00000000000E+00  0.22958046896E+03  0.22958049117E+03  0.10100000000E+00 0. -1.
         -3   -1    0    0    0  501 -0.00000000000E+00 -0.00000000000E+00 -0.87303018018E+01  0.87308860117E+01  0.10100000000E+00 0.  1.
         23    2    1    2    0    0  0.00000000000E+00  0.00000000000E+00  0.22085016715E+03  0.23831137718E+03  0.89540583891E+02 0.  0.
    9000005    2    3    3    0    0  0.15782816035E+02  0.30725789925E+02  0.43161660002E+02  0.57296524140E+02  0.15059592820E+02 0.  0.
         22    1    3    3    0    0 -0.15782816035E+02 -0.30725789925E+02  0.17768850715E+03  0.18101485304E+03  0.00000000000E+00 0. -1.
         22    1    4    4    0    0  0.18088351375E+02  0.21399151876E+02  0.33462286402E+02  0.43644435702E+02  0.00000000000E+00 0.  1.
         22    1    4    4    0    0 -0.23055353398E+01  0.93266380493E+01  0.96993736000E+01  0.13652088439E+02  0.00000000000E+00 0.  1.
<mgrwt>
<rscale>  0 0.89540584E+02</rscale>
<asrwt>0</asrwt>
<pdfrwt beam="1">  1        3 0.35320116E-01 0.89540584E+02</pdfrwt>
<pdfrwt beam="2">  1       -3 0.13431701E-02 0.89540584E+02</pdfrwt>
<totfact> 0.27958984E+04</totfact>
</mgrwt>
</event>
<event>
 7    1  0.1312339E-009  0.9178584E+02  0.7818608E-02  0.1298584E+00
          3   -1    0    0  501    0  0.00000000000E+00  0.00000000000E+00  0.12534328375E+03  0.12534332444E+03  0.10100000000E+00 0. -1.
         -3   -1    0    0    0  501 -0.00000000000E+00 -0.00000000000E+00 -0.16802940864E+02  0.16803244409E+02  0.10100000000E+00 0.  1.
         23    2    1    2    0    0  0.00000000000E+00  0.00000000000E+00  0.10854034288E+03  0.14214656885E+03  0.91785843148E+02 0.  0.
    9000005    2    3    3    0    0  0.27422506403E+02  0.35236358375E+02  0.42793382772E+02  0.62671682421E+02  0.10142551919E+02 0.  0.
         22    1    3    3    0    0 -0.27422506403E+02 -0.35236358375E+02  0.65746960112E+02  0.79474886429E+02  0.00000000000E+00 0. -1.
         22    1    4    4    0    0  0.13501321572E+02  0.10931582693E+02  0.12420504359E+02  0.21355423501E+02  0.00000000000E+00 0.  1.
         22    1    4    4    0    0  0.13921184831E+02  0.24304775682E+02  0.30372878413E+02  0.41316258920E+02  0.00000000000E+00 0.  1.
<mgrwt>
<rscale>  0 0.91785843E+02</rscale>
<asrwt>0</asrwt>
<pdfrwt beam="1">  1        3 0.19283609E-01 0.91785843E+02</pdfrwt>
<pdfrwt beam="2">  1       -3 0.25850943E-02 0.91785843E+02</pdfrwt>
<totfact> 0.31224929E+04</totfact>
</mgrwt>
</event>
<event>
 7    1  0.1312339E-009  0.9122728E+02  0.7818608E-02  0.1299907E+00
          3   -1    0    0  501    0  0.00000000000E+00  0.00000000000E+00  0.43212629596E+02  0.43212747629E+02  0.10100000000E+00 0. -1.
         -3   -1    0    0    0  501 -0.00000000000E+00 -0.00000000000E+00 -0.48147823260E+02  0.48147929194E+02  0.10100000000E+00 0.  1.
         23    2    1    2    0    0  0.17763568394E-14  0.71054273576E-14 -0.49351936635E+01  0.91360676822E+02  0.91227282832E+02 0.  0.
    9000005    2    3    3    0    0 -0.15184229998E+02 -0.31565142092E+02  0.26281502874E+02  0.44441584987E+02  0.75774696905E+01 0.  0.
         22    1    3    3    0    0  0.15184229998E+02  0.31565142092E+02 -0.31216696538E+02  0.46919091835E+02  0.00000000000E+00 0.  1.
         22    1    4    4    0    0 -0.19859793159E+01 -0.40544789864E+01  0.58987982767E+00  0.45531167243E+01  0.00000000000E+00 0.  1.
         22    1    4    4    0    0 -0.13198250682E+02 -0.27510663105E+02  0.25691623047E+02  0.39888468263E+02  0.00000000000E+00 0.  1.
<mgrwt>
<rscale>  0 0.91227283E+02</rscale>
<asrwt>0</asrwt>
<pdfrwt beam="1">  1        3 0.66481141E-02 0.91227283E+02</pdfrwt>
<pdfrwt beam="2">  1       -3 0.74073747E-02 0.91227283E+02</pdfrwt>
<totfact> 0.35271331E+04</totfact>
</mgrwt>
</event>
<event>
 7    1  0.1312339E-009  0.9201998E+02  0.7818608E-02  0.1298032E+00
         -3   -1    0    0    0  501 -0.00000000000E+00  0.00000000000E+00  0.94067396187E+01  0.94072818206E+01  0.10100000000E+00 0.  1.
          3   -1    0    0  501    0  0.00000000000E+00 -0.00000000000E+00 -0.22503576550E+03  0.22503578817E+03  0.10100000000E+00 0. -1.
         23    2    1    2    0    0 -0.71054273576E-14  0.00000000000E+00 -0.21562902588E+03  0.23444306999E+03  0.92019977515E+02 0.  0.
    9000005    2    3    3    0    0  0.34057030878E+02  0.52991610928E+00 -0.18580104026E+03  0.18916757010E+03  0.10108454597E+02 0.  0.
         22    1    3    3    0    0 -0.34057030878E+02 -0.52991610928E+00 -0.29827985623E+02  0.45275499883E+02  0.00000000000E+00 0.  1.
         22    1    4    4    0    0  0.16122992719E+02  0.37961481698E+01 -0.69498571786E+02  0.71445175592E+02  0.00000000000E+00 0.  1.
         22    1    4    4    0    0  0.17934038159E+02 -0.32662320605E+01 -0.11630246847E+03  0.11772239451E+03  0.00000000000E+00 0.  1.
<mgrwt>
<rscale>  0 0.92019978E+02</rscale>
<asrwt>0</asrwt>
<pdfrwt beam="2">  1        3 0.34620926E-01 0.92019978E+02</pdfrwt>
<pdfrwt beam="1">  1       -3 0.14472343E-02 0.92019978E+02</pdfrwt>
<totfact> 0.26153014E+04</totfact>
</mgrwt>
</event>
<event>
 7    1  0.1312339E-009  0.7928925E+02  0.7818608E-02  0.1331081E+00
          3   -1    0    0  501    0  0.00000000000E+00  0.00000000000E+00  0.97188175340E+02  0.97188227821E+02  0.10100000000E+00 0. -1.
         -3   -1    0    0    0  501 -0.00000000000E+00 -0.00000000000E+00 -0.16171467601E+02  0.16171782999E+02  0.10100000000E+00 0.  1.
         23    2    1    2    0    0  0.00000000000E+00  0.00000000000E+00  0.81016707739E+02  0.11336001082E+03  0.79289249714E+02 0.  0.
    9000005    2    3    3    0    0  0.37442014825E+02  0.46481773642E+01  0.25863586975E+02  0.46536536225E+02  0.85565206459E+01 0.  0.
         22    1    3    3    0    0 -0.37442014825E+02 -0.46481773642E+01  0.55153120764E+02  0.66823474595E+02  0.00000000000E+00 0. -1.
         22    1    4    4    0    0  0.10703538964E+02  0.17545959740E+01  0.12353350297E+02  0.16439270572E+02  0.00000000000E+00 0. -1.
         22    1    4    4    0    0  0.26738475861E+02  0.28935813902E+01  0.13510236678E+02  0.30097265652E+02  0.00000000000E+00 0. -1.
<mgrwt>
<rscale>  0 0.79289250E+02</rscale>
<asrwt>0</asrwt>
<pdfrwt beam="1">  1        3 0.14952055E-01 0.79289250E+02</pdfrwt>
<pdfrwt beam="2">  1       -3 0.24879464E-02 0.79289250E+02</pdfrwt>
<totfact> 0.49096260E+04</totfact>
</mgrwt>
</event>
<event>
 7    1  0.1312339E-009  0.9424415E+02  0.7818608E-02  0.1292888E+00
         -3   -1    0    0    0  501 -0.00000000000E+00  0.00000000000E+00  0.19072542771E+02  0.19072810196E+02  0.10100000000E+00 0.  1.
          3   -1    0    0  501    0  0.00000000000E+00 -0.00000000000E+00 -0.11642228836E+03  0.11642233217E+03  0.10100000000E+00 0. -1.
         23    2    1    2    0    0  0.35527136788E-14  0.00000000000E+00 -0.97349745586E+02  0.13549514236E+03  0.94244154399E+02 0.  0.
    9000005    2    3    3    0    0  0.18496605367E+02  0.30168089149E+02 -0.62731321776E+01  0.37785431879E+02  0.11668275879E+02 0.  0.
         22    1    3    3    0    0 -0.18496605367E+02 -0.30168089149E+02 -0.91076613408E+02  0.97709710484E+02  0.00000000000E+00 0. -1.
         22    1    4    4    0    0  0.11787705474E+02  0.15865210325E+02  0.21508164932E+01  0.19881672731E+02  0.00000000000E+00 0. -1.
         22    1    4    4    0    0  0.67088998927E+01  0.14302878824E+02 -0.84239486709E+01  0.17903759148E+02  0.00000000000E+00 0. -1.
<mgrwt>
<rscale>  0 0.94244154E+02</rscale>
<asrwt>0</asrwt>
<pdfrwt beam="2">  1        3 0.17911145E-01 0.94244154E+02</pdfrwt>
<pdfrwt beam="1">  1       -3 0.29342614E-02 0.94244154E+02</pdfrwt>
<totfact> 0.29444441E+04</totfact>
</mgrwt>
</event>
<event>
 7    1  0.1312339E-009  0.9180612E+02  0.7818608E-02  0.1298536E+00
          3   -1    0    0  501    0  0.00000000000E+00  0.00000000000E+00  0.15557759635E+03  0.15557762913E+03  0.10100000000E+00 0. -1.
         -3   -1    0    0    0  501 -0.00000000000E+00 -0.00000000000E+00 -0.13543441602E+02  0.13543818200E+02  0.10100000000E+00 0.  1.
         23    2    1    2    0    0  0.00000000000E+00  0.00000000000E+00  0.14203415475E+03  0.16912144733E+03  0.91806115446E+02 0.  0.
    9000005    2    3    3    0    0  0.45627488803E+02  0.17192175412E+01  0.74660172027E+02  0.87733014550E+02  0.61739056847E+01 0.  0.
         22    1    3    3    0    0 -0.45627488803E+02 -0.17192175412E+01  0.67373982720E+02  0.81388432784E+02  0.00000000000E+00 0.  1.
         22    1    4    4    0    0  0.21821054374E+02 -0.42202555103E+00  0.41033194338E+02  0.46476440883E+02  0.00000000000E+00 0.  1.
         22    1    4    4    0    0  0.23806434429E+02  0.21412430922E+01  0.33626977689E+02  0.41256573667E+02  0.00000000000E+00 0.  1.
<mgrwt>
<rscale>  0 0.91806115E+02</rscale>
<asrwt>0</asrwt>
<pdfrwt beam="1">  1        3 0.23935047E-01 0.91806115E+02</pdfrwt>
<pdfrwt beam="2">  1       -3 0.20836379E-02 0.91806115E+02</pdfrwt>
<totfact> 0.29619518E+04</totfact>
</mgrwt>
</event>
<event>
 7    1  0.1312339E-009  0.9091676E+02  0.7818608E-02  0.1300647E+00
         -3   -1    0    0    0  501 -0.00000000000E+00  0.00000000000E+00  0.86335503959E+01  0.86341411523E+01  0.10100000000E+00 0.  1.
          3   -1    0    0  501    0  0.00000000000E+00 -0.00000000000E+00 -0.23934397564E+03  0.23934399695E+03  0.10100000000E+00 0. -1.
         23    2    1    2    0    0  0.00000000000E+00  0.00000000000E+00 -0.23071042525E+03  0.24797813810E+03  0.90916756764E+02 0.  0.
    9000005    2    3    3    0    0 -0.35373119085E+02  0.12719918462E+02 -0.18482864656E+03  0.18866379334E+03  0.43982324789E+01 0.  0.
         22    1    3    3    0    0  0.35373119085E+02 -0.12719918462E+02 -0.45881778690E+02  0.59314344768E+02  0.00000000000E+00 0.  1.
         22    1    4    4    0    0 -0.34602577563E+02  0.11692053916E+02 -0.17683768805E+03  0.18057023679E+03  0.00000000000E+00 0. -1.
         22    1    4    4    0    0 -0.77054152251E+00  0.10278645460E+01 -0.79909585079E+01  0.80935565506E+01  0.00000000000E+00 0. -1.
<mgrwt>
<rscale>  0 0.90916757E+02</rscale>
<asrwt>0</asrwt>
<pdfrwt beam="2">  1        3 0.36822192E-01 0.90916757E+02</pdfrwt>
<pdfrwt beam="1">  1       -3 0.13282858E-02 0.90916757E+02</pdfrwt>
<totfact> 0.26395941E+04</totfact>
</mgrwt>
</event>
<event>
 7    1  0.1312339E-009  0.9179515E+02  0.7818608E-02  0.1298562E+00
         -3   -1    0    0    0  501 -0.00000000000E+00  0.00000000000E+00  0.35839815060E+03  0.35839816483E+03  0.10100000000E+00 0. -1.
          3   -1    0    0  501    0  0.00000000000E+00 -0.00000000000E+00 -0.58773371677E+01  0.58782049287E+01  0.10100000000E+00 0.  1.
         23    2    1    2    0    0  0.71054273576E-14 -0.17763568394E-14  0.35252081343E+03  0.36427636976E+03  0.91795150539E+02 0.  0.
    9000005    2    3    3    0    0  0.32885512123E+02 -0.13750688796E+02  0.28967032936E+03  0.29202180798E+03  0.98639887366E+01 0.  0.
         22    1    3    3    0    0 -0.32885512123E+02  0.13750688796E+02  0.62850484066E+02  0.72254561775E+02  0.00000000000E+00 0.  1.
         22    1    4    4    0    0  0.17216997645E+02 -0.91217137807E+01  0.19295226319E+03  0.19393351062E+03  0.00000000000E+00 0. -1.
         22    1    4    4    0    0  0.15668514478E+02 -0.46289750149E+01  0.96718066171E+02  0.98088297362E+02  0.00000000000E+00 0. -1.
<mgrwt>
<rscale>  0 0.91795151E+02</rscale>
<asrwt>0</asrwt>
<pdfrwt beam="2">  1        3 0.90427338E-03 0.91795151E+02</pdfrwt>
<pdfrwt beam="1">  1       -3 0.55138256E-01 0.91795151E+02</pdfrwt>
<totfact> 0.21337400E+04</totfact>
</mgrwt>
</event>
<event>
 7    1  0.1312339E-009  0.9110144E+02  0.7818608E-02  0.1300206E+00
          3   -1    0    0  501    0  0.00000000000E+00  0.00000000000E+00  0.44642884524E+02  0.44642998775E+02  0.10100000000E+00 0. -1.
         -3   -1    0    0    0  501 -0.00000000000E+00 -0.00000000000E+00 -0.46476784947E+02  0.46476894690E+02  0.10100000000E+00 0.  1.
         23    2    1    2    0    0  0.00000000000E+00  0.00000000000E+00 -0.18339004238E+01  0.91119893465E+02  0.91101436840E+02 0.  0.
    9000005    2    3    3    0    0 -0.28346064674E+02 -0.16678841356E+02 -0.32083036514E+02  0.46435518503E+02  0.67270361408E+01 0.  0.
         22    1    3    3    0    0  0.28346064674E+02  0.16678841356E+02  0.30249136091E+02  0.44684374961E+02  0.00000000000E+00 0. -1.
         22    1    4    4    0    0 -0.10082493363E+02 -0.97579917423E+01 -0.13906143158E+02  0.19754895413E+02  0.00000000000E+00 0. -1.
         22    1    4    4    0    0 -0.18263571310E+02 -0.69208496135E+01 -0.18176893357E+02  0.26680623090E+02  0.00000000000E+00 0. -1.
<mgrwt>
<rscale>  0 0.91101437E+02</rscale>
<asrwt>0</asrwt>
<pdfrwt beam="1">  1        3 0.68681533E-02 0.91101437E+02</pdfrwt>
<pdfrwt beam="2">  1       -3 0.71502919E-02 0.91101437E+02</pdfrwt>
<totfact> 0.35422890E+04</totfact>
</mgrwt>
</event>
<event>
 7    1  0.1312339E-009  0.9219851E+02  0.7818608E-02  0.1297613E+00
         -3   -1    0    0    0  501 -0.00000000000E+00  0.00000000000E+00  0.62251443900E+01  0.62259636745E+01  0.10100000000E+00 0.  1.
          3   -1    0    0  501    0  0.00000000000E+00 -0.00000000000E+00 -0.34135692395E+03  0.34135693890E+03  0.10100000000E+00 0. -1.
         23    2    1    2    0    0  0.00000000000E+00  0.00000000000E+00 -0.33513177956E+03  0.34758290257E+03  0.92198505875E+02 0.  0.
    9000005    2    3    3    0    0 -0.23325673175E+02 -0.41357266114E+01 -0.31625894720E+03  0.31729470247E+03  0.97475776892E+01 0.  0.
         22    1    3    3    0    0  0.23325673175E+02  0.41357266114E+01 -0.18872832367E+02  0.30288200098E+02  0.00000000000E+00 0.  1.
         22    1    4    4    0    0 -0.12389720937E+02 -0.69405766321E+01 -0.16044164923E+03  0.16106892809E+03  0.00000000000E+00 0.  1.
         22    1    4    4    0    0 -0.10935952238E+02  0.28048500207E+01 -0.15581729797E+03  0.15622577438E+03  0.00000000000E+00 0.  1.
<mgrwt>
<rscale>  0 0.92198506E+02</rscale>
<asrwt>0</asrwt>
<pdfrwt beam="2">  1        3 0.52516500E-01 0.92198506E+02</pdfrwt>
<pdfrwt beam="1">  1       -3 0.95777896E-03 0.92198506E+02</pdfrwt>
<totfact> 0.21642709E+04</totfact>
</mgrwt>
</event>
<event>
 7    1  0.1312339E-009  0.9046904E+02  0.7818608E-02  0.1301720E+00
         -3   -1    0    0    0  501 -0.00000000000E+00  0.00000000000E+00  0.13185811984E+02  0.13186198796E+02  0.10100000000E+00 0.  1.
          3   -1    0    0  501    0  0.00000000000E+00 -0.00000000000E+00 -0.15517637461E+03  0.15517640748E+03  0.10100000000E+00 0. -1.
         23    2    1    2    0    0  0.00000000000E+00  0.00000000000E+00 -0.14199056263E+03  0.16836260628E+03  0.90469040655E+02 0.  0.
    9000005    2    3    3    0    0  0.17338619983E+02 -0.48994736056E+01 -0.14788552570E+03  0.14940520207E+03  0.11276218798E+02 0.  0.
         22    1    3    3    0    0 -0.17338619983E+02  0.48994736056E+01  0.58949630721E+01  0.18957404204E+02  0.00000000000E+00 0.  1.
         22    1    4    4    0    0  0.14937675534E+02 -0.32053913523E+00 -0.12757493685E+03  0.12844688166E+03  0.00000000000E+00 0. -1.
         22    1    4    4    0    0  0.24009444489E+01 -0.45789344704E+01 -0.20310588848E+02  0.20958320412E+02  0.00000000000E+00 0. -1.
<mgrwt>
<rscale>  0 0.90469041E+02</rscale>
<asrwt>0</asrwt>
<pdfrwt beam="2">  1        3 0.23873319E-01 0.90469041E+02</pdfrwt>
<pdfrwt beam="1">  1       -3 0.20286189E-02 0.90469041E+02</pdfrwt>
<totfact> 0.30862755E+04</totfact>
</mgrwt>
</event>
<event>
 7    1  0.1312339E-009  0.9143766E+02  0.7818608E-02  0.1299407E+00
          3   -1    0    0  501    0  0.00000000000E+00  0.00000000000E+00  0.52384245225E+02  0.52384342592E+02  0.10100000000E+00 0. -1.
         -3   -1    0    0    0  501 -0.00000000000E+00 -0.00000000000E+00 -0.39901326832E+02  0.39901454659E+02  0.10100000000E+00 0.  1.
         23    2    1    2    0    0  0.00000000000E+00  0.00000000000E+00  0.12482918393E+02  0.92285797251E+02  0.91437657028E+02 0.  0.
    9000005    2    3    3    0    0  0.43320851613E+02 -0.10133579525E+02  0.11099195089E+02  0.47773997595E+02  0.13408098155E+02 0.  0.
         22    1    3    3    0    0 -0.43320851613E+02  0.10133579525E+02  0.13837233047E+01  0.44511799656E+02  0.00000000000E+00 0.  1.
         22    1    4    4    0    0  0.16138868803E+01  0.75016614379E+00 -0.20447771050E+01  0.27108104904E+01  0.00000000000E+00 0. -1.
         22    1    4    4    0    0  0.41706964733E+02 -0.10883745669E+02  0.13143972194E+02  0.45063187105E+02  0.00000000000E+00 0. -1.
<mgrwt>
<rscale>  0 0.91437657E+02</rscale>
<asrwt>0</asrwt>
<pdfrwt beam="1">  1        3 0.80591320E-02 0.91437657E+02</pdfrwt>
<pdfrwt beam="2">  1       -3 0.61386830E-02 0.91437657E+02</pdfrwt>
<totfact> 0.34980092E+04</totfact>
</mgrwt>
</event>
<event>
 7    1  0.1312339E-009  0.9042826E+02  0.7818608E-02  0.1301818E+00
          3   -1    0    0  501    0  0.00000000000E+00  0.00000000000E+00  0.73042925039E+02  0.73042994867E+02  0.10100000000E+00 0. -1.
         -3   -1    0    0    0  501 -0.00000000000E+00 -0.00000000000E+00 -0.27987717896E+02  0.27987900136E+02  0.10100000000E+00 0.  1.
         23    2    1    2    0    0  0.00000000000E+00  0.00000000000E+00  0.45055207143E+02  0.10103089500E+03  0.90428259158E+02 0.  0.
    9000005    2    3    3    0    0 -0.20662832522E+02 -0.32588994883E+02 -0.36451232844E-01  0.41682323913E+02  0.15761331251E+02 0.  0.
         22    1    3    3    0    0  0.20662832522E+02  0.32588994883E+02  0.45091658376E+02  0.59348571090E+02  0.00000000000E+00 0. -1.
         22    1    4    4    0    0 -0.36824253097E+01 -0.33333927336E+01 -0.55073468991E+01  0.74163760116E+01  0.00000000000E+00 0.  1.
         22    1    4    4    0    0 -0.16980407213E+02 -0.29255602149E+02  0.54708956663E+01  0.34265947902E+02  0.00000000000E+00 0.  1.
<mgrwt>
<rscale>  0 0.90428259E+02</rscale>
<asrwt>0</asrwt>
<pdfrwt beam="1">  1        3 0.11237392E-01 0.90428259E+02</pdfrwt>
<pdfrwt beam="2">  1       -3 0.43058222E-02 0.90428259E+02</pdfrwt>
<totfact> 0.35378577E+04</totfact>
</mgrwt>
</event>
<event>
 7    1  0.1312339E-009  0.9305315E+02  0.7818608E-02  0.1295622E+00
         -3   -1    0    0    0  501 -0.00000000000E+00  0.00000000000E+00  0.19869404947E+02  0.19869661646E+02  0.10100000000E+00 0.  1.
          3   -1    0    0  501    0  0.00000000000E+00 -0.00000000000E+00 -0.10894651991E+03  0.10894656672E+03  0.10100000000E+00 0. -1.
         23    2    1    2    0    0 -0.88817841970E-15  0.00000000000E+00 -0.89077114960E+02  0.12881622837E+03  0.93053147620E+02 0.  0.
    9000005    2    3    3    0    0  0.70630089623E+01  0.35615719475E+02 -0.82733552760E+01  0.40229473443E+02  0.15218296773E+02 0.  0.
         22    1    3    3    0    0 -0.70630089623E+01 -0.35615719475E+02 -0.80803759684E+02  0.88586754927E+02  0.00000000000E+00 0. -1.
         22    1    4    4    0    0  0.10740865156E+02  0.33012735466E+02 -0.61829390119E+01  0.35262382536E+02  0.00000000000E+00 0. -1.
         22    1    4    4    0    0 -0.36778561933E+01  0.26029840089E+01 -0.20904162641E+01  0.49670909078E+01  0.00000000000E+00 0. -1.
<mgrwt>
<rscale>  0 0.93053148E+02</rscale>
<asrwt>0</asrwt>
<pdfrwt beam="2">  1        3 0.16761026E-01 0.93053148E+02</pdfrwt>
<pdfrwt beam="1">  1       -3 0.30568549E-02 0.93053148E+02</pdfrwt>
<totfact> 0.30893215E+04</totfact>
</mgrwt>
</event>
<event>
 7    1  0.1312339E-009  0.9163560E+02  0.7818608E-02  0.1298939E+00
         -3   -1    0    0    0  501 -0.00000000000E+00  0.00000000000E+00  0.32271810205E+02  0.32271968253E+02  0.10100000000E+00 0.  1.
          3   -1    0    0  501    0  0.00000000000E+00 -0.00000000000E+00 -0.65049319451E+02  0.65049397861E+02  0.10100000000E+00 0. -1.
         23    2    1    2    0    0  0.00000000000E+00  0.00000000000E+00 -0.32777509246E+02  0.97321366113E+02  0.91635600013E+02 0.  0.
    9000005    2    3    3    0    0  0.92711489039E+01  0.31165741167E+02  0.17015246540E+02  0.37852246788E+02  0.92744998559E+01 0.  0.
         22    1    3    3    0    0 -0.92711489039E+01 -0.31165741167E+02 -0.49792755786E+02  0.59469119325E+02  0.00000000000E+00 0. -1.
         22    1    4    4    0    0  0.45711845868E+01  0.15185915500E+02  0.31250702880E+01  0.16163966790E+02  0.00000000000E+00 0.  1.
         22    1    4    4    0    0  0.46999643171E+01  0.15979825668E+02  0.13890176252E+02  0.21688279998E+02  0.00000000000E+00 0.  1.
<mgrwt>
<rscale>  0 0.91635600E+02</rscale>
<asrwt>0</asrwt>
<pdfrwt beam="2">  1        3 0.10007606E-01 0.91635600E+02</pdfrwt>
<pdfrwt beam="1">  1       -3 0.49649121E-02 0.91635600E+02</pdfrwt>
<totfact> 0.34396702E+04</totfact>
</mgrwt>
</event>
<event>
 7    1  0.1312339E-009  0.8785987E+02  0.7818608E-02  0.1308119E+00
          3   -1    0    0  501    0  0.00000000000E+00  0.00000000000E+00  0.16615425777E+03  0.16615428846E+03  0.10100000000E+00 0. -1.
         -3   -1    0    0    0  501 -0.00000000000E+00 -0.00000000000E+00 -0.11614491847E+02  0.11614930988E+02  0.10100000000E+00 0.  1.
         23    2    1    2    0    0  0.44408920985E-15  0.71054273576E-14  0.15453976592E+03  0.17776921945E+03  0.87859866458E+02 0.  0.
    9000005    2    3    3    0    0 -0.25763409681E+01 -0.41547056169E+02  0.10444841131E+03  0.11263904814E+03  0.67297199315E+01 0.  0.
         22    1    3    3    0    0  0.25763409681E+01  0.41547056169E+02  0.50091354607E+02  0.65130171315E+02  0.00000000000E+00 0. -1.
         22    1    4    4    0    0 -0.43092016756E+00 -0.82587023280E+00  0.70187690335E+00  0.11663554431E+01  0.00000000000E+00 0.  1.
         22    1    4    4    0    0 -0.21454208006E+01 -0.40721185936E+02  0.10374653441E+03  0.11147269269E+03  0.00000000000E+00 0.  1.
<mgrwt>
<rscale>  0 0.87859866E+02</rscale>
<asrwt>0</asrwt>
<pdfrwt beam="1">  1        3 0.25562229E-01 0.87859866E+02</pdfrwt>
<pdfrwt beam="2">  1       -3 0.17868811E-02 0.87859866E+02</pdfrwt>
<totfact> 0.32804396E+04</totfact>
</mgrwt>
</event>
<event>
 7    1  0.1312339E-009  0.9182874E+02  0.7818608E-02  0.1298483E+00
         -3   -1    0    0    0  501 -0.00000000000E+00  0.00000000000E+00  0.27889095493E+02  0.27889278377E+02  0.10100000000E+00 0.  1.
          3   -1    0    0  501    0  0.00000000000E+00 -0.00000000000E+00 -0.75589275754E+02  0.75589343230E+02  0.10100000000E+00 0. -1.
         23    2    1    2    0    0  0.00000000000E+00  0.00000000000E+00 -0.47700180261E+02  0.10347862161E+03  0.91828742411E+02 0.  0.
    9000005    2    3    3    0    0 -0.34961336350E+02 -0.27609089640E+02 -0.25861890765E+02  0.53865440312E+02  0.15750917304E+02 0.  0.
         22    1    3    3    0    0  0.34961336350E+02  0.27609089640E+02 -0.21838289497E+02  0.49613181296E+02  0.00000000000E+00 0.  1.
         22    1    4    4    0    0 -0.69362811688E+01 -0.13802892580E+01  0.81829622605E+00  0.71194665251E+01  0.00000000000E+00 0. -1.
         22    1    4    4    0    0 -0.28025055181E+02 -0.26228800382E+02 -0.26680186991E+02  0.46745973787E+02  0.00000000000E+00 0. -1.
<mgrwt>
<rscale>  0 0.91828742E+02</rscale>
<asrwt>0</asrwt>
<pdfrwt beam="2">  1        3 0.11629139E-01 0.91828742E+02</pdfrwt>
<pdfrwt beam="1">  1       -3 0.42906494E-02 0.91828742E+02</pdfrwt>
<totfact> 0.33753178E+04</totfact>
</mgrwt>
</event>
<event>
 7    1  0.1312339E-009  0.9337351E+02  0.7818608E-02  0.1294882E+00
         -3   -1    0    0    0  501 -0.00000000000E+00  0.00000000000E+00  0.18930560350E+03  0.18930563044E+03  0.10100000000E+00 0.  1.
          3   -1    0    0  501    0  0.00000000000E+00 -0.00000000000E+00 -0.11513688203E+02  0.11514131189E+02  0.10100000000E+00 0. -1.
         23    2    1    2    0    0  0.00000000000E+00  0.00000000000E+00  0.17779191530E+03  0.20081976163E+03  0.93373505434E+02 0.  0.
    9000005    2    3    3    0    0 -0.40750116621E+02  0.19741971739E+02  0.10469192990E+03  0.11483182459E+03  0.13252558184E+02 0.  0.
         22    1    3    3    0    0  0.40750116621E+02 -0.19741971739E+02  0.73099985395E+02  0.85987937046E+02  0.00000000000E+00 0. -1.
         22    1    4    4    0    0 -0.32436566788E+02  0.13986487826E+02  0.66207559438E+02  0.75041279530E+02  0.00000000000E+00 0.  1.
         22    1    4    4    0    0 -0.83135498331E+01  0.57554839131E+01  0.38484370464E+02  0.39790545057E+02  0.00000000000E+00 0.  1.
<mgrwt>
<rscale>  0 0.93373505E+02</rscale>
<asrwt>0</asrwt>
<pdfrwt beam="2">  1        3 0.17713730E-02 0.93373505E+02</pdfrwt>
<pdfrwt beam="1">  1       -3 0.29123972E-01 0.93373505E+02</pdfrwt>
<totfact> 0.26680040E+04</totfact>
</mgrwt>
</event>
<event>
 7    1  0.1312339E-009  0.8464329E+02  0.7818608E-02  0.1316368E+00
          3   -1    0    0  501    0  0.00000000000E+00  0.00000000000E+00  0.26022216441E+03  0.26022218401E+03  0.10100000000E+00 0. -1.
         -3   -1    0    0    0  501 -0.00000000000E+00 -0.00000000000E+00 -0.68826578528E+01  0.68833988784E+01  0.10100000000E+00 0.  1.
         23    2    1    2    0    0  0.00000000000E+00 -0.88817841970E-15  0.25333950655E+03  0.26710558289E+03  0.84643291688E+02 0.  0.
    9000005    2    3    3    0    0  0.38542793610E+02 -0.58656150494E+01  0.17799790767E+03  0.18227452194E+03  0.45600256164E+01 0.  0.
         22    1    3    3    0    0 -0.38542793610E+02  0.58656150494E+01  0.75341598886E+02  0.84831060949E+02  0.00000000000E+00 0. -1.
         22    1    4    4    0    0  0.16099598030E+01 -0.12236580255E+01  0.84523838560E+01  0.86909206865E+01  0.00000000000E+00 0.  1.
         22    1    4    4    0    0  0.36932833807E+02 -0.46419570239E+01  0.16954552381E+03  0.17358360125E+03  0.00000000000E+00 0.  1.
<mgrwt>
<rscale>  0 0.84643292E+02</rscale>
<asrwt>0</asrwt>
<pdfrwt beam="1">  1        3 0.40034231E-01 0.84643292E+02</pdfrwt>
<pdfrwt beam="2">  1       -3 0.10589291E-02 0.84643292E+02</pdfrwt>
<totfact> 0.30939297E+04</totfact>
</mgrwt>
</event>
<event>
 7    1  0.1312339E-009  0.9831434E+02  0.7818608E-02  0.1283881E+00
          3   -1    0    0  501    0  0.00000000000E+00  0.00000000000E+00  0.18193066363E+02  0.18193346715E+02  0.10100000000E+00 0. -1.
         -3   -1    0    0    0  501 -0.00000000000E+00 -0.00000000000E+00 -0.13282001045E+03  0.13282004885E+03  0.10100000000E+00 0.  1.
         23    2    1    2    0    0 -0.35527136788E-14  0.00000000000E+00 -0.11462694408E+03  0.15101339556E+03  0.98314339389E+02 0.  0.
    9000005    2    3    3    0    0  0.17568356881E+02 -0.36808764744E+02 -0.98222548996E+02  0.10705163373E+03  0.12200443721E+02 0.  0.
         22    1    3    3    0    0 -0.17568356881E+02  0.36808764744E+02 -0.16404395088E+02  0.43961761836E+02  0.00000000000E+00 0. -1.
         22    1    4    4    0    0  0.17268315498E+02 -0.37415350862E+02 -0.92183105846E+02  0.10097439380E+03  0.00000000000E+00 0.  1.
         22    1    4    4    0    0  0.30004138328E+00  0.60658611821E+00 -0.60394431496E+01  0.60772399251E+01  0.00000000000E+00 0.  1.
<mgrwt>
<rscale>  0 0.98314339E+02</rscale>
<asrwt>0</asrwt>
<pdfrwt beam="1">  1        3 0.27989579E-02 0.98314339E+02</pdfrwt>
<pdfrwt beam="2">  1       -3 0.20433872E-01 0.98314339E+02</pdfrwt>
<totfact> 0.25448507E+04</totfact>
</mgrwt>
</event>
<event>
 7    1  0.1312339E-009  0.9216878E+02  0.7818608E-02  0.1297683E+00
          3   -1    0    0  501    0  0.00000000000E+00  0.00000000000E+00  0.51248731432E+02  0.51248830957E+02  0.10100000000E+00 0. -1.
         -3   -1    0    0    0  501 -0.00000000000E+00 -0.00000000000E+00 -0.41440260304E+02  0.41440383385E+02  0.10100000000E+00 0.  1.
         23    2    1    2    0    0  0.00000000000E+00  0.22204460493E-15  0.98084711281E+01  0.92689214342E+02  0.92168781859E+02 0.  0.
    9000005    2    3    3    0    0  0.45793193279E+02  0.13089633034E+01  0.24212296807E+01  0.46285536990E+02  0.61448063973E+01 0.  0.
         22    1    3    3    0    0 -0.45793193279E+02 -0.13089633034E+01  0.73872414474E+01  0.46403677352E+02  0.00000000000E+00 0.  1.
         22    1    4    4    0    0  0.16021685942E+02  0.27962679474E+01 -0.92212064216E+00  0.16289992061E+02  0.00000000000E+00 0.  1.
         22    1    4    4    0    0  0.29771507337E+02 -0.14873046440E+01  0.33433503229E+01  0.29995544929E+02  0.00000000000E+00 0.  1.
<mgrwt>
<rscale>  0 0.92168782E+02</rscale>
<asrwt>0</asrwt>
<pdfrwt beam="1">  1        3 0.78844373E-02 0.92168782E+02</pdfrwt>
<pdfrwt beam="2">  1       -3 0.63754418E-02 0.92168782E+02</pdfrwt>
<totfact> 0.34197299E+04</totfact>
</mgrwt>
</event>
<event>
 7    1  0.1312339E-009  0.8892988E+02  0.7818608E-02  0.1305464E+00
         -3   -1    0    0    0  501 -0.00000000000E+00  0.00000000000E+00  0.40059765145E+02  0.40059892467E+02  0.10100000000E+00 0.  1.
          3   -1    0    0  501    0  0.00000000000E+00 -0.00000000000E+00 -0.49354273329E+02  0.49354376674E+02  0.10100000000E+00 0. -1.
         23    2    1    2    0    0  0.22204460493E-15 -0.35527136788E-14 -0.92945081843E+01  0.89414269141E+02  0.88929880488E+02 0.  0.
    9000005    2    3    3    0    0  0.13696495997E+01 -0.31685885598E+02 -0.34384591801E+02  0.48974393003E+02  0.14502404301E+02 0.  0.
         22    1    3    3    0    0 -0.13696495997E+01  0.31685885598E+02  0.25090083616E+02  0.40439876138E+02  0.00000000000E+00 0.  1.
         22    1    4    4    0    0  0.52556903287E+01 -0.97924171767E+01 -0.51618623055E+01  0.12253919269E+02  0.00000000000E+00 0.  1.
         22    1    4    4    0    0 -0.38860407290E+01 -0.21893468422E+02 -0.29222729495E+02  0.36720473734E+02  0.00000000000E+00 0.  1.
<mgrwt>
<rscale>  0 0.88929880E+02</rscale>
<asrwt>0</asrwt>
<pdfrwt beam="2">  1        3 0.75929829E-02 0.88929880E+02</pdfrwt>
<pdfrwt beam="1">  1       -3 0.61630585E-02 0.88929880E+02</pdfrwt>
<totfact> 0.37963778E+04</totfact>
</mgrwt>
</event>
<event>
 7    1  0.1312339E-009  0.8965299E+02  0.7818608E-02  0.1303694E+00
         -3   -1    0    0    0  501 -0.00000000000E+00  0.00000000000E+00  0.15231229661E+02  0.15231564529E+02  0.10100000000E+00 0.  1.
          3   -1    0    0  501    0  0.00000000000E+00 -0.00000000000E+00 -0.13192546495E+03  0.13192550361E+03  0.10100000000E+00 0. -1.
         23    2    1    2    0    0  0.00000000000E+00  0.00000000000E+00 -0.11669423529E+03  0.14715706814E+03  0.89652987426E+02 0.  0.
    9000005    2    3    3    0    0  0.21414491026E+01  0.36245276881E+02 -0.18430696151E+02  0.42400068259E+02  0.11822407849E+02 0.  0.
         22    1    3    3    0    0 -0.21414491026E+01 -0.36245276881E+02 -0.98263539140E+02  0.10475699988E+03  0.00000000000E+00 0. -1.
         22    1    4    4    0    0  0.37490767312E+01  0.45906424781E+01 -0.57630834706E+01  0.82669647264E+01  0.00000000000E+00 0.  1.
         22    1    4    4    0    0 -0.16076276286E+01  0.31654634403E+02 -0.12667612680E+02  0.34133103533E+02  0.00000000000E+00 0.  1.
<mgrwt>
<rscale>  0 0.89652987E+02</rscale>
<asrwt>0</asrwt>
<pdfrwt beam="2">  1        3 0.20296253E-01 0.89652987E+02</pdfrwt>
<pdfrwt beam="1">  1       -3 0.23432949E-02 0.89652987E+02</pdfrwt>
<totfact> 0.32948826E+04</totfact>
</mgrwt>
</event>
<event>
 7    1  0.1312339E-009  0.9101037E+02  0.7818608E-02  0.1300423E+00
          3   -1    0    0  501    0  0.00000000000E+00  0.00000000000E+00  0.67471774495E+02  0.67471850089E+02  0.10100000000E+00 0. -1.
         -3   -1    0    0    0  501 -0.00000000000E+00 -0.00000000000E+00 -0.30690016175E+02  0.30690182369E+02  0.10100000000E+00 0.  1.
         23    2    1    2    0    0  0.00000000000E+00  0.00000000000E+00  0.36781758320E+02  0.98162032458E+02  0.91010366834E+02 0.  0.
    9000005    2    3    3    0    0 -0.85867054998E+01 -0.43822760450E+02  0.25030226328E+02  0.51985584468E+02  0.90456021181E+01 0.  0.
         22    1    3    3    0    0  0.85867054998E+01  0.43822760450E+02  0.11751531991E+02  0.46176447990E+02  0.00000000000E+00 0. -1.
         22    1    4    4    0    0 -0.24350767309E+01 -0.14720039901E+02  0.13376420936E+02  0.20038408381E+02  0.00000000000E+00 0. -1.
         22    1    4    4    0    0 -0.61516287689E+01 -0.29102720549E+02  0.11653805392E+02  0.31947176087E+02  0.00000000000E+00 0. -1.
<mgrwt>
<rscale>  0 0.91010367E+02</rscale>
<asrwt>0</asrwt>
<pdfrwt beam="1">  1        3 0.10380292E-01 0.91010367E+02</pdfrwt>
<pdfrwt beam="2">  1       -3 0.47215595E-02 0.91010367E+02</pdfrwt>
<totfact> 0.34981652E+04</totfact>
</mgrwt>
</event>
<event>
 7    1  0.1312339E-009  0.1058221E+03  0.7818608E-02  0.1268508E+00
          3   -1    0    0  501    0  0.00000000000E+00  0.00000000000E+00  0.44715636729E+03  0.44715637870E+03  0.10100000000E+00 0. -1.
         -3   -1    0    0    0  501 -0.00000000000E+00 -0.00000000000E+00 -0.62604294874E+01  0.62612441549E+01  0.10100000000E+00 0.  1.
         23    2    1    2    0    0 -0.71054273576E-14 -0.35527136788E-14  0.44089593780E+03  0.45341762285E+03  0.10582208059E+03 0.  0.
    9000005    2    3    3    0    0 -0.42256487988E+02  0.27898184648E+02  0.15948928181E+03  0.16749171370E+03  0.72611062631E+01 0.  0.
         22    1    3    3    0    0  0.42256487988E+02 -0.27898184648E+02  0.28140665600E+03  0.28592590915E+03  0.00000000000E+00 0. -1.
         22    1    4    4    0    0 -0.26719986326E+02  0.20178207375E+02  0.95846713085E+02  0.10152689364E+03  0.00000000000E+00 0. -1.
         22    1    4    4    0    0 -0.15536501662E+02  0.77199772732E+01  0.63642568721E+02  0.65964820066E+02  0.00000000000E+00 0. -1.
<mgrwt>
<rscale>  0 0.10582208E+03</rscale>
<asrwt>0</asrwt>
<pdfrwt beam="1">  1        3 0.68793358E-01 0.10582208E+03</pdfrwt>
<pdfrwt beam="2">  1       -3 0.96320644E-03 0.10582208E+03</pdfrwt>
<totfact> 0.12782821E+04</totfact>
</mgrwt>
</event>
<event>
 7    1  0.1312339E-009  0.9106203E+02  0.7818608E-02  0.1300300E+00
         -3   -1    0    0    0  501 -0.00000000000E+00  0.00000000000E+00  0.94393257923E+02  0.94393311958E+02  0.10100000000E+00 0.  1.
          3   -1    0    0  501    0  0.00000000000E+00 -0.00000000000E+00 -0.21961915493E+02  0.21962147734E+02  0.10100000000E+00 0. -1.
         23    2    1    2    0    0  0.71054273576E-14  0.17763568394E-14  0.72431342430E+02  0.11635545969E+03  0.91062031791E+02 0.  0.
    9000005    2    3    3    0    0 -0.42295628527E+02 -0.13769682966E+02  0.25744596107E+02  0.51871534224E+02  0.70247756258E+01 0.  0.
         22    1    3    3    0    0  0.42295628527E+02  0.13769682966E+02  0.46686746323E+02  0.64483925468E+02  0.00000000000E+00 0. -1.
         22    1    4    4    0    0 -0.27874300385E+02 -0.64572181134E+01  0.13785860051E+02  0.31760387672E+02  0.00000000000E+00 0.  1.
         22    1    4    4    0    0 -0.14421328142E+02 -0.73124648526E+01  0.11958736056E+02  0.20111146553E+02  0.00000000000E+00 0.  1.
<mgrwt>
<rscale>  0 0.91062032E+02</rscale>
<asrwt>0</asrwt>
<pdfrwt beam="2">  1        3 0.33787783E-02 0.91062032E+02</pdfrwt>
<pdfrwt beam="1">  1       -3 0.14522062E-01 0.91062032E+02</pdfrwt>
<totfact> 0.33614206E+04</totfact>
</mgrwt>
</event>
<event>
 7    1  0.1312339E-009  0.9118267E+02  0.7818608E-02  0.1300013E+00
          3   -1    0    0  501    0  0.00000000000E+00  0.00000000000E+00  0.84227701075E+01  0.84233756466E+01  0.10100000000E+00 0. -1.
         -3   -1    0    0    0  501 -0.00000000000E+00 -0.00000000000E+00 -0.24677037242E+03  0.24677039309E+03  0.10100000000E+00 0.  1.
         23    2    1    2    0    0  0.00000000000E+00  0.00000000000E+00 -0.23834760232E+03  0.25519376874E+03  0.91182674196E+02 0.  0.
    9000005    2    3    3    0    0 -0.34593229587E+02 -0.28867476962E+02 -0.10140815195E+03  0.11103262340E+03  0.38219651320E+01 0.  0.
         22    1    3    3    0    0  0.34593229587E+02  0.28867476962E+02 -0.13693945036E+03  0.14416114534E+03  0.00000000000E+00 0. -1.
         22    1    4    4    0    0 -0.95572170102E+01 -0.59139613815E+01 -0.24079871437E+02  0.26573587349E+02  0.00000000000E+00 0. -1.
         22    1    4    4    0    0 -0.25036012577E+02 -0.22953515580E+02 -0.77328280516E+02  0.84459036052E+02  0.00000000000E+00 0. -1.
<mgrwt>
<rscale>  0 0.91182674E+02</rscale>
<asrwt>0</asrwt>
<pdfrwt beam="1">  1        3 0.12958591E-02 0.91182674E+02</pdfrwt>
<pdfrwt beam="2">  1       -3 0.37964715E-01 0.91182674E+02</pdfrwt>
<totfact> 0.25865732E+04</totfact>
</mgrwt>
</event>
<event>
 7    1  0.1312339E-009  0.9148171E+02  0.7818608E-02  0.1299303E+00
          3   -1    0    0  501    0  0.00000000000E+00  0.00000000000E+00  0.98810182210E+01  0.98815343993E+01  0.10100000000E+00 0. -1.
         -3   -1    0    0    0  501 -0.00000000000E+00 -0.00000000000E+00 -0.21173586755E+03  0.21173589164E+03  0.10100000000E+00 0.  1.
         23    2    1    2    0    0  0.00000000000E+00  0.00000000000E+00 -0.20185484933E+03  0.22161742604E+03  0.91481710337E+02 0.  0.
    9000005    2    3    3    0    0 -0.10586215594E+02  0.51192710353E+01 -0.20789641794E+03  0.20839715948E+03  0.83773857689E+01 0.  0.
         22    1    3    3    0    0  0.10586215594E+02 -0.51192710353E+01  0.60415686096E+01  0.13220266555E+02  0.00000000000E+00 0. -1.
         22    1    4    4    0    0 -0.24066097821E+01  0.40049687703E+01 -0.12579959170E+03  0.12588633292E+03  0.00000000000E+00 0.  1.
         22    1    4    4    0    0 -0.81796058116E+01  0.11143022650E+01 -0.82096826239E+02  0.82510826558E+02  0.00000000000E+00 0.  1.
<mgrwt>
<rscale>  0 0.91481710E+02</rscale>
<asrwt>0</asrwt>
<pdfrwt beam="1">  1        3 0.15201984E-02 0.91481710E+02</pdfrwt>
<pdfrwt beam="2">  1       -3 0.32574787E-01 0.91481710E+02</pdfrwt>
<totfact> 0.27169852E+04</totfact>
</mgrwt>
</event>
<event>
 7    1  0.1312339E-009  0.9528956E+02  0.7818608E-02  0.1290525E+00
         -3   -1    0    0    0  501 -0.00000000000E+00  0.00000000000E+00  0.17967941714E+02  0.17968225578E+02  0.10100000000E+00 0.  1.
          3   -1    0    0  501    0  0.00000000000E+00 -0.00000000000E+00 -0.12633622133E+03  0.12633626170E+03  0.10100000000E+00 0. -1.
         23    2    1    2    0    0 -0.35527136788E-14  0.00000000000E+00 -0.10836827961E+03  0.14430448728E+03  0.95289564078E+02 0.  0.
    9000005    2    3    3    0    0 -0.19466291663E+02 -0.11170078866E+02  0.80876278037E+01  0.25705644344E+02  0.95740928903E+01 0.  0.
         22    1    3    3    0    0  0.19466291663E+02  0.11170078866E+02 -0.11645590742E+03  0.11859884293E+03  0.00000000000E+00 0. -1.
         22    1    4    4    0    0 -0.26352256157E+01 -0.15876860437E+01 -0.21933630443E+01  0.37783597583E+01  0.00000000000E+00 0. -1.
         22    1    4    4    0    0 -0.16831066047E+02 -0.95823928218E+01  0.10280990848E+02  0.21927284586E+02  0.00000000000E+00 0. -1.
<mgrwt>
<rscale>  0 0.95289564E+02</rscale>
<asrwt>0</asrwt>
<pdfrwt beam="2">  1        3 0.19436366E-01 0.95289564E+02</pdfrwt>
<pdfrwt beam="1">  1       -3 0.27643237E-02 0.95289564E+02</pdfrwt>
<totfact> 0.28078926E+04</totfact>
</mgrwt>
</event>
<event>
 7    1  0.1312339E-009  0.9191565E+02  0.7818608E-02  0.1298278E+00
         -3   -1    0    0    0  501 -0.00000000000E+00  0.00000000000E+00  0.15867397608E+02  0.15867719050E+02  0.10100000000E+00 0.  1.
          3   -1    0    0  501    0  0.00000000000E+00 -0.00000000000E+00 -0.13310908438E+03  0.13310912270E+03  0.10100000000E+00 0. -1.
         23    2    1    2    0    0  0.00000000000E+00  0.00000000000E+00 -0.11724168678E+03  0.14897684175E+03  0.91915647527E+02 0.  0.
    9000005    2    3    3    0    0  0.43602991483E+02  0.14474727456E+02 -0.58564190012E+02  0.74453105750E+02  0.16619274634E+01 0.  0.
         22    1    3    3    0    0 -0.43602991483E+02 -0.14474727456E+02 -0.58677496765E+02  0.74523736003E+02  0.00000000000E+00 0.  1.
         22    1    4    4    0    0  0.28658135461E+02  0.86791047861E+01 -0.38146458734E+02  0.48495029662E+02  0.00000000000E+00 0.  1.
         22    1    4    4    0    0  0.14944856022E+02  0.57956226703E+01 -0.20417731277E+02  0.25958076088E+02  0.00000000000E+00 0.  1.
<mgrwt>
<rscale>  0 0.91915648E+02</rscale>
<asrwt>0</asrwt>
<pdfrwt beam="2">  1        3 0.20478348E-01 0.91915648E+02</pdfrwt>
<pdfrwt beam="1">  1       -3 0.24411659E-02 0.91915648E+02</pdfrwt>
<totfact> 0.30690134E+04</totfact>
</mgrwt>
</event>
<event>
 7    1  0.1312339E-009  0.9341854E+02  0.7818608E-02  0.1294778E+00
          3   -1    0    0  501    0  0.00000000000E+00  0.00000000000E+00  0.44791063846E+02  0.44791177719E+02  0.10100000000E+00 0. -1.
         -3   -1    0    0    0  501 -0.00000000000E+00 -0.00000000000E+00 -0.48709398708E+02  0.48709503421E+02  0.10100000000E+00 0.  1.
         23    2    1    2    0    0  0.71054273576E-14  0.88817841970E-15 -0.39183348624E+01  0.93500681139E+02  0.93418542193E+02 0.  0.
    9000005    2    3    3    0    0 -0.43079653622E+02 -0.53629620673E+01 -0.17444657285E+02  0.48030038779E+02  0.10860508229E+02 0.  0.
         22    1    3    3    0    0  0.43079653622E+02  0.53629620673E+01  0.13526322423E+02  0.45470642360E+02  0.00000000000E+00 0. -1.
         22    1    4    4    0    0 -0.39954340696E+02 -0.18164787022E+01 -0.15075260444E+02  0.42742395964E+02  0.00000000000E+00 0. -1.
         22    1    4    4    0    0 -0.31253129261E+01 -0.35464833651E+01 -0.23693968415E+01  0.52876428148E+01  0.00000000000E+00 0. -1.
<mgrwt>
<rscale>  0 0.93418542E+02</rscale>
<asrwt>0</asrwt>
<pdfrwt beam="1">  1        3 0.68909497E-02 0.93418542E+02</pdfrwt>
<pdfrwt beam="2">  1       -3 0.74937705E-02 0.93418542E+02</pdfrwt>
<totfact> 0.32902994E+04</totfact>
</mgrwt>
</event>
<event>
 7    1  0.1312339E-009  0.9115190E+02  0.7818608E-02  0.1300086E+00
          3   -1    0    0  501    0  0.00000000000E+00  0.00000000000E+00  0.13817117288E+02  0.13817486427E+02  0.10100000000E+00 0. -1.
         -3   -1    0    0    0  501 -0.00000000000E+00 -0.00000000000E+00 -0.15033050000E+03  0.15033053393E+03  0.10100000000E+00 0.  1.
         23    2    1    2    0    0 -0.35527136788E-14  0.00000000000E+00 -0.13651338272E+03  0.16414802036E+03  0.91151900296E+02 0.  0.
    9000005    2    3    3    0    0 -0.19780593503E+02  0.28919907788E+02 -0.11894439482E+03  0.12495232823E+03  0.15416949304E+02 0.  0.
         22    1    3    3    0    0  0.19780593503E+02 -0.28919907788E+02 -0.17568987900E+02  0.39195692131E+02  0.00000000000E+00 0. -1.
         22    1    4    4    0    0  0.75379882529E+00  0.10561592890E+02 -0.38128553517E+02  0.39571480265E+02  0.00000000000E+00 0.  1.
         22    1    4    4    0    0 -0.20534392329E+02  0.18358314898E+02 -0.80815841300E+02  0.85380847965E+02  0.00000000000E+00 0.  1.
<mgrwt>
<rscale>  0 0.91151900E+02</rscale>
<asrwt>0</asrwt>
<pdfrwt beam="1">  1        3 0.21257415E-02 0.91151900E+02</pdfrwt>
<pdfrwt beam="2">  1       -3 0.23127799E-01 0.91151900E+02</pdfrwt>
<totfact> 0.30486458E+04</totfact>
</mgrwt>
</event>
<event>
 7    1  0.1312339E-009  0.9501207E+02  0.7818608E-02  0.1291149E+00
          3   -1    0    0  501    0  0.00000000000E+00  0.00000000000E+00  0.21055791266E+02  0.21056033502E+02  0.10100000000E+00 0. -1.
         -3   -1    0    0    0  501 -0.00000000000E+00 -0.00000000000E+00 -0.10718214952E+03  0.10718219710E+03  0.10100000000E+00 0.  1.
         23    2    1    2    0    0  0.00000000000E+00 -0.71054273576E-14 -0.86126358250E+02  0.12823823061E+03  0.95012073988E+02 0.  0.
    9000005    2    3    3    0    0  0.10934694893E+02 -0.44357747165E+02 -0.58704035338E+02  0.74954451838E+02  0.92102551167E+01 0.  0.
         22    1    3    3    0    0 -0.10934694893E+02  0.44357747165E+02 -0.27422322912E+02  0.53283778768E+02  0.00000000000E+00 0. -1.
         22    1    4    4    0    0  0.50368571748E+01 -0.15897801806E+02 -0.28617154284E+02  0.33121768548E+02  0.00000000000E+00 0. -1.
         22    1    4    4    0    0  0.58978377185E+01 -0.28459945359E+02 -0.30086881054E+02  0.41832683289E+02  0.00000000000E+00 0. -1.
<mgrwt>
<rscale>  0 0.95012074E+02</rscale>
<asrwt>0</asrwt>
<pdfrwt beam="1">  1        3 0.32393749E-02 0.95012074E+02</pdfrwt>
<pdfrwt beam="2">  1       -3 0.16489583E-01 0.95012074E+02</pdfrwt>
<totfact> 0.29222275E+04</totfact>
</mgrwt>
</event>
<event>
 7    1  0.1312339E-009  0.9203540E+02  0.7818608E-02  0.1297996E+00
         -3   -1    0    0    0  501 -0.00000000000E+00  0.00000000000E+00  0.15106306125E+02  0.15106643762E+02  0.10100000000E+00 0.  1.
          3   -1    0    0  501    0  0.00000000000E+00 -0.00000000000E+00 -0.14017985180E+03  0.14017988818E+03  0.10100000000E+00 0. -1.
         23    2    1    2    0    0  0.00000000000E+00  0.35527136788E-14 -0.12507354567E+03  0.15528653194E+03  0.92035401755E+02 0.  0.
    9000005    2    3    3    0    0 -0.25746879858E+02 -0.25825233087E+02 -0.15542486519E+02  0.39844349854E+02  0.40198061732E+01 0.  0.
         22    1    3    3    0    0  0.25746879858E+02  0.25825233087E+02 -0.10953105915E+03  0.11544218209E+03  0.00000000000E+00 0. -1.
         22    1    4    4    0    0 -0.29461961349E+00  0.14184719418E+00 -0.14904275967E+00  0.35935370787E+00  0.00000000000E+00 0.  1.
         22    1    4    4    0    0 -0.25452260245E+02 -0.25967080281E+02 -0.15393443759E+02  0.39484996146E+02  0.00000000000E+00 0.  1.
<mgrwt>
<rscale>  0 0.92035402E+02</rscale>
<asrwt>0</asrwt>
<pdfrwt beam="2">  1        3 0.21566159E-01 0.92035402E+02</pdfrwt>
<pdfrwt beam="1">  1       -3 0.23240760E-02 0.92035402E+02</pdfrwt>
<totfact> 0.30208840E+04</totfact>
</mgrwt>
</event>
<event>
 7    1  0.1312339E-009  0.8696524E+02  0.7818608E-02  0.1310372E+00
          3   -1    0    0  501    0  0.00000000000E+00  0.00000000000E+00  0.79678112435E+01  0.79684513559E+01  0.10100000000E+00 0. -1.
         -3   -1    0    0    0  501 -0.00000000000E+00 -0.00000000000E+00 -0.23728689417E+03  0.23728691566E+03  0.10100000000E+00 0.  1.
         23    2    1    2    0    0  0.00000000000E+00  0.00000000000E+00 -0.22931908293E+03  0.24525536702E+03  0.86965241668E+02 0.  0.
    9000005    2    3    3    0    0 -0.38010554239E+02  0.18602976897E+02 -0.11710939619E+03  0.12533086252E+03  0.14224677158E+02 0.  0.
         22    1    3    3    0    0  0.38010554239E+02 -0.18602976897E+02 -0.11220968674E+03  0.11992450450E+03  0.00000000000E+00 0.  1.
         22    1    4    4    0    0 -0.22623688371E+02  0.37562749487E+01 -0.52971189000E+02  0.57722506365E+02  0.00000000000E+00 0.  1.
         22    1    4    4    0    0 -0.15386865868E+02  0.14846701948E+02 -0.64138207190E+02  0.67608356152E+02  0.00000000000E+00 0.  1.
<mgrwt>
<rscale>  0 0.86965242E+02</rscale>
<asrwt>0</asrwt>
<pdfrwt beam="1">  1        3 0.12258682E-02 0.86965242E+02</pdfrwt>
<pdfrwt beam="2">  1       -3 0.36505721E-01 0.86965242E+02</pdfrwt>
<totfact> 0.29867173E+04</totfact>
</mgrwt>
</event>
<event>
 7    1  0.1312339E-009  0.8136235E+02  0.7818608E-02  0.1325229E+00
         -3   -1    0    0    0  501 -0.00000000000E+00  0.00000000000E+00  0.30157620576E+02  0.30157789703E+02  0.10100000000E+00 0.  1.
          3   -1    0    0  501    0  0.00000000000E+00 -0.00000000000E+00 -0.54876577564E+02  0.54876670508E+02  0.10100000000E+00 0. -1.
         23    2    1    2    0    0 -0.88817841970E-15  0.00000000000E+00 -0.24718956988E+02  0.85034460212E+02  0.81362353634E+02 0.  0.
    9000005    2    3    3    0    0  0.70186646102E+01 -0.39646888868E+02 -0.16875728962E+02  0.44014298392E+02  0.55973909245E+01 0.  0.
         22    1    3    3    0    0 -0.70186646102E+01  0.39646888868E+02 -0.78432280259E+01  0.41020161819E+02  0.00000000000E+00 0.  1.
         22    1    4    4    0    0  0.40855252267E+01 -0.28605720096E+02 -0.95065837067E+01  0.30419629721E+02  0.00000000000E+00 0.  1.
         22    1    4    4    0    0  0.29331393835E+01 -0.11041168772E+02 -0.73691452552E+01  0.13594668672E+02  0.00000000000E+00 0.  1.
<mgrwt>
<rscale>  0 0.81362354E+02</rscale>
<asrwt>0</asrwt>
<pdfrwt beam="2">  1        3 0.84425706E-02 0.81362354E+02</pdfrwt>
<pdfrwt beam="1">  1       -3 0.46396541E-02 0.81362354E+02</pdfrwt>
<totfact> 0.48740745E+04</totfact>
</mgrwt>
</event>
<event>
 7    1  0.1415410E-009  0.9262139E+02  0.7818608E-02  0.1296625E+00
         -3   -1    0    0    0  501 -0.00000000000E+00  0.00000000000E+00  0.22304191171E+03  0.22304193458E+03  0.10100000000E+00 0.  1.
          3   -1    0    0  501    0  0.00000000000E+00 -0.00000000000E+00 -0.96153050508E+01  0.96158354926E+01  0.10100000000E+00 0. -1.
         23    2    1    2    0    0  0.00000000000E+00 -0.17763568394E-14  0.21342660666E+03  0.23265777008E+03  0.92621388158E+02 0.  0.
    9000005    2    3    3    0    0  0.24000340334E+02 -0.14936941077E+02  0.19769775459E+03  0.20030772630E+03  0.15480778413E+02 0.  0.
         22    1    3    3    0    0 -0.24000340334E+02  0.14936941077E+02  0.15728852078E+02  0.32350043780E+02  0.00000000000E+00 0. -1.
         22    1    4    4    0    0  0.19108162664E+02 -0.17420343483E+02  0.14152713369E+03  0.14386980162E+03  0.00000000000E+00 0.  1.
         22    1    4    4    0    0  0.48921776702E+01  0.24834024064E+01  0.56170620894E+02  0.56437924674E+02  0.00000000000E+00 0.  1.
<mgrwt>
<rscale>  0 0.92621388E+02</rscale>
<asrwt>0</asrwt>
<pdfrwt beam="2">  1        3 0.14793203E-02 0.92621388E+02</pdfrwt>
<pdfrwt beam="1">  1       -3 0.34314183E-01 0.92621388E+02</pdfrwt>
<totfact> 0.25773527E+04</totfact>
</mgrwt>
</event>
<event>
 7    1  0.1312339E-009  0.8773297E+02  0.7818608E-02  0.1308436E+00
          3   -1    0    0  501    0  0.00000000000E+00  0.00000000000E+00  0.12310392683E+02  0.12310807001E+02  0.10100000000E+00 0. -1.
         -3   -1    0    0    0  501 -0.00000000000E+00 -0.00000000000E+00 -0.15630944158E+03  0.15630947422E+03  0.10100000000E+00 0.  1.
         23    2    1    2    0    0  0.00000000000E+00  0.00000000000E+00 -0.14399904890E+03  0.16862028122E+03  0.87732965030E+02 0.  0.
    9000005    2    3    3    0    0  0.97452200158E+01 -0.28262340372E+02 -0.14640049392E+02  0.35851761037E+02  0.13314973782E+02 0.  0.
         22    1    3    3    0    0 -0.97452200158E+01  0.28262340372E+02 -0.12935899951E+03  0.13276852018E+03  0.00000000000E+00 0.  1.
         22    1    4    4    0    0 -0.10820657749E+01 -0.43782551217E+01 -0.73676075547E+01  0.86383809439E+01  0.00000000000E+00 0. -1.
         22    1    4    4    0    0  0.10827285791E+02 -0.23884085250E+02 -0.72724418371E+01  0.27213380093E+02  0.00000000000E+00 0. -1.
<mgrwt>
<rscale>  0 0.87732965E+02</rscale>
<asrwt>0</asrwt>
<pdfrwt beam="1">  1        3 0.18939411E-02 0.87732965E+02</pdfrwt>
<pdfrwt beam="2">  1       -3 0.24047639E-01 0.87732965E+02</pdfrwt>
<totfact> 0.33507086E+04</totfact>
</mgrwt>
</event>
<event>
 7    1  0.1312339E-009  0.9254009E+02  0.7818608E-02  0.1296815E+00
         -3   -1    0    0    0  501 -0.00000000000E+00  0.00000000000E+00  0.10587454327E+02  0.10587936065E+02  0.10100000000E+00 0.  1.
          3   -1    0    0  501    0  0.00000000000E+00 -0.00000000000E+00 -0.20220753459E+03  0.20220755981E+03  0.10100000000E+00 0. -1.
         23    2    1    2    0    0 -0.71054273576E-14 -0.17763568394E-14 -0.19162008026E+03  0.21279549588E+03  0.92540088104E+02 0.  0.
    9000005    2    3    3    0    0  0.38918662707E+02  0.14267506730E+02 -0.54168464546E+02  0.69229585167E+02  0.11844359666E+02 0.  0.
         22    1    3    3    0    0 -0.38918662707E+02 -0.14267506730E+02 -0.13745161572E+03  0.14356591071E+03  0.00000000000E+00 0. -1.
         22    1    4    4    0    0  0.25115221804E+02  0.96212820025E+01 -0.43625627121E+02  0.51249768539E+02  0.00000000000E+00 0. -1.
         22    1    4    4    0    0  0.13803440904E+02  0.46462247277E+01 -0.10542837425E+02  0.17979816628E+02  0.00000000000E+00 0. -1.
<mgrwt>
<rscale>  0 0.92540088E+02</rscale>
<asrwt>0</asrwt>
<pdfrwt beam="2">  1        3 0.31108888E-01 0.92540088E+02</pdfrwt>
<pdfrwt beam="1">  1       -3 0.16288783E-02 0.92540088E+02</pdfrwt>
<totfact> 0.26755580E+04</totfact>
</mgrwt>
</event>
<event>
 7    1  0.1312339E-009  0.9121835E+02  0.7818608E-02  0.1299928E+00
         -3   -1    0    0    0  501 -0.00000000000E+00  0.00000000000E+00  0.48323651677E+02  0.48323757226E+02  0.10100000000E+00 0.  1.
          3   -1    0    0  501    0  0.00000000000E+00 -0.00000000000E+00 -0.43046963002E+02  0.43047081489E+02  0.10100000000E+00 0. -1.
         23    2    1    2    0    0  0.00000000000E+00  0.00000000000E+00  0.52766886748E+01  0.91370838715E+02  0.91218346423E+02 0.  0.
    9000005    2    3    3    0    0  0.13800190344E+02 -0.34868744668E+02 -0.23243009690E+02  0.44257700387E+02  0.34974184485E+01 0.  0.
         22    1    3    3    0    0 -0.13800190344E+02  0.34868744668E+02  0.28519698365E+02  0.47113138328E+02  0.00000000000E+00 0.  1.
         22    1    4    4    0    0  0.76990116704E+01 -0.14807867124E+02 -0.10665808373E+02  0.19806745763E+02  0.00000000000E+00 0. -1.
         22    1    4    4    0    0  0.61011786736E+01 -0.20060877545E+02 -0.12577201317E+02  0.24450954624E+02  0.00000000000E+00 0. -1.
<mgrwt>
<rscale>  0 0.91218346E+02</rscale>
<asrwt>0</asrwt>
<pdfrwt beam="2">  1        3 0.66226269E-02 0.91218346E+02</pdfrwt>
<pdfrwt beam="1">  1       -3 0.74344252E-02 0.91218346E+02</pdfrwt>
<totfact> 0.35280007E+04</totfact>
</mgrwt>
</event>
<event>
 7    1  0.1312339E-009  0.9268849E+02  0.7818608E-02  0.1296469E+00
         -3   -1    0    0    0  501 -0.00000000000E+00  0.00000000000E+00  0.36617391330E+03  0.36617392723E+03  0.10100000000E+00 0.  1.
          3   -1    0    0  501    0  0.00000000000E+00 -0.00000000000E+00 -0.58650407141E+01  0.58659102940E+01  0.10100000000E+00 0. -1.
         23    2    1    2    0    0 -0.71054273576E-14  0.00000000000E+00  0.36030887258E+03  0.37203983752E+03  0.92688494648E+02 0.  0.
    9000005    2    3    3    0    0 -0.32012379543E+02 -0.22470550827E+02  0.27457988112E+03  0.27781044680E+03  0.15962930066E+02 0.  0.
         22    1    3    3    0    0  0.32012379543E+02  0.22470550827E+02  0.85728991466E+02  0.94229390724E+02  0.00000000000E+00 0. -1.
         22    1    4    4    0    0 -0.33956067269E+01 -0.43589346031E+01  0.14196548256E+02  0.15233923930E+02  0.00000000000E+00 0.  1.
         22    1    4    4    0    0 -0.28616772816E+02 -0.18111616223E+02  0.26038333286E+03  0.26257652287E+03  0.00000000000E+00 0.  1.
<mgrwt>
<rscale>  0 0.92688495E+02</rscale>
<asrwt>0</asrwt>
<pdfrwt beam="2">  1        3 0.90238216E-03 0.92688495E+02</pdfrwt>
<pdfrwt beam="1">  1       -3 0.56334501E-01 0.92688495E+02</pdfrwt>
<totfact> 0.20547754E+04</totfact>
</mgrwt>
</event>
<event>
 7    1  0.1432185E-009  0.9274884E+02  0.7818608E-02  0.1296328E+00
          3   -1    0    0  501    0  0.00000000000E+00  0.00000000000E+00  0.11618106984E+03  0.11618111374E+03  0.10100000000E+00 0. -1.
         -3   -1    0    0    0  501 -0.00000000000E+00 -0.00000000000E+00 -0.18510461074E+02  0.18510736619E+02  0.10100000000E+00 0.  1.
         23    2    1    2    0    0  0.00000000000E+00  0.00000000000E+00  0.97670608763E+02  0.13469185036E+03  0.92748836848E+02 0.  0.
    9000005    2    3    3    0    0 -0.41450749336E+02  0.32311568565E+01  0.76424556928E+02  0.88001383303E+02  0.13225942936E+02 0.  0.
         22    1    3    3    0    0  0.41450749336E+02 -0.32311568565E+01  0.21246051835E+02  0.46690467054E+02  0.00000000000E+00 0.  1.
         22    1    4    4    0    0 -0.24707384749E+02  0.15288623858E+01  0.31735720177E+02  0.40248580304E+02  0.00000000000E+00 0.  1.
         22    1    4    4    0    0 -0.16743364587E+02  0.17022944706E+01  0.44688836750E+02  0.47752802999E+02  0.00000000000E+00 0.  1.
<mgrwt>
<rscale>  0 0.92748837E+02</rscale>
<asrwt>0</asrwt>
<pdfrwt beam="1">  1        3 0.17874035E-01 0.92748837E+02</pdfrwt>
<pdfrwt beam="2">  1       -3 0.28477878E-02 0.92748837E+02</pdfrwt>
<totfact> 0.30804594E+04</totfact>
</mgrwt>
</event>
<event>
 7    1  0.1312339E-009  0.9084973E+02  0.7818608E-02  0.1300807E+00
         -3   -1    0    0    0  501 -0.00000000000E+00  0.00000000000E+00  0.50519106402E+01  0.50529201574E+01  0.10100000000E+00 0.  1.
          3   -1    0    0  501    0  0.00000000000E+00 -0.00000000000E+00 -0.40840130532E+03  0.40840131781E+03  0.10100000000E+00 0. -1.
         23    2    1    2    0    0  0.00000000000E+00 -0.35527136788E-14 -0.40334939468E+03  0.41345423797E+03  0.90849725942E+02 0.  0.
    9000005    2    3    3    0    0  0.41155530106E+02 -0.17232127704E+02 -0.22398882034E+03  0.22862745552E+03  0.10430622935E+02 0.  0.
         22    1    3    3    0    0 -0.41155530106E+02  0.17232127704E+02 -0.17936057434E+03  0.18482678245E+03  0.00000000000E+00 0. -1.
         22    1    4    4    0    0  0.18320415168E+01  0.91009898008E+00 -0.19262091881E+02  0.19370411454E+02  0.00000000000E+00 0. -1.
         22    1    4    4    0    0  0.39323488589E+02 -0.18142226684E+02 -0.20472672846E+03  0.20925704406E+03  0.00000000000E+00 0. -1.
<mgrwt>
<rscale>  0 0.90849726E+02</rscale>
<asrwt>0</asrwt>
<pdfrwt beam="2">  1        3 0.62831023E-01 0.90849726E+02</pdfrwt>
<pdfrwt beam="1">  1       -3 0.77729596E-03 0.90849726E+02</pdfrwt>
<totfact> 0.20410044E+04</totfact>
</mgrwt>
</event>
<event>
 7    1  0.1312339E-009  0.8435283E+02  0.7818608E-02  0.1317134E+00
         -3   -1    0    0    0  501 -0.00000000000E+00  0.00000000000E+00  0.33422765765E+02  0.33422918371E+02  0.10100000000E+00 0.  1.
          3   -1    0    0  501    0  0.00000000000E+00 -0.00000000000E+00 -0.53222382121E+02  0.53222477955E+02  0.10100000000E+00 0. -1.
         23    2    1    2    0    0  0.00000000000E+00  0.00000000000E+00 -0.19799616356E+02  0.86645396326E+02  0.84352829808E+02 0.  0.
    9000005    2    3    3    0    0  0.33693370393E+01 -0.25906135991E+02  0.22311961646E+02  0.37088708423E+02  0.13973845066E+02 0.  0.
         22    1    3    3    0    0 -0.33693370393E+01  0.25906135991E+02 -0.42111578002E+02  0.49556687903E+02  0.00000000000E+00 0. -1.
         22    1    4    4    0    0  0.27722619861E+01 -0.11494503829E+02  0.17215359917E+01  0.11948754787E+02  0.00000000000E+00 0.  1.
         22    1    4    4    0    0  0.59707505328E+00 -0.14411632162E+02  0.20590425654E+02  0.25139953636E+02  0.00000000000E+00 0.  1.
<mgrwt>
<rscale>  0 0.84352830E+02</rscale>
<asrwt>0</asrwt>
<pdfrwt beam="2">  1        3 0.81880779E-02 0.84352830E+02</pdfrwt>
<pdfrwt beam="1">  1       -3 0.51419831E-02 0.84352830E+02</pdfrwt>
<totfact> 0.44066225E+04</totfact>
</mgrwt>
</event>
<event>
 7    1  0.1312339E-009  0.9170453E+02  0.7818608E-02  0.1298776E+00
          3   -1    0    0  501    0  0.00000000000E+00  0.00000000000E+00  0.22323314739E+03  0.22323317024E+03  0.10100000000E+00 0. -1.
         -3   -1    0    0    0  501 -0.00000000000E+00 -0.00000000000E+00 -0.94177982040E+01  0.94183397694E+01  0.10100000000E+00 0.  1.
         23    2    1    2    0    0 -0.71054273576E-14  0.17763568394E-14  0.21381534919E+03  0.23265151001E+03  0.91704534028E+02 0.  0.
    9000005    2    3    3    0    0 -0.41954057036E+02  0.12305055679E+02  0.14192484058E+03  0.14850994760E+03  0.99341070204E+00 0.  0.
         22    1    3    3    0    0  0.41954057036E+02 -0.12305055679E+02  0.71890508604E+02  0.84141562408E+02  0.00000000000E+00 0.  1.
         22    1    4    4    0    0 -0.38765145039E+02  0.11484526877E+02  0.13040266052E+03  0.13652649815E+03  0.00000000000E+00 0. -1.
         22    1    4    4    0    0 -0.31889119974E+01  0.82052880198E+00  0.11522180067E+02  0.11983449450E+02  0.00000000000E+00 0. -1.
<mgrwt>
<rscale>  0 0.91704534E+02</rscale>
<asrwt>0</asrwt>
<pdfrwt beam="1">  1        3 0.34343607E-01 0.91704534E+02</pdfrwt>
<pdfrwt beam="2">  1       -3 0.14489354E-02 0.91704534E+02</pdfrwt>
<totfact> 0.26478646E+04</totfact>
</mgrwt>
</event>
<event>
 7    1  0.1312339E-009  0.9194492E+02  0.7818608E-02  0.1298209E+00
         -3   -1    0    0    0  501 -0.00000000000E+00  0.00000000000E+00  0.13894943457E+03  0.13894947127E+03  0.10100000000E+00 0.  1.
          3   -1    0    0  501    0  0.00000000000E+00 -0.00000000000E+00 -0.15210124957E+02  0.15210460289E+02  0.10100000000E+00 0. -1.
         23    2    1    2    0    0  0.00000000000E+00  0.71054273576E-14  0.12373930961E+03  0.15415993156E+03  0.91944916971E+02 0.  0.
    9000005    2    3    3    0    0  0.43469802394E+01  0.44823037738E+02  0.68537982198E+02  0.82919581358E+02  0.12255652554E+02 0.  0.
         22    1    3    3    0    0 -0.43469802394E+01 -0.44823037738E+02  0.55201327413E+02  0.71240350206E+02  0.00000000000E+00 0. -1.
         22    1    4    4    0    0  0.47262605178E+01  0.15132575759E+02  0.15711434047E+02  0.22319980900E+02  0.00000000000E+00 0.  1.
         22    1    4    4    0    0 -0.37928027835E+00  0.29690461980E+02  0.52826548151E+02  0.60599600458E+02  0.00000000000E+00 0.  1.
<mgrwt>
<rscale>  0 0.91944917E+02</rscale>
<asrwt>0</asrwt>
<pdfrwt beam="2">  1        3 0.23400480E-02 0.91944917E+02</pdfrwt>
<pdfrwt beam="1">  1       -3 0.21376864E-01 0.91944917E+02</pdfrwt>
<totfact> 0.30356654E+04</totfact>
</mgrwt>
</event>
<event>
 7    1  0.1312339E-009  0.9387872E+02  0.7818608E-02  0.1293722E+00
         -3   -1    0    0    0  501 -0.00000000000E+00  0.00000000000E+00  0.23760196462E+03  0.23760198609E+03  0.10100000000E+00 0.  1.
          3   -1    0    0  501    0  0.00000000000E+00 -0.00000000000E+00 -0.92727894946E+01  0.92733395285E+01  0.10100000000E+00 0. -1.
         23    2    1    2    0    0  0.35527136788E-14  0.35527136788E-14  0.22832917513E+03  0.24687532562E+03  0.93878720614E+02 0.  0.
    9000005    2    3    3    0    0 -0.19903171384E+02 -0.28763596689E+02  0.36034467281E+02  0.51425241474E+02  0.11072122780E+02 0.  0.
         22    1    3    3    0    0  0.19903171384E+02  0.28763596689E+02  0.19229470785E+03  0.19545008414E+03  0.00000000000E+00 0.  1.
         22    1    4    4    0    0 -0.21795040643E+01 -0.42291901451E+01  0.55523949192E+00  0.47900499103E+01  0.00000000000E+00 0. -1.
         22    1    4    4    0    0 -0.17723667320E+02 -0.24534406544E+02  0.35479227789E+02  0.46635191564E+02  0.00000000000E+00 0. -1.
<mgrwt>
<rscale>  0 0.93878721E+02</rscale>
<asrwt>0</asrwt>
<pdfrwt beam="2">  1        3 0.14266268E-02 0.93878721E+02</pdfrwt>
<pdfrwt beam="1">  1       -3 0.36554197E-01 0.93878721E+02</pdfrwt>
<totfact> 0.24250543E+04</totfact>
</mgrwt>
</event>
<event>
 7    1  0.1312339E-009  0.8988710E+02  0.7818608E-02  0.1303125E+00
         -3   -1    0    0    0  501 -0.00000000000E+00  0.00000000000E+00  0.10867794285E+03  0.10867798978E+03  0.10100000000E+00 0.  1.
          3   -1    0    0  501    0  0.00000000000E+00 -0.00000000000E+00 -0.18586130812E+02  0.18586405235E+02  0.10100000000E+00 0. -1.
         23    2    1    2    0    0  0.00000000000E+00  0.00000000000E+00  0.90091812035E+02  0.12726439501E+03  0.89887104986E+02 0.  0.
    9000005    2    3    3    0    0  0.85770098774E+01 -0.33856744570E+02  0.81705857190E+01  0.38208617143E+02  0.13164182528E+02 0.  0.
         22    1    3    3    0    0 -0.85770098774E+01  0.33856744570E+02  0.81921226316E+02  0.89055777872E+02  0.00000000000E+00 0.  1.
         22    1    4    4    0    0 -0.53442265043E+00 -0.14471447379E+01 -0.24603443701E+01  0.29039851723E+01  0.00000000000E+00 0.  1.
         22    1    4    4    0    0  0.91114325278E+01 -0.32409599832E+02  0.10630930089E+02  0.35304631970E+02  0.00000000000E+00 0.  1.
<mgrwt>
<rscale>  0 0.89887105E+02</rscale>
<asrwt>0</asrwt>
<pdfrwt beam="2">  1        3 0.28594294E-02 0.89887105E+02</pdfrwt>
<pdfrwt beam="1">  1       -3 0.16719709E-01 0.89887105E+02</pdfrwt>
<totfact> 0.34046790E+04</totfact>
</mgrwt>
</event>
<event>
 7    1  0.1312339E-009  0.9234104E+02  0.7818608E-02  0.1297280E+00
         -3   -1    0    0    0  501 -0.00000000000E+00  0.00000000000E+00  0.27721609290E+02  0.27721793279E+02  0.10100000000E+00 0.  1.
          3   -1    0    0  501    0  0.00000000000E+00 -0.00000000000E+00 -0.76896822919E+02  0.76896889248E+02  0.10100000000E+00 0. -1.
         23    2    1    2    0    0  0.00000000000E+00  0.00000000000E+00 -0.49175213629E+02  0.10461868253E+03  0.92341036913E+02 0.  0.
    9000005    2    3    3    0    0  0.41158020413E+02  0.10838126508E+02 -0.44733503217E+02  0.61826435310E+02  0.31581897633E+01 0.  0.
         22    1    3    3    0    0 -0.41158020413E+02 -0.10838126508E+02 -0.44417104121E+01  0.42792247217E+02  0.00000000000E+00 0.  1.
         22    1    4    4    0    0  0.36848741488E+02  0.10512539394E+02 -0.39384272231E+02  0.54949650890E+02  0.00000000000E+00 0.  1.
         22    1    4    4    0    0  0.43092789245E+01  0.32558711456E+00 -0.53492309858E+01  0.68767844199E+01  0.00000000000E+00 0.  1.
<mgrwt>
<rscale>  0 0.92341037E+02</rscale>
<asrwt>0</asrwt>
<pdfrwt beam="2">  1        3 0.11830300E-01 0.92341037E+02</pdfrwt>
<pdfrwt beam="1">  1       -3 0.42648822E-02 0.92341037E+02</pdfrwt>
<totfact> 0.33164680E+04</totfact>
</mgrwt>
</event>
<event>
 7    1  0.1312339E-009  0.9107207E+02  0.7818608E-02  0.1300276E+00
         -3   -1    0    0    0  501 -0.00000000000E+00  0.00000000000E+00  0.57095625286E+02  0.57095714618E+02  0.10100000000E+00 0.  1.
          3   -1    0    0  501    0  0.00000000000E+00 -0.00000000000E+00 -0.36316613653E+02  0.36316754098E+02  0.10100000000E+00 0. -1.
         23    2    1    2    0    0 -0.44408920985E-15  0.00000000000E+00  0.20779011633E+02  0.93412468716E+02  0.91072070292E+02 0.  0.
    9000005    2    3    3    0    0  0.27674688715E+01 -0.42761192604E+02 -0.79943955335E+00  0.45435307145E+02  0.15084745768E+02 0.  0.
         22    1    3    3    0    0 -0.27674688715E+01  0.42761192604E+02  0.21578451186E+02  0.47977161572E+02  0.00000000000E+00 0. -1.
         22    1    4    4    0    0  0.88853349501E+01 -0.29753375813E+02 -0.73539442219E+00  0.31060478979E+02  0.00000000000E+00 0.  1.
         22    1    4    4    0    0 -0.61178660787E+01 -0.13007816790E+02 -0.64045131154E-01  0.14374828166E+02  0.00000000000E+00 0.  1.
<mgrwt>
<rscale>  0 0.91072070E+02</rscale>
<asrwt>0</asrwt>
<pdfrwt beam="2">  1        3 0.55871890E-02 0.91072070E+02</pdfrwt>
<pdfrwt beam="1">  1       -3 0.87839600E-02 0.91072070E+02</pdfrwt>
<totfact> 0.35278824E+04</totfact>
</mgrwt>
</event>
<event>
 7    1  0.1312339E-009  0.8944121E+02  0.7818608E-02  0.1304211E+00
         -3   -1    0    0    0  501 -0.00000000000E+00  0.00000000000E+00  0.14830691631E+03  0.14830695070E+03  0.10100000000E+00 0. -1.
          3   -1    0    0  501    0  0.00000000000E+00 -0.00000000000E+00 -0.13484866470E+02  0.13485244703E+02  0.10100000000E+00 0.  1.
         23    2    1    2    0    0  0.00000000000E+00  0.00000000000E+00  0.13482204984E+03  0.16179219541E+03  0.89441206225E+02 0.  0.
    9000005    2    3    3    0    0  0.29413462076E+02  0.14405889266E+02  0.12094727461E+03  0.12622267496E+03  0.15206546052E+02 0.  0.
         22    1    3    3    0    0 -0.29413462076E+02 -0.14405889266E+02  0.13874775236E+02  0.35569520445E+02  0.00000000000E+00 0.  1.
         22    1    4    4    0    0  0.18657921795E+02  0.10012892312E+02  0.10048813425E+03  0.10269489366E+03  0.00000000000E+00 0. -1.
         22    1    4    4    0    0  0.10755540281E+02  0.43929969542E+01  0.20459140355E+02  0.23527781303E+02  0.00000000000E+00 0. -1.
<mgrwt>
<rscale>  0 0.89441206E+02</rscale>
<asrwt>0</asrwt>
<pdfrwt beam="2">  1        3 0.20746266E-02 0.89441206E+02</pdfrwt>
<pdfrwt beam="1">  1       -3 0.22816480E-01 0.89441206E+02</pdfrwt>
<totfact> 0.32230735E+04</totfact>
</mgrwt>
</event>
<event>
 7    1  0.1312339E-009  0.9442191E+02  0.7818608E-02  0.1292483E+00
          3   -1    0    0  501    0  0.00000000000E+00  0.00000000000E+00  0.70310391416E+02  0.70310463959E+02  0.10100000000E+00 0. -1.
         -3   -1    0    0    0  501 -0.00000000000E+00 -0.00000000000E+00 -0.31700326131E+02  0.31700487028E+02  0.10100000000E+00 0.  1.
         23    2    1    2    0    0  0.00000000000E+00  0.71054273576E-14  0.38610065285E+02  0.10201095099E+03  0.94421909428E+02 0.  0.
    9000005    2    3    3    0    0  0.89524857795E+01 -0.39213063686E+02  0.45536011269E+02  0.61196981650E+02  0.73301347514E+01 0.  0.
         22    1    3    3    0    0 -0.89524857795E+01  0.39213063686E+02 -0.69259459841E+01  0.40813969337E+02  0.00000000000E+00 0.  1.
         22    1    4    4    0    0  0.75229814511E+01 -0.38528791357E+02  0.43177562499E+02  0.58355504596E+02  0.00000000000E+00 0. -1.
         22    1    4    4    0    0  0.14295043284E+01 -0.68427232948E+00  0.23584487697E+01  0.28414770534E+01  0.00000000000E+00 0. -1.
<mgrwt>
<rscale>  0 0.94421909E+02</rscale>
<asrwt>0</asrwt>
<pdfrwt beam="1">  1        3 0.10817001E-01 0.94421909E+02</pdfrwt>
<pdfrwt beam="2">  1       -3 0.48769912E-02 0.94421909E+02</pdfrwt>
<totfact> 0.31377841E+04</totfact>
</mgrwt>
</event>
<event>
 7    1  0.1312339E-009  0.9009320E+02  0.7818608E-02  0.1302626E+00
         -3   -1    0    0    0  501 -0.00000000000E+00  0.00000000000E+00  0.23473913093E+02  0.23474130376E+02  0.10100000000E+00 0.  1.
          3   -1    0    0  501    0  0.00000000000E+00 -0.00000000000E+00 -0.86444094390E+02  0.86444153393E+02  0.10100000000E+00 0. -1.
         23    2    1    2    0    0  0.00000000000E+00  0.22204460493E-15 -0.62970181296E+02  0.10991828377E+03  0.90093203819E+02 0.  0.
    9000005    2    3    3    0    0 -0.42646901977E+02  0.11729985495E+01 -0.16241005467E+02  0.46643090783E+02  0.95746271682E+01 0.  0.
         22    1    3    3    0    0  0.42646901977E+02 -0.11729985495E+01 -0.46729175829E+02  0.63275192986E+02  0.00000000000E+00 0. -1.
         22    1    4    4    0    0 -0.10557182122E+02  0.44708623483E+01 -0.43697580123E+01  0.12269372012E+02  0.00000000000E+00 0.  1.
         22    1    4    4    0    0 -0.32089719855E+02 -0.32978637988E+01 -0.11871247455E+02  0.34373718770E+02  0.00000000000E+00 0.  1.
<mgrwt>
<rscale>  0 0.90093204E+02</rscale>
<asrwt>0</asrwt>
<pdfrwt beam="2">  1        3 0.13299113E-01 0.90093204E+02</pdfrwt>
<pdfrwt beam="1">  1       -3 0.36113925E-02 0.90093204E+02</pdfrwt>
<totfact> 0.35069806E+04</totfact>
</mgrwt>
</event>
<event>
 7    1  0.1312339E-009  0.8011701E+02  0.7818608E-02  0.1328720E+00
         -3   -1    0    0    0  501 -0.00000000000E+00  0.00000000000E+00  0.11092781139E+03  0.11092785737E+03  0.10100000000E+00 0.  1.
          3   -1    0    0  501    0  0.00000000000E+00 -0.00000000000E+00 -0.14465794808E+02  0.14466147394E+02  0.10100000000E+00 0. -1.
         23    2    1    2    0    0  0.00000000000E+00  0.00000000000E+00  0.96462016578E+02  0.12539400476E+03  0.80117013097E+02 0.  0.
    9000005    2    3    3    0    0 -0.21012017549E+02 -0.29244508334E+02  0.21554362697E+02  0.42280210724E+02  0.51263552730E+01 0.  0.
         22    1    3    3    0    0  0.21012017549E+02  0.29244508334E+02  0.74907653880E+02  0.83113794036E+02  0.00000000000E+00 0.  1.
         22    1    4    4    0    0 -0.75439334781E+00 -0.35562568496E+01  0.17128233965E+01  0.40186858662E+01  0.00000000000E+00 0.  1.
         22    1    4    4    0    0 -0.20257624202E+02 -0.25688251485E+02  0.19841539301E+02  0.38261524858E+02  0.00000000000E+00 0.  1.
<mgrwt>
<rscale>  0 0.80117013E+02</rscale>
<asrwt>0</asrwt>
<pdfrwt beam="2">  1        3 0.22255375E-02 0.80117013E+02</pdfrwt>
<pdfrwt beam="1">  1       -3 0.17065848E-01 0.80117013E+02</pdfrwt>
<totfact> 0.46566405E+04</totfact>
</mgrwt>
</event>
<event>
 7    1  0.1312339E-009  0.8628648E+02  0.7818608E-02  0.1312102E+00
         -3   -1    0    0    0  501 -0.00000000000E+00  0.00000000000E+00  0.11136270932E+03  0.11136275512E+03  0.10100000000E+00 0.  1.
          3   -1    0    0  501    0  0.00000000000E+00 -0.00000000000E+00 -0.16714001477E+02  0.16714306637E+02  0.10100000000E+00 0. -1.
         23    2    1    2    0    0  0.17763568394E-14  0.00000000000E+00  0.94648707840E+02  0.12807706176E+03  0.86286475488E+02 0.  0.
    9000005    2    3    3    0    0 -0.12926123554E+02  0.38729452839E+02  0.67396882952E+02  0.78988191866E+02  0.54533875000E+01 0.  0.
         22    1    3    3    0    0  0.12926123554E+02 -0.38729452839E+02  0.27251824888E+02  0.49088869890E+02  0.00000000000E+00 0.  1.
         22    1    4    4    0    0 -0.18330418167E+01  0.57534871069E+01  0.66419705189E+01  0.89765488115E+01  0.00000000000E+00 0.  1.
         22    1    4    4    0    0 -0.11093081738E+02  0.32975965732E+02  0.60754912433E+02  0.70011643054E+02  0.00000000000E+00 0.  1.
<mgrwt>
<rscale>  0 0.86286475E+02</rscale>
<asrwt>0</asrwt>
<pdfrwt beam="2">  1        3 0.25714119E-02 0.86286475E+02</pdfrwt>
<pdfrwt beam="1">  1       -3 0.17132751E-01 0.86286475E+02</pdfrwt>
<totfact> 0.37954837E+04</totfact>
</mgrwt>
</event>
<event>
 7    1  0.1538607E-009  0.9156936E+02  0.7818608E-02  0.1299095E+00
          3   -1    0    0  501    0  0.00000000000E+00  0.00000000000E+00  0.10991875151E+03  0.10991879792E+03  0.10100000000E+00 0. -1.
         -3   -1    0    0    0  501 -0.00000000000E+00 -0.00000000000E+00 -0.19070602341E+02  0.19070869793E+02  0.10100000000E+00 0.  1.
         23    2    1    2    0    0  0.00000000000E+00  0.35527136788E-14  0.90848149173E+02  0.12898966771E+03  0.91569362603E+02 0.  0.
    9000005    2    3    3    0    0 -0.18785174546E+02  0.31875074961E+02  0.11571199307E+02  0.41504023364E+02  0.14825252627E+02 0.  0.
         22    1    3    3    0    0  0.18785174546E+02 -0.31875074961E+02  0.79276949866E+02  0.87485644345E+02  0.00000000000E+00 0. -1.
         22    1    4    4    0    0 -0.69280353506E+01  0.97426325170E+01  0.11216710193E+02  0.16393021373E+02  0.00000000000E+00 0.  1.
         22    1    4    4    0    0 -0.11857139195E+02  0.22132442444E+02  0.35448911403E+00  0.25111001991E+02  0.00000000000E+00 0.  1.
<mgrwt>
<rscale>  0 0.91569363E+02</rscale>
<asrwt>0</asrwt>
<pdfrwt beam="1">  1        3 0.16910601E-01 0.91569363E+02</pdfrwt>
<pdfrwt beam="2">  1       -3 0.29339630E-02 0.91569363E+02</pdfrwt>
<totfact> 0.32263478E+04</totfact>
</mgrwt>
</event>
<event>
 7    1  0.1312339E-009  0.7817594E+02  0.7818608E-02  0.1334309E+00
          3   -1    0    0  501    0  0.00000000000E+00  0.00000000000E+00  0.23707002824E+03  0.23707004975E+03  0.10100000000E+00 0. -1.
         -3   -1    0    0    0  501 -0.00000000000E+00 -0.00000000000E+00 -0.64443844804E+01  0.64451758961E+01  0.10100000000E+00 0.  1.
         23    2    1    2    0    0  0.00000000000E+00  0.00000000000E+00  0.23062564376E+03  0.24351522565E+03  0.78175939804E+02 0.  0.
    9000005    2    3    3    0    0 -0.18236489147E+02  0.31670182320E+02  0.15323664881E+03  0.15793119370E+03  0.11190237819E+02 0.  0.
         22    1    3    3    0    0  0.18236489147E+02 -0.31670182320E+02  0.77388994950E+02  0.85584031944E+02  0.00000000000E+00 0. -1.
         22    1    4    4    0    0 -0.24974333487E+01  0.60340768774E+01  0.13543251761E+02  0.15035522118E+02  0.00000000000E+00 0. -1.
         22    1    4    4    0    0 -0.15739055798E+02  0.25636105442E+02  0.13969339705E+03  0.14289567159E+03  0.00000000000E+00 0. -1.
<mgrwt>
<rscale>  0 0.78175940E+02</rscale>
<asrwt>0</asrwt>
<pdfrwt beam="1">  1        3 0.36472376E-01 0.78175940E+02</pdfrwt>
<pdfrwt beam="2">  1       -3 0.99150627E-03 0.78175940E+02</pdfrwt>
<totfact> 0.39769271E+04</totfact>
</mgrwt>
</event>
<event>
 7    1  0.1312339E-009  0.8857924E+02  0.7818608E-02  0.1306329E+00
         -3   -1    0    0    0  501 -0.00000000000E+00  0.00000000000E+00  0.11884085185E+04  0.11884085228E+04  0.10100000000E+00 0.  1.
          3   -1    0    0  501    0  0.00000000000E+00 -0.00000000000E+00 -0.16490365135E+01  0.16521266364E+01  0.10100000000E+00 0. -1.
         23    2    1    2    0    0 -0.88817841970E-15  0.00000000000E+00  0.11867594820E+04  0.11900606495E+04  0.88579237031E+02 0.  0.
    9000005    2    3    3    0    0  0.58021919152E+01 -0.21252960098E+02  0.11078094235E+04  0.11080944035E+04  0.12088607306E+02 0.  0.
         22    1    3    3    0    0 -0.58021919152E+01  0.21252960098E+02  0.78950058463E+02  0.81966245951E+02  0.00000000000E+00 0. -1.
         22    1    4    4    0    0  0.51245896990E+01 -0.41942606767E+01  0.50455865236E+03  0.50460210752E+03  0.00000000000E+00 0. -1.
         22    1    4    4    0    0  0.67760221624E+00 -0.17058699422E+02  0.60325077118E+03  0.60349229598E+03  0.00000000000E+00 0. -1.
<mgrwt>
<rscale>  0 0.88579237E+02</rscale>
<asrwt>0</asrwt>
<pdfrwt beam="2">  1        3 0.25393631E-03 0.88579237E+02</pdfrwt>
<pdfrwt beam="1">  1       -3 0.18283206E+00 0.88579237E+02</pdfrwt>
<totfact> 0.88862939E+03</totfact>
</mgrwt>
</event>
<event>
 7    1  0.1312339E-009  0.9021635E+02  0.7818608E-02  0.1302329E+00
         -3   -1    0    0    0  501 -0.00000000000E+00  0.00000000000E+00  0.14599583936E+03  0.14599587430E+03  0.10100000000E+00 0.  1.
          3   -1    0    0  501    0  0.00000000000E+00 -0.00000000000E+00 -0.13936802766E+02  0.13937168734E+02  0.10100000000E+00 0. -1.
         23    2    1    2    0    0  0.00000000000E+00 -0.17763568394E-14  0.13205903660E+03  0.15993304303E+03  0.90216346117E+02 0.  0.
    9000005    2    3    3    0    0  0.54455603883E+01  0.13685346323E+02  0.14106638241E+03  0.14266819115E+03  0.15412517225E+02 0.  0.
         22    1    3    3    0    0 -0.54455603883E+01 -0.13685346323E+02 -0.90073458148E+01  0.17264851883E+02  0.00000000000E+00 0. -1.
         22    1    4    4    0    0  0.81447295006E+01  0.97665089225E+00  0.62251156034E+02  0.62789305564E+02  0.00000000000E+00 0.  1.
         22    1    4    4    0    0 -0.26991691124E+01  0.12708695431E+02  0.78815226376E+02  0.79878885584E+02  0.00000000000E+00 0.  1.
<mgrwt>
<rscale>  0 0.90216346E+02</rscale>
<asrwt>0</asrwt>
<pdfrwt beam="2">  1        3 0.21441543E-02 0.90216346E+02</pdfrwt>
<pdfrwt beam="1">  1       -3 0.22460929E-01 0.90216346E+02</pdfrwt>
<totfact> 0.31602136E+04</totfact>
</mgrwt>
</event>
<event>
 7    1  0.1312339E-009  0.9043980E+02  0.7818608E-02  0.1301790E+00
          3   -1    0    0  501    0  0.00000000000E+00  0.00000000000E+00  0.51027323584E+02  0.51027423540E+02  0.10100000000E+00 0. -1.
         -3   -1    0    0    0  501 -0.00000000000E+00 -0.00000000000E+00 -0.40073219498E+02  0.40073346777E+02  0.10100000000E+00 0.  1.
         23    2    1    2    0    0  0.00000000000E+00  0.00000000000E+00  0.10954104087E+02  0.91100770317E+02  0.90439802941E+02 0.  0.
    9000005    2    3    3    0    0 -0.21803625343E+02  0.33077580588E+02 -0.14349453029E+02  0.44092319818E+02  0.12988512194E+02 0.  0.
         22    1    3    3    0    0  0.21803625343E+02 -0.33077580588E+02  0.25303557116E+02  0.47008450500E+02  0.00000000000E+00 0. -1.
         22    1    4    4    0    0 -0.20030784132E+02  0.32143540026E+02 -0.98003495886E+01  0.39121430577E+02  0.00000000000E+00 0.  1.
         22    1    4    4    0    0 -0.17728412113E+01  0.93404056241E+00 -0.45491034406E+01  0.49708892409E+01  0.00000000000E+00 0.  1.
<mgrwt>
<rscale>  0 0.90439803E+02</rscale>
<asrwt>0</asrwt>
<pdfrwt beam="1">  1        3 0.78503749E-02 0.90439803E+02</pdfrwt>
<pdfrwt beam="2">  1       -3 0.61651282E-02 0.90439803E+02</pdfrwt>
<totfact> 0.36133904E+04</totfact>
</mgrwt>
</event>
<event>
 7    1  0.1312339E-009  0.9136340E+02  0.7818608E-02  0.1299583E+00
         -3   -1    0    0    0  501 -0.00000000000E+00  0.00000000000E+00  0.75822462527E+01  0.75829189127E+01  0.10100000000E+00 0.  1.
          3   -1    0    0  501    0  0.00000000000E+00 -0.00000000000E+00 -0.27521131160E+03  0.27521133013E+03  0.10100000000E+00 0. -1.
         23    2    1    2    0    0  0.00000000000E+00  0.00000000000E+00 -0.26762906535E+03  0.28279424904E+03  0.91363398988E+02 0.  0.
    9000005    2    3    3    0    0  0.21123961549E+02  0.16624466753E+02 -0.24716393838E+03  0.24900939936E+03  0.13895103065E+02 0.  0.
         22    1    3    3    0    0 -0.21123961549E+02 -0.16624466753E+02 -0.20465126968E+02  0.33784849684E+02  0.00000000000E+00 0.  1.
         22    1    4    4    0    0  0.43393441477E+01  0.30662991789E+01 -0.11271355970E+03  0.11283872845E+03  0.00000000000E+00 0.  1.
         22    1    4    4    0    0  0.16784617401E+02  0.13558167574E+02 -0.13445037868E+03  0.13617067091E+03  0.00000000000E+00 0.  1.
<mgrwt>
<rscale>  0 0.91363399E+02</rscale>
<asrwt>0</asrwt>
<pdfrwt beam="2">  1        3 0.42340247E-01 0.91363399E+02</pdfrwt>
<pdfrwt beam="1">  1       -3 0.11665528E-02 0.91363399E+02</pdfrwt>
<totfact> 0.24577009E+04</totfact>
</mgrwt>
</event>
<event>
 7    1  0.1312339E-009  0.9221826E+02  0.7818608E-02  0.1297567E+00
          3   -1    0    0  501    0  0.00000000000E+00  0.00000000000E+00  0.42511388642E+02  0.42511508621E+02  0.10100000000E+00 0. -1.
         -3   -1    0    0    0  501 -0.00000000000E+00 -0.00000000000E+00 -0.50011103070E+02  0.50011205057E+02  0.10100000000E+00 0.  1.
         23    2    1    2    0    0  0.00000000000E+00  0.00000000000E+00 -0.74997144279E+01  0.92522713678E+02  0.92218256489E+02 0.  0.
    9000005    2    3    3    0    0 -0.32162312327E+02 -0.12395939764E+02  0.25927862254E+02  0.44507335520E+02  0.10980674714E+02 0.  0.
         22    1    3    3    0    0  0.32162312327E+02  0.12395939764E+02 -0.33427576682E+02  0.48015378158E+02  0.00000000000E+00 0.  1.
         22    1    4    4    0    0 -0.11823095320E+00 -0.18115841614E+01  0.36317653286E+01  0.40602383100E+01  0.00000000000E+00 0.  1.
         22    1    4    4    0    0 -0.32044081374E+02 -0.10584355602E+02  0.22296096926E+02  0.40447097210E+02  0.00000000000E+00 0.  1.
<mgrwt>
<rscale>  0 0.92218256E+02</rscale>
<asrwt>0</asrwt>
<pdfrwt beam="1">  1        3 0.65402307E-02 0.92218256E+02</pdfrwt>
<pdfrwt beam="2">  1       -3 0.76940329E-02 0.92218256E+02</pdfrwt>
<totfact> 0.34159641E+04</totfact>
</mgrwt>
</event>
<event>
 7    1  0.1312339E-009  0.9024374E+02  0.7818608E-02  0.1302263E+00
         -3   -1    0    0    0  501 -0.00000000000E+00  0.00000000000E+00  0.12943367046E+02  0.12943761102E+02  0.10100000000E+00 0.  1.
          3   -1    0    0  501    0  0.00000000000E+00 -0.00000000000E+00 -0.15729654721E+03  0.15729657964E+03  0.10100000000E+00 0. -1.
         23    2    1    2    0    0  0.00000000000E+00  0.00000000000E+00 -0.14435318017E+03  0.17024034074E+03  0.90243742118E+02 0.  0.
    9000005    2    3    3    0    0 -0.10443696993E+02 -0.21581797577E+02 -0.14396542989E+03  0.14626128439E+03  0.95641786530E+01 0.  0.
         22    1    3    3    0    0  0.10443696993E+02  0.21581797577E+02 -0.38775028059E+00  0.23979056358E+02  0.00000000000E+00 0.  1.
         22    1    4    4    0    0 -0.46116451272E+01 -0.16185501713E+02 -0.76486585627E+02  0.78316253213E+02  0.00000000000E+00 0. -1.
         22    1    4    4    0    0 -0.58320518659E+01 -0.53962958648E+01 -0.67478844262E+02  0.67945031172E+02  0.00000000000E+00 0. -1.
<mgrwt>
<rscale>  0 0.90243742E+02</rscale>
<asrwt>0</asrwt>
<pdfrwt beam="2">  1        3 0.24199500E-01 0.90243742E+02</pdfrwt>
<pdfrwt beam="1">  1       -3 0.19913202E-02 0.90243742E+02</pdfrwt>
<totfact> 0.30960557E+04</totfact>
</mgrwt>
</event>
<event>
 7    1  0.1312339E-009  0.9174863E+02  0.7818608E-02  0.1298672E+00
          3   -1    0    0  501    0  0.00000000000E+00  0.00000000000E+00  0.27746022375E+02  0.27746206203E+02  0.10100000000E+00 0. -1.
         -3   -1    0    0    0  501 -0.00000000000E+00 -0.00000000000E+00 -0.75846531336E+02  0.75846598584E+02  0.10100000000E+00 0.  1.
         23    2    1    2    0    0 -0.35527136788E-14 -0.17763568394E-14 -0.48100508961E+02  0.10359280479E+03  0.91748625283E+02 0.  0.
    9000005    2    3    3    0    0 -0.31800906661E+02 -0.15657717241E+02 -0.55601043566E+02  0.67361329617E+02  0.13769927684E+02 0.  0.
         22    1    3    3    0    0  0.31800906661E+02  0.15657717241E+02  0.75005346049E+01  0.36231475170E+02  0.00000000000E+00 0. -1.
         22    1    4    4    0    0 -0.27755033045E+02 -0.17262223884E+02 -0.42883189480E+02  0.53919330232E+02  0.00000000000E+00 0.  1.
         22    1    4    4    0    0 -0.40458736153E+01  0.16045066428E+01 -0.12717854086E+02  0.13441999384E+02  0.00000000000E+00 0.  1.
<mgrwt>
<rscale>  0 0.91748625E+02</rscale>
<asrwt>0</asrwt>
<pdfrwt beam="1">  1        3 0.42686382E-02 0.91748625E+02</pdfrwt>
<pdfrwt beam="2">  1       -3 0.11668716E-01 0.91748625E+02</pdfrwt>
<totfact> 0.33826900E+04</totfact>
</mgrwt>
</event>
<event>
 7    1  0.1312339E-009  0.9125460E+02  0.7818608E-02  0.1299842E+00
          3   -1    0    0  501    0  0.00000000000E+00  0.00000000000E+00  0.64533900652E+01  0.64541803766E+01  0.10100000000E+00 0. -1.
         -3   -1    0    0    0  501 -0.00000000000E+00 -0.00000000000E+00 -0.32257742785E+03  0.32257744366E+03  0.10100000000E+00 0.  1.
         23    2    1    2    0    0  0.00000000000E+00  0.00000000000E+00 -0.31612403778E+03  0.32903162403E+03  0.91254601811E+02 0.  0.
    9000005    2    3    3    0    0 -0.16162785666E+02 -0.40791561414E+02 -0.11957095631E+03  0.12764070826E+03  0.83516278478E+01 0.  0.
         22    1    3    3    0    0  0.16162785666E+02  0.40791561414E+02 -0.19655308147E+03  0.20139091578E+03  0.00000000000E+00 0.  1.
         22    1    4    4    0    0 -0.94620880657E+00 -0.82502754676E+01 -0.16178470399E+02  0.18185303430E+02  0.00000000000E+00 0. -1.
         22    1    4    4    0    0 -0.15216576859E+02 -0.32541285946E+02 -0.10339248591E+03  0.10945540483E+03  0.00000000000E+00 0. -1.
<mgrwt>
<rscale>  0 0.91254602E+02</rscale>
<asrwt>0</asrwt>
<pdfrwt beam="1">  1        3 0.99289150E-03 0.91254602E+02</pdfrwt>
<pdfrwt beam="2">  1       -3 0.49627346E-01 0.91254602E+02</pdfrwt>
<totfact> 0.22887670E+04</totfact>
</mgrwt>
</event>
<event>
 7    1  0.1312339E-009  0.9054804E+02  0.7818608E-02  0.1301530E+00
         -3   -1    0    0    0  501 -0.00000000000E+00  0.00000000000E+00  0.67719715019E+01  0.67727246381E+01  0.10100000000E+00 0.  1.
          3   -1    0    0  501    0  0.00000000000E+00 -0.00000000000E+00 -0.30266192700E+03  0.30266194385E+03  0.10100000000E+00 0. -1.
         23    2    1    2    0    0  0.44408920985E-15  0.00000000000E+00 -0.29588995550E+03  0.30943466849E+03  0.90548044148E+02 0.  0.
    9000005    2    3    3    0    0 -0.37301665417E+01  0.28968156563E+02 -0.26497461003E+03  0.26690436373E+03  0.13165378233E+02 0.  0.
         22    1    3    3    0    0  0.37301665417E+01 -0.28968156563E+02 -0.30915345472E+02  0.42530304758E+02  0.00000000000E+00 0.  1.
         22    1    4    4    0    0 -0.25817373053E+01  0.28811258613E+02 -0.26319965922E+03  0.26478446820E+03  0.00000000000E+00 0.  1.
         22    1    4    4    0    0 -0.11484292364E+01  0.15689795075E+00 -0.17749508114E+01  0.21198955306E+01  0.00000000000E+00 0.  1.
<mgrwt>
<rscale>  0 0.90548044E+02</rscale>
<asrwt>0</asrwt>
<pdfrwt beam="2">  1        3 0.46563422E-01 0.90548044E+02</pdfrwt>
<pdfrwt beam="1">  1       -3 0.10419012E-02 0.90548044E+02</pdfrwt>
<totfact> 0.24113817E+04</totfact>
</mgrwt>
</event>
<event>
 7    1  0.1312339E-009  0.9141492E+02  0.7818608E-02  0.1299461E+00
         -3   -1    0    0    0  501 -0.00000000000E+00  0.00000000000E+00  0.10433794538E+03  0.10433799427E+03  0.10100000000E+00 0.  1.
          3   -1    0    0  501    0  0.00000000000E+00 -0.00000000000E+00 -0.20022947715E+02  0.20023202446E+02  0.10100000000E+00 0. -1.
         23    2    1    2    0    0  0.00000000000E+00  0.00000000000E+00  0.84314997667E+02  0.12436119671E+03  0.91414924470E+02 0.  0.
    9000005    2    3    3    0    0  0.13047954125E+02 -0.86249883283E+01  0.10011236972E+03  0.10213066603E+03  0.12788543350E+02 0.  0.
         22    1    3    3    0    0 -0.13047954125E+02  0.86249883283E+01 -0.15797372058E+02  0.22230530683E+02  0.00000000000E+00 0. -1.
         22    1    4    4    0    0  0.14625293757E+02 -0.10226558848E+02  0.85115064709E+02  0.86965832163E+02  0.00000000000E+00 0. -1.
         22    1    4    4    0    0 -0.15773396320E+01  0.16015705195E+01  0.14997305015E+02  0.15164833866E+02  0.00000000000E+00 0. -1.
<mgrwt>
<rscale>  0 0.91414924E+02</rscale>
<asrwt>0</asrwt>
<pdfrwt beam="2">  1        3 0.30804769E-02 0.91414924E+02</pdfrwt>
<pdfrwt beam="1">  1       -3 0.16052015E-01 0.91414924E+02</pdfrwt>
<totfact> 0.32719446E+04</totfact>
</mgrwt>
</event>
<event>
 7    1  0.1312339E-009  0.9455143E+02  0.7818608E-02  0.1292190E+00
         -3   -1    0    0    0  501 -0.00000000000E+00  0.00000000000E+00  0.49613996555E+01  0.49624275856E+01  0.10100000000E+00 0.  1.
          3   -1    0    0  501    0  0.00000000000E+00 -0.00000000000E+00 -0.45042862171E+03  0.45042863303E+03  0.10100000000E+00 0. -1.
         23    2    1    2    0    0  0.00000000000E+00  0.00000000000E+00 -0.44546722205E+03  0.45539106062E+03  0.94551426044E+02 0.  0.
    9000005    2    3    3    0    0  0.15738980115E+02  0.33225730545E+02 -0.36530088884E+03  0.36719635757E+03  0.60630815555E+01 0.  0.
         22    1    3    3    0    0 -0.15738980115E+02 -0.33225730545E+02 -0.80166333206E+02  0.88194703044E+02  0.00000000000E+00 0.  1.
         22    1    4    4    0    0  0.13387959885E+01  0.31344778307E+01 -0.20058939824E+02  0.20346458975E+02  0.00000000000E+00 0.  1.
         22    1    4    4    0    0  0.14400184126E+02  0.30091252714E+02 -0.34524194902E+03  0.34684989860E+03  0.00000000000E+00 0.  1.
<mgrwt>
<rscale>  0 0.94551426E+02</rscale>
<asrwt>0</asrwt>
<pdfrwt beam="2">  1        3 0.69296759E-01 0.94551426E+02</pdfrwt>
<pdfrwt beam="1">  1       -3 0.76337255E-03 0.94551426E+02</pdfrwt>
<totfact> 0.17277423E+04</totfact>
</mgrwt>
</event>
<event>
 7    1  0.1391614E-009  0.9232035E+02  0.7818608E-02  0.1297328E+00
          3   -1    0    0  501    0  0.00000000000E+00  0.00000000000E+00  0.11413458111E+03  0.11413462580E+03  0.10100000000E+00 0. -1.
         -3   -1    0    0    0  501 -0.00000000000E+00 -0.00000000000E+00 -0.18668668496E+02  0.18668941706E+02  0.10100000000E+00 0.  1.
         23    2    1    2    0    0  0.88817841970E-15  0.00000000000E+00  0.95465912613E+02  0.13280356750E+03  0.92320350252E+02 0.  0.
    9000005    2    3    3    0    0 -0.62532977205E+01  0.39523072132E+02  0.19787223506E+02  0.47197253787E+02  0.15325455551E+02 0.  0.
         22    1    3    3    0    0  0.62532977205E+01 -0.39523072132E+02  0.75678689107E+02  0.85606313716E+02  0.00000000000E+00 0. -1.
         22    1    4    4    0    0  0.10963853782E+01  0.30793075501E+02  0.10728112215E+02  0.32626798057E+02  0.00000000000E+00 0. -1.
         22    1    4    4    0    0 -0.73496830987E+01  0.87299966309E+01  0.90591112907E+01  0.14570455731E+02  0.00000000000E+00 0. -1.
<mgrwt>
<rscale>  0 0.92320350E+02</rscale>
<asrwt>0</asrwt>
<pdfrwt beam="1">  1        3 0.17559191E-01 0.92320350E+02</pdfrwt>
<pdfrwt beam="2">  1       -3 0.28721273E-02 0.92320350E+02</pdfrwt>
<totfact> 0.31313286E+04</totfact>
</mgrwt>
</event>
<event>
 7    1  0.1611392E-009  0.9107860E+02  0.7818608E-02  0.1300261E+00
         -3   -1    0    0    0  501 -0.00000000000E+00  0.00000000000E+00  0.50200187828E+02  0.50200289431E+02  0.10100000000E+00 0. -1.
          3   -1    0    0  501    0  0.00000000000E+00 -0.00000000000E+00 -0.41310951031E+02  0.41311074497E+02  0.10100000000E+00 0.  1.
         23    2    1    2    0    0 -0.17763568394E-14  0.17763568394E-14  0.88892367970E+01  0.91511363928E+02  0.91078599008E+02 0.  0.
    9000005    2    3    3    0    0  0.15457001503E+02 -0.11405966611E+02 -0.36144607133E+02  0.42551563389E+02  0.11627035403E+02 0.  0.
         22    1    3    3    0    0 -0.15457001503E+02  0.11405966611E+02  0.45033843930E+02  0.48959800540E+02  0.00000000000E+00 0. -1.
         22    1    4    4    0    0 -0.39102334504E+00 -0.35920093198E+01 -0.20601820599E+01  0.41593004616E+01  0.00000000000E+00 0.  1.
         22    1    4    4    0    0  0.15848024848E+02 -0.78139572911E+01 -0.34084425073E+02  0.38392262927E+02  0.00000000000E+00 0.  1.
<mgrwt>
<rscale>  0 0.91078599E+02</rscale>
<asrwt>0</asrwt>
<pdfrwt beam="2">  1        3 0.63555483E-02 0.91078599E+02</pdfrwt>
<pdfrwt beam="1">  1       -3 0.77231231E-02 0.91078599E+02</pdfrwt>
<totfact> 0.35417430E+04</totfact>
</mgrwt>
</event>
<event>
 7    1  0.1312339E-009  0.9040265E+02  0.7818608E-02  0.1301880E+00
          3   -1    0    0  501    0  0.00000000000E+00  0.00000000000E+00  0.45791118743E+02  0.45791230129E+02  0.10100000000E+00 0. -1.
         -3   -1    0    0    0  501 -0.00000000000E+00 -0.00000000000E+00 -0.44618903298E+02  0.44619017610E+02  0.10100000000E+00 0.  1.
         23    2    1    2    0    0  0.00000000000E+00  0.00000000000E+00  0.11722154453E+01  0.90410247740E+02  0.90402648232E+02 0.  0.
    9000005    2    3    3    0    0  0.24118101023E+02  0.97744620604E+01  0.36977393348E+02  0.46147016157E+02  0.92193587544E+01 0.  0.
         22    1    3    3    0    0 -0.24118101023E+02 -0.97744620604E+01 -0.35805177902E+02  0.44263231583E+02  0.00000000000E+00 0.  1.
         22    1    4    4    0    0  0.10024789149E+02  0.11947789042E+01  0.20381960795E+02  0.22745290061E+02  0.00000000000E+00 0.  1.
         22    1    4    4    0    0  0.14093311874E+02  0.85796831562E+01  0.16595432552E+02  0.23401726095E+02  0.00000000000E+00 0.  1.
<mgrwt>
<rscale>  0 0.90402648E+02</rscale>
<asrwt>0</asrwt>
<pdfrwt beam="1">  1        3 0.70448049E-02 0.90402648E+02</pdfrwt>
<pdfrwt beam="2">  1       -3 0.68644640E-02 0.90402648E+02</pdfrwt>
<totfact> 0.36228466E+04</totfact>
</mgrwt>
</event>
<event>
 7    1  0.1312339E-009  0.9795494E+02  0.7818608E-02  0.1284656E+00
          3   -1    0    0  501    0  0.00000000000E+00  0.00000000000E+00  0.20094123084E+03  0.20094125622E+03  0.10100000000E+00 0. -1.
         -3   -1    0    0    0  501 -0.00000000000E+00 -0.00000000000E+00 -0.11937541679E+02  0.11937968937E+02  0.10100000000E+00 0.  1.
         23    2    1    2    0    0 -0.88817841970E-15  0.00000000000E+00  0.18900368916E+03  0.21287922516E+03  0.97954938559E+02 0.  0.
    9000005    2    3    3    0    0 -0.69851558601E+01 -0.30566891022E+02  0.16917578275E+02  0.37959938661E+02  0.13100582405E+02 0.  0.
         22    1    3    3    0    0  0.69851558601E+01  0.30566891022E+02  0.17208611089E+03  0.17491928650E+03  0.00000000000E+00 0. -1.
         22    1    4    4    0    0  0.31851286529E+01 -0.36385412611E+01  0.60303660493E+00  0.48731591592E+01  0.00000000000E+00 0.  1.
         22    1    4    4    0    0 -0.10170284513E+02 -0.26928349761E+02  0.16314541670E+02  0.33086779502E+02  0.00000000000E+00 0.  1.
<mgrwt>
<rscale>  0 0.97954939E+02</rscale>
<asrwt>0</asrwt>
<pdfrwt beam="1">  1        3 0.30914069E-01 0.97954939E+02</pdfrwt>
<pdfrwt beam="2">  1       -3 0.18365798E-02 0.97954939E+02</pdfrwt>
<totfact> 0.22928000E+04</totfact>
</mgrwt>
</event>
<event>
 7    1  0.1312339E-009  0.9059068E+02  0.7818608E-02  0.1301428E+00
         -3   -1    0    0    0  501 -0.00000000000E+00  0.00000000000E+00  0.72456279375E+01  0.72463318450E+01  0.10100000000E+00 0.  1.
          3   -1    0    0  501    0  0.00000000000E+00 -0.00000000000E+00 -0.28314495297E+03  0.28314497098E+03  0.10100000000E+00 0. -1.
         23    2    1    2    0    0 -0.71054273576E-14  0.00000000000E+00 -0.27589932503E+03  0.29039130283E+03  0.90590679460E+02 0.  0.
    9000005    2    3    3    0    0 -0.42595422201E+02  0.11317109502E+02 -0.15572276465E+03  0.16238797231E+03  0.13335184991E+02 0.  0.
         22    1    3    3    0    0  0.42595422201E+02 -0.11317109502E+02 -0.12017656037E+03  0.12800333052E+03  0.00000000000E+00 0.  1.
         22    1    4    4    0    0 -0.38362229862E+02  0.13331981029E+02 -0.12852243148E+03  0.13478656384E+03  0.00000000000E+00 0.  1.
         22    1    4    4    0    0 -0.42331923396E+01 -0.20148715264E+01 -0.27200333179E+02  0.27601408473E+02  0.00000000000E+00 0.  1.
<mgrwt>
<rscale>  0 0.90590679E+02</rscale>
<asrwt>0</asrwt>
<pdfrwt beam="2">  1        3 0.43560809E-01 0.90590679E+02</pdfrwt>
<pdfrwt beam="1">  1       -3 0.11147677E-02 0.90590679E+02</pdfrwt>
<totfact> 0.24833646E+04</totfact>
</mgrwt>
</event>
<event>
 7    1  0.1470722E-009  0.8923784E+02  0.7818608E-02  0.1304708E+00
         -3   -1    0    0    0  501 -0.00000000000E+00  0.00000000000E+00  0.99819316315E+02  0.99819367412E+02  0.10100000000E+00 0.  1.
          3   -1    0    0  501    0  0.00000000000E+00 -0.00000000000E+00 -0.19944333355E+02  0.19944589090E+02  0.10100000000E+00 0. -1.
         23    2    1    2    0    0  0.00000000000E+00 -0.35527136788E-14  0.79874982960E+02  0.11976395650E+03  0.89237841604E+02 0.  0.
    9000005    2    3    3    0    0  0.38150805988E+02  0.20324540517E+02  0.40375284471E+02  0.61208024903E+02  0.15738099362E+02 0.  0.
         22    1    3    3    0    0 -0.38150805988E+02 -0.20324540517E+02  0.39499698489E+02  0.58555931600E+02  0.00000000000E+00 0.  1.
         22    1    4    4    0    0  0.19751969733E+02  0.11628452515E+02  0.10875978564E+02  0.25370221244E+02  0.00000000000E+00 0. -1.
         22    1    4    4    0    0  0.18398836255E+02  0.86960880026E+01  0.29499305907E+02  0.35837803659E+02  0.00000000000E+00 0. -1.
<mgrwt>
<rscale>  0 0.89237842E+02</rscale>
<asrwt>0</asrwt>
<pdfrwt beam="2">  1        3 0.30683825E-02 0.89237842E+02</pdfrwt>
<pdfrwt beam="1">  1       -3 0.15356842E-01 0.89237842E+02</pdfrwt>
<totfact> 0.35258460E+04</totfact>
</mgrwt>
</event>
<event>
 7    1  0.1312339E-009  0.8587270E+02  0.7818608E-02  0.1313166E+00
         -3   -1    0    0    0  501 -0.00000000000E+00  0.00000000000E+00  0.21133937398E+01  0.21158057802E+01  0.10100000000E+00 0.  1.
          3   -1    0    0  501    0  0.00000000000E+00 -0.00000000000E+00 -0.87180810924E+03  0.87180811509E+03  0.10100000000E+00 0. -1.
         23    2    1    2    0    0  0.00000000000E+00  0.00000000000E+00 -0.86969471550E+03  0.87392392087E+03  0.85872704051E+02 0.  0.
    9000005    2    3    3    0    0 -0.33060991620E+02  0.50215957211E+01 -0.70395844430E+03  0.70484773337E+03  0.11601307531E+02 0.  0.
         22    1    3    3    0    0  0.33060991620E+02 -0.50215957211E+01 -0.16573627120E+03  0.16907618750E+03  0.00000000000E+00 0.  1.
         22    1    4    4    0    0 -0.13672262156E+01 -0.78269394731E+00 -0.11341017182E+03  0.11342111351E+03  0.00000000000E+00 0. -1.
         22    1    4    4    0    0 -0.31693765404E+02  0.58042896684E+01 -0.59054827248E+03  0.59142661986E+03  0.00000000000E+00 0. -1.
<mgrwt>
<rscale>  0 0.85872704E+02</rscale>
<asrwt>0</asrwt>
<pdfrwt beam="2">  1        3 0.13412422E+00 0.85872704E+02</pdfrwt>
<pdfrwt beam="1">  1       -3 0.32532419E-03 0.85872704E+02</pdfrwt>
<totfact> 0.13409899E+04</totfact>
</mgrwt>
</event>
<event>
 7    1  0.1312339E-009  0.9277413E+02  0.7818608E-02  0.1296269E+00
         -3   -1    0    0    0  501 -0.00000000000E+00  0.00000000000E+00  0.12814802457E+02  0.12815200467E+02  0.10100000000E+00 0.  1.
          3   -1    0    0  501    0  0.00000000000E+00 -0.00000000000E+00 -0.16790903529E+03  0.16790906567E+03  0.10100000000E+00 0. -1.
         23    2    1    2    0    0  0.00000000000E+00  0.00000000000E+00 -0.15509423283E+03  0.18072426613E+03  0.92774130616E+02 0.  0.
    9000005    2    3    3    0    0  0.31383429503E+02 -0.26823258681E+02 -0.42724718107E+02  0.61010796994E+02  0.13874759778E+02 0.  0.
         22    1    3    3    0    0 -0.31383429503E+02  0.26823258681E+02 -0.11236951473E+03  0.11971346914E+03  0.00000000000E+00 0. -1.
         22    1    4    4    0    0  0.25144990567E+02 -0.19421974767E+02 -0.23607966303E+02  0.39583073749E+02  0.00000000000E+00 0. -1.
         22    1    4    4    0    0  0.62384389367E+01 -0.74012839142E+01 -0.19116751804E+02  0.21427723246E+02  0.00000000000E+00 0. -1.
<mgrwt>
<rscale>  0 0.92774131E+02</rscale>
<asrwt>0</asrwt>
<pdfrwt beam="2">  1        3 0.25832191E-01 0.92774131E+02</pdfrwt>
<pdfrwt beam="1">  1       -3 0.19715411E-02 0.92774131E+02</pdfrwt>
<totfact> 0.28169756E+04</totfact>
</mgrwt>
</event>
<event>
 7    1  0.1312339E-009  0.9135554E+02  0.7818608E-02  0.1299602E+00
          3   -1    0    0  501    0  0.00000000000E+00  0.00000000000E+00  0.53548197691E+02  0.53548292941E+02  0.10100000000E+00 0. -1.
         -3   -1    0    0    0  501 -0.00000000000E+00 -0.00000000000E+00 -0.38963931644E+02  0.38964062547E+02  0.10100000000E+00 0.  1.
         23    2    1    2    0    0  0.00000000000E+00 -0.17763568394E-14  0.14584266046E+02  0.92512355488E+02  0.91355542261E+02 0.  0.
    9000005    2    3    3    0    0  0.22097285878E+02 -0.10483398734E+02  0.46343695529E+02  0.52426783854E+02  0.16241483405E+01 0.  0.
         22    1    3    3    0    0 -0.22097285878E+02  0.10483398734E+02 -0.31759429482E+02  0.40085571634E+02  0.00000000000E+00 0.  1.
         22    1    4    4    0    0  0.64260587899E+01 -0.37601268208E+01  0.13281564567E+02  0.15226054729E+02  0.00000000000E+00 0.  1.
         22    1    4    4    0    0  0.15671227088E+02 -0.67232719134E+01  0.33062130962E+02  0.37200729125E+02  0.00000000000E+00 0.  1.
<mgrwt>
<rscale>  0 0.91355542E+02</rscale>
<asrwt>0</asrwt>
<pdfrwt beam="1">  1        3 0.82382016E-02 0.91355542E+02</pdfrwt>
<pdfrwt beam="2">  1       -3 0.59944684E-02 0.91355542E+02</pdfrwt>
<totfact> 0.35048630E+04</totfact>
</mgrwt>
</event>
<event>
 7    1  0.1312339E-009  0.8717031E+02  0.7818608E-02  0.1309853E+00
         -3   -1    0    0    0  501 -0.00000000000E+00  0.00000000000E+00  0.47395813461E+02  0.47395921076E+02  0.10100000000E+00 0.  1.
          3   -1    0    0  501    0  0.00000000000E+00 -0.00000000000E+00 -0.40080659296E+02  0.40080786552E+02  0.10100000000E+00 0. -1.
         23    2    1    2    0    0  0.00000000000E+00  0.00000000000E+00  0.73151541649E+01  0.87476707627E+02  0.87170309721E+02 0.  0.
    9000005    2    3    3    0    0 -0.41391733408E+02  0.85957272830E+01 -0.53828780050E+01  0.43335999171E+02  0.78658328579E+01 0.  0.
         22    1    3    3    0    0  0.41391733408E+02 -0.85957272830E+01  0.12698032170E+02  0.44140708456E+02  0.00000000000E+00 0.  1.
         22    1    4    4    0    0 -0.39616155982E+02  0.96313934867E+01 -0.42555808160E+01  0.40991627479E+02  0.00000000000E+00 0. -1.
         22    1    4    4    0    0 -0.17755774253E+01 -0.10356662037E+01 -0.11272971889E+01  0.23443716921E+01  0.00000000000E+00 0. -1.
<mgrwt>
<rscale>  0 0.87170310E+02</rscale>
<asrwt>0</asrwt>
<pdfrwt beam="2">  1        3 0.61662734E-02 0.87170310E+02</pdfrwt>
<pdfrwt beam="1">  1       -3 0.72916817E-02 0.87170310E+02</pdfrwt>
<totfact> 0.40248533E+04</totfact>
</mgrwt>
</event>
<event>
 7    1  0.1312339E-009  0.8925440E+02  0.7818608E-02  0.1304667E+00
          3   -1    0    0  501    0  0.00000000000E+00  0.00000000000E+00  0.18802662257E+03  0.18802664970E+03  0.10100000000E+00 0. -1.
         -3   -1    0    0    0  501 -0.00000000000E+00 -0.00000000000E+00 -0.10591780248E+02  0.10592261790E+02  0.10100000000E+00 0.  1.
         23    2    1    2    0    0 -0.88817841970E-15  0.00000000000E+00  0.17743484233E+03  0.19861891149E+03  0.89254404542E+02 0.  0.
    9000005    2    3    3    0    0  0.40786430864E+01  0.19574424232E+02  0.17691976746E+03  0.17861744366E+03  0.14275631174E+02 0.  0.
         22    1    3    3    0    0 -0.40786430864E+01 -0.19574424232E+02  0.51507486352E+00  0.20001467835E+02  0.00000000000E+00 0.  1.
         22    1    4    4    0    0 -0.26826168146E+01  0.11585841160E+02  0.56178592079E+02  0.57423534865E+02  0.00000000000E+00 0. -1.
         22    1    4    4    0    0  0.67612599010E+01  0.79885830725E+01  0.12074117538E+03  0.12119390879E+03  0.00000000000E+00 0. -1.
<mgrwt>
<rscale>  0 0.89254405E+02</rscale>
<asrwt>0</asrwt>
<pdfrwt beam="1">  1        3 0.28927210E-01 0.89254405E+02</pdfrwt>
<pdfrwt beam="2">  1       -3 0.16295439E-02 0.89254405E+02</pdfrwt>
<totfact> 0.30256447E+04</totfact>
</mgrwt>
</event>
<event>
 7    1  0.1312339E-009  0.9088909E+02  0.7818608E-02  0.1300713E+00
         -3   -1    0    0    0  501 -0.00000000000E+00  0.00000000000E+00  0.29627715800E+02  0.29627887952E+02  0.10100000000E+00 0.  1.
          3   -1    0    0  501    0  0.00000000000E+00 -0.00000000000E+00 -0.69704820809E+02  0.69704893982E+02  0.10100000000E+00 0. -1.
         23    2    1    2    0    0  0.00000000000E+00  0.00000000000E+00 -0.40077105009E+02  0.99332781934E+02  0.90889092970E+02 0.  0.
    9000005    2    3    3    0    0 -0.35714320040E+02  0.84776409330E+01 -0.49158679797E+02  0.61519318031E+02  0.45461676049E+01 0.  0.
         22    1    3    3    0    0  0.35714320040E+02 -0.84776409330E+01  0.90815747881E+01  0.37813463903E+02  0.00000000000E+00 0.  1.
         22    1    4    4    0    0 -0.29565879873E+02  0.59680079661E+01 -0.37766995643E+02  0.48333263201E+02  0.00000000000E+00 0.  1.
         22    1    4    4    0    0 -0.61484401670E+01  0.25096329670E+01 -0.11391684154E+02  0.13186054830E+02  0.00000000000E+00 0.  1.
<mgrwt>
<rscale>  0 0.90889093E+02</rscale>
<asrwt>0</asrwt>
<pdfrwt beam="2">  1        3 0.10723837E-01 0.90889093E+02</pdfrwt>
<pdfrwt beam="1">  1       -3 0.45581290E-02 0.90889093E+02</pdfrwt>
<totfact> 0.35020522E+04</totfact>
</mgrwt>
</event>
<event>
 7    1  0.1312339E-009  0.9173795E+02  0.7818608E-02  0.1298697E+00
         -3   -1    0    0    0  501 -0.00000000000E+00  0.00000000000E+00  0.79024877274E+02  0.79024941817E+02  0.10100000000E+00 0.  1.
          3   -1    0    0  501    0  0.00000000000E+00 -0.00000000000E+00 -0.26623887744E+02  0.26624079319E+02  0.10100000000E+00 0. -1.
         23    2    1    2    0    0  0.00000000000E+00  0.22204460493E-15  0.52400989530E+02  0.10564902114E+03  0.91737952687E+02 0.  0.
    9000005    2    3    3    0    0 -0.40555219279E+02  0.15525650681E+01  0.49634059714E+01  0.43219375911E+02  0.14005098581E+02 0.  0.
         22    1    3    3    0    0  0.40555219279E+02 -0.15525650681E+01  0.47437583559E+02  0.62429645225E+02  0.00000000000E+00 0.  1.
         22    1    4    4    0    0 -0.36212383295E+02 -0.28577825690E+01  0.20619345335E+01  0.36383446774E+02  0.00000000000E+00 0.  1.
         22    1    4    4    0    0 -0.43428359831E+01  0.44103476371E+01  0.29014714379E+01  0.68359291367E+01  0.00000000000E+00 0.  1.
<mgrwt>
<rscale>  0 0.91737953E+02</rscale>
<asrwt>0</asrwt>
<pdfrwt beam="2">  1        3 0.40960024E-02 0.91737953E+02</pdfrwt>
<pdfrwt beam="1">  1       -3 0.12157693E-01 0.91737953E+02</pdfrwt>
<totfact> 0.33690753E+04</totfact>
</mgrwt>
</event>
<event>
 7    1  0.1312339E-009  0.9291451E+02  0.7818608E-02  0.1295943E+00
          3   -1    0    0  501    0  0.00000000000E+00  0.00000000000E+00  0.85266282301E+02  0.85266342119E+02  0.10100000000E+00 0. -1.
         -3   -1    0    0    0  501 -0.00000000000E+00 -0.00000000000E+00 -0.25312024375E+02  0.25312225879E+02  0.10100000000E+00 0.  1.
         23    2    1    2    0    0  0.00000000000E+00  0.00000000000E+00  0.59954257925E+02  0.11057856800E+03  0.92914512630E+02 0.  0.
    9000005    2    3    3    0    0  0.21965649144E+02 -0.23462009540E+02 -0.98357412887E+01  0.33743682534E+02  0.29897609140E+01 0.  0.
         22    1    3    3    0    0 -0.21965649144E+02  0.23462009540E+02  0.69789999214E+02  0.76834885464E+02  0.00000000000E+00 0. -1.
         22    1    4    4    0    0  0.13017901200E+02 -0.11750778699E+02 -0.55795322030E+01  0.18403198941E+02  0.00000000000E+00 0. -1.
         22    1    4    4    0    0  0.89477479444E+01 -0.11711230841E+02 -0.42562090857E+01  0.15340483593E+02  0.00000000000E+00 0. -1.
<mgrwt>
<rscale>  0 0.92914513E+02</rscale>
<asrwt>0</asrwt>
<pdfrwt beam="1">  1        3 0.13117910E-01 0.92914513E+02</pdfrwt>
<pdfrwt beam="2">  1       -3 0.38941777E-02 0.92914513E+02</pdfrwt>
<totfact> 0.32203225E+04</totfact>
</mgrwt>
</event>
<event>
 7    1  0.1312339E-009  0.9594540E+02  0.7818608E-02  0.1289061E+00
          3   -1    0    0  501    0  0.00000000000E+00  0.00000000000E+00  0.15958548589E+02  0.15958868195E+02  0.10100000000E+00 0. -1.
         -3   -1    0    0    0  501 -0.00000000000E+00 -0.00000000000E+00 -0.14420806637E+03  0.14420810174E+03  0.10100000000E+00 0.  1.
         23    2    1    2    0    0  0.00000000000E+00  0.17763568394E-14 -0.12824951779E+03  0.16016696994E+03  0.95945398258E+02 0.  0.
    9000005    2    3    3    0    0  0.24730985245E+02  0.15677057348E+02 -0.12681542155E+03  0.13085061972E+03  0.13503398775E+02 0.  0.
         22    1    3    3    0    0 -0.24730985245E+02 -0.15677057348E+02 -0.14340962330E+01  0.29316350221E+02  0.00000000000E+00 0. -1.
         22    1    4    4    0    0  0.87652256285E+01  0.13245414710E+02 -0.55396433070E+02  0.57628421703E+02  0.00000000000E+00 0. -1.
         22    1    4    4    0    0  0.15965759616E+02  0.24316426380E+01 -0.71418988483E+02  0.73222198014E+02  0.00000000000E+00 0. -1.
<mgrwt>
<rscale>  0 0.95945398E+02</rscale>
<asrwt>0</asrwt>
<pdfrwt beam="1">  1        3 0.24551887E-02 0.95945398E+02</pdfrwt>
<pdfrwt beam="2">  1       -3 0.22185883E-01 0.95945398E+02</pdfrwt>
<totfact> 0.26725709E+04</totfact>
</mgrwt>
</event>
<event>
 7    1  0.1312339E-009  0.8830532E+02  0.7818608E-02  0.1307008E+00
         -3   -1    0    0    0  501 -0.00000000000E+00  0.00000000000E+00  0.95245937379E+01  0.95251292313E+01  0.10100000000E+00 0.  1.
          3   -1    0    0  501    0  0.00000000000E+00 -0.00000000000E+00 -0.20466984977E+03  0.20466987469E+03  0.10100000000E+00 0. -1.
         23    2    1    2    0    0  0.88817841970E-15  0.00000000000E+00 -0.19514525603E+03  0.21419500392E+03  0.88305315543E+02 0.  0.
    9000005    2    3    3    0    0 -0.40557558357E+01 -0.33194437797E+02 -0.34780340333E+02  0.50380395162E+02  0.14498009756E+02 0.  0.
         22    1    3    3    0    0  0.40557558357E+01  0.33194437797E+02 -0.16036491569E+03  0.16381460876E+03  0.00000000000E+00 0. -1.
         22    1    4    4    0    0 -0.15123943072E+01 -0.27736741552E+02 -0.34580753867E+02  0.44355864398E+02  0.00000000000E+00 0.  1.
         22    1    4    4    0    0 -0.25433615285E+01 -0.54576962455E+01 -0.19958646629E+00  0.60245307643E+01  0.00000000000E+00 0.  1.
<mgrwt>
<rscale>  0 0.88305316E+02</rscale>
<asrwt>0</asrwt>
<pdfrwt beam="2">  1        3 0.31487709E-01 0.88305316E+02</pdfrwt>
<pdfrwt beam="1">  1       -3 0.14653654E-02 0.88305316E+02</pdfrwt>
<totfact> 0.30275404E+04</totfact>
</mgrwt>
</event>
<event>
 7    1  0.1312339E-009  0.9126686E+02  0.7818608E-02  0.1299812E+00
         -3   -1    0    0    0  501 -0.00000000000E+00  0.00000000000E+00  0.33850253828E+02  0.33850404506E+02  0.10100000000E+00 0.  1.
          3   -1    0    0  501    0  0.00000000000E+00 -0.00000000000E+00 -0.61517964066E+02  0.61518046977E+02  0.10100000000E+00 0. -1.
         23    2    1    2    0    0  0.00000000000E+00  0.55511151231E-16 -0.27667710238E+02  0.95368451483E+02  0.91266857886E+02 0.  0.
    9000005    2    3    3    0    0 -0.15209256343E+02 -0.81009997122E-01  0.30414956256E+02  0.35327430604E+02  0.95723428616E+01 0.  0.
         22    1    3    3    0    0  0.15209256343E+02  0.81009997122E-01 -0.58082666494E+02  0.60041020879E+02  0.00000000000E+00 0. -1.
         22    1    4    4    0    0 -0.13229860170E+02 -0.31225824033E+01  0.27487126119E+02  0.30664667343E+02  0.00000000000E+00 0. -1.
         22    1    4    4    0    0 -0.19793961729E+01  0.30415724062E+01  0.29278301375E+01  0.46627632607E+01  0.00000000000E+00 0. -1.
<mgrwt>
<rscale>  0 0.91266858E+02</rscale>
<asrwt>0</asrwt>
<pdfrwt beam="2">  1        3 0.94643201E-02 0.91266858E+02</pdfrwt>
<pdfrwt beam="1">  1       -3 0.52077493E-02 0.91266858E+02</pdfrwt>
<totfact> 0.34924227E+04</totfact>
</mgrwt>
</event>
<event>
 7    1  0.1312339E-009  0.9130696E+02  0.7818608E-02  0.1299717E+00
         -3   -1    0    0    0  501 -0.00000000000E+00  0.00000000000E+00  0.26372068710E+02  0.26372262115E+02  0.10100000000E+00 0.  1.
          3   -1    0    0  501    0  0.00000000000E+00 -0.00000000000E+00 -0.79031594463E+02  0.79031659000E+02  0.10100000000E+00 0. -1.
         23    2    1    2    0    0  0.00000000000E+00  0.00000000000E+00 -0.52659525753E+02  0.10540392112E+03  0.91306959943E+02 0.  0.
    9000005    2    3    3    0    0 -0.11195459116E+02 -0.41477018460E+01 -0.77157915539E+02  0.78151162768E+02  0.34232405983E+01 0.  0.
         22    1    3    3    0    0  0.11195459116E+02  0.41477018460E+01  0.24498389786E+02  0.27252758347E+02  0.00000000000E+00 0.  1.
         22    1    4    4    0    0 -0.83448577363E+01 -0.40803668454E+01 -0.65177171567E+02  0.65835778553E+02  0.00000000000E+00 0. -1.
         22    1    4    4    0    0 -0.28506013793E+01 -0.67335000628E-01 -0.11980743972E+02  0.12315384214E+02  0.00000000000E+00 0. -1.
<mgrwt>
<rscale>  0 0.91306960E+02</rscale>
<asrwt>0</asrwt>
<pdfrwt beam="2">  1        3 0.12158727E-01 0.91306960E+02</pdfrwt>
<pdfrwt beam="1">  1       -3 0.40572612E-02 0.91306960E+02</pdfrwt>
<totfact> 0.34142089E+04</totfact>
</mgrwt>
</event>
<event>
 7    1  0.1312339E-009  0.9157450E+02  0.7818608E-02  0.1299083E+00
          3   -1    0    0  501    0  0.00000000000E+00  0.00000000000E+00  0.60490307398E+02  0.60490391717E+02  0.10100000000E+00 0.  1.
         -3   -1    0    0    0  501 -0.00000000000E+00 -0.00000000000E+00 -0.34657804602E+02  0.34657951769E+02  0.10100000000E+00 0. -1.
         23    2    1    2    0    0  0.00000000000E+00  0.00000000000E+00  0.25832502796E+02  0.95148343486E+02  0.91574500094E+02 0.  0.
    9000005    2    3    3    0    0  0.11512554839E+02  0.20947879601E+02 -0.26774631065E+02  0.37365447125E+02  0.10389571287E+02 0.  0.
         22    1    3    3    0    0 -0.11512554839E+02 -0.20947879601E+02  0.52607133861E+02  0.57782896360E+02  0.00000000000E+00 0.  1.
         22    1    4    4    0    0  0.96548420310E+01  0.21020664293E+02 -0.26928805001E+02  0.35499927334E+02  0.00000000000E+00 0. -1.
         22    1    4    4    0    0  0.18577128085E+01 -0.72784692006E-01  0.15417393583E+00  0.18655197915E+01  0.00000000000E+00 0. -1.
<mgrwt>
<rscale>  0 0.91574500E+02</rscale>
<asrwt>0</asrwt>
<pdfrwt beam="1">  1        3 0.93062189E-02 0.91574500E+02</pdfrwt>
<pdfrwt beam="2">  1       -3 0.53319878E-02 0.91574500E+02</pdfrwt>
<totfact> 0.34621636E+04</totfact>
</mgrwt>
</event>
<event>
 7    1  0.1312339E-009  0.7905686E+02  0.7818608E-02  0.1331749E+00
         -3   -1    0    0    0  501 -0.00000000000E+00  0.00000000000E+00  0.17627916735E+02  0.17628206075E+02  0.10100000000E+00 0.  1.
          3   -1    0    0  501    0  0.00000000000E+00 -0.00000000000E+00 -0.88636578191E+02  0.88636635735E+02  0.10100000000E+00 0. -1.
         23    2    1    2    0    0 -0.55511151231E-16 -0.71054273576E-14 -0.71008661456E+02  0.10626484181E+03  0.79056856775E+02 0.  0.
    9000005    2    3    3    0    0 -0.16875020675E+00 -0.36628400220E+02 -0.20446271258E+02  0.43829086975E+02  0.12699239243E+02 0.  0.
         22    1    3    3    0    0  0.16875020675E+00  0.36628400220E+02 -0.50562390198E+02  0.62435754835E+02  0.00000000000E+00 0. -1.
         22    1    4    4    0    0 -0.19920492637E+01 -0.20294515255E+02 -0.44038288109E+01  0.20862150366E+02  0.00000000000E+00 0. -1.
         22    1    4    4    0    0  0.18232990570E+01 -0.16333884965E+02 -0.16042442447E+02  0.22966936609E+02  0.00000000000E+00 0. -1.
<mgrwt>
<rscale>  0 0.79056857E+02</rscale>
<asrwt>0</asrwt>
<pdfrwt beam="2">  1        3 0.13636423E-01 0.79056857E+02</pdfrwt>
<pdfrwt beam="1">  1       -3 0.27120139E-02 0.79056857E+02</pdfrwt>
<totfact> 0.50240493E+04</totfact>
</mgrwt>
</event>
<event>
 7    1  0.1312339E-009  0.9055351E+02  0.7818608E-02  0.1301517E+00
         -3   -1    0    0    0  501 -0.00000000000E+00  0.00000000000E+00  0.55556423689E+03  0.55556424608E+03  0.10100000000E+00 0.  1.
          3   -1    0    0  501    0  0.00000000000E+00 -0.00000000000E+00 -0.36892143994E+01  0.36905966841E+01  0.10100000000E+00 0. -1.
         23    2    1    2    0    0 -0.17763568394E-14  0.00000000000E+00  0.55187502250E+03  0.55925484276E+03  0.90553512885E+02 0.  0.
    9000005    2    3    3    0    0 -0.94449024158E+01  0.32924980072E+02  0.45827453227E+03  0.45958382258E+03  0.53369045238E+01 0.  0.
         22    1    3    3    0    0  0.94449024158E+01 -0.32924980072E+02  0.93600490221E+02  0.99671020181E+02  0.00000000000E+00 0. -1.
         22    1    4    4    0    0 -0.10060113969E+02  0.31768270620E+02  0.43669432974E+03  0.43796388725E+03  0.00000000000E+00 0.  1.
         22    1    4    4    0    0  0.61521155364E+00  0.11567094518E+01  0.21580202536E+02  0.21619935326E+02  0.00000000000E+00 0.  1.
<mgrwt>
<rscale>  0 0.90553513E+02</rscale>
<asrwt>0</asrwt>
<pdfrwt beam="2">  1        3 0.56767811E-03 0.90553513E+02</pdfrwt>
<pdfrwt beam="1">  1       -3 0.85471585E-01 0.90553513E+02</pdfrwt>
<totfact> 0.16844540E+04</totfact>
</mgrwt>
</event>
<event>
 7    1  0.1312339E-009  0.8976264E+02  0.7818608E-02  0.1303428E+00
          3   -1    0    0  501    0  0.00000000000E+00  0.00000000000E+00  0.27073137073E+02  0.27073325470E+02  0.10100000000E+00 0. -1.
         -3   -1    0    0    0  501 -0.00000000000E+00 -0.00000000000E+00 -0.74402901871E+02  0.74402970423E+02  0.10100000000E+00 0.  1.
         23    2    1    2    0    0  0.35527136788E-14  0.88817841970E-15 -0.47329764798E+02  0.10147629589E+03  0.89762642521E+02 0.  0.
    9000005    2    3    3    0    0  0.29470031051E+02  0.45940528306E+01 -0.61048518088E+02  0.68646549573E+02  0.97897474950E+01 0.  0.
         22    1    3    3    0    0 -0.29470031051E+02 -0.45940528306E+01  0.13718753290E+02  0.32829746320E+02  0.00000000000E+00 0. -1.
         22    1    4    4    0    0  0.23765995495E+02  0.39190074346E-01 -0.50569935904E+02  0.55876135291E+02  0.00000000000E+00 0. -1.
         22    1    4    4    0    0  0.57040355567E+01  0.45548627562E+01 -0.10478582184E+02  0.12770414283E+02  0.00000000000E+00 0. -1.
<mgrwt>
<rscale>  0 0.89762643E+02</rscale>
<asrwt>0</asrwt>
<pdfrwt beam="1">  1        3 0.41651178E-02 0.89762643E+02</pdfrwt>
<pdfrwt beam="2">  1       -3 0.11446620E-01 0.89762643E+02</pdfrwt>
<totfact> 0.36062033E+04</totfact>
</mgrwt>
</event>
<event>
 7    1  0.1312339E-009  0.9076848E+02  0.7818608E-02  0.1301001E+00
          3   -1    0    0  501    0  0.00000000000E+00  0.00000000000E+00  0.28432741698E+02  0.28432921085E+02  0.10100000000E+00 0. -1.
         -3   -1    0    0    0  501 -0.00000000000E+00 -0.00000000000E+00 -0.72441723980E+02  0.72441794388E+02  0.10100000000E+00 0.  1.
         23    2    1    2    0    0 -0.35527136788E-14  0.00000000000E+00 -0.44008982282E+02  0.10087471547E+03  0.90768484070E+02 0.  0.
    9000005    2    3    3    0    0 -0.29042600307E+02  0.32218564729E+02 -0.31794979713E+02  0.55811533112E+02  0.14916365092E+02 0.  0.
         22    1    3    3    0    0  0.29042600307E+02 -0.32218564729E+02 -0.12214002569E+02  0.45063182361E+02  0.00000000000E+00 0. -1.
         22    1    4    4    0    0 -0.28511584934E+02  0.29623852177E+02 -0.33169997418E+02  0.52827377580E+02  0.00000000000E+00 0.  1.
         22    1    4    4    0    0 -0.53101537302E+00  0.25947125515E+01  0.13750177046E+01  0.29841555320E+01  0.00000000000E+00 0.  1.
<mgrwt>
<rscale>  0 0.90768484E+02</rscale>
<asrwt>0</asrwt>
<pdfrwt beam="1">  1        3 0.43742872E-02 0.90768484E+02</pdfrwt>
<pdfrwt beam="2">  1       -3 0.11144900E-01 0.90768484E+02</pdfrwt>
<totfact> 0.35032821E+04</totfact>
</mgrwt>
</event>
<event>
 7    1  0.1312339E-009  0.9045107E+02  0.7818608E-02  0.1301763E+00
          3   -1    0    0  501    0  0.00000000000E+00  0.00000000000E+00  0.32255792284E+02  0.32255950410E+02  0.10100000000E+00 0. -1.
         -3   -1    0    0    0  501 -0.00000000000E+00 -0.00000000000E+00 -0.63409930003E+02  0.63410010440E+02  0.10100000000E+00 0.  1.
         23    2    1    2    0    0  0.00000000000E+00 -0.35527136788E-14 -0.31154137720E+02  0.95665960850E+02  0.90451068365E+02 0.  0.
    9000005    2    3    3    0    0 -0.25848581664E+02  0.16101372740E+02  0.17263975502E+02  0.38467035457E+02  0.15945676173E+02 0.  0.
         22    1    3    3    0    0  0.25848581664E+02 -0.16101372740E+02 -0.48418113222E+02  0.57198925393E+02  0.00000000000E+00 0.  1.
         22    1    4    4    0    0 -0.18877162238E+02  0.43438474986E+01  0.15244386570E+02  0.24649697506E+02  0.00000000000E+00 0. -1.
         22    1    4    4    0    0 -0.69714194256E+01  0.11757525241E+02  0.20195889327E+01  0.13817337952E+02  0.00000000000E+00 0. -1.
<mgrwt>
<rscale>  0 0.90451068E+02</rscale>
<asrwt>0</asrwt>
<pdfrwt beam="1">  1        3 0.49624479E-02 0.90451068E+02</pdfrwt>
<pdfrwt beam="2">  1       -3 0.97553922E-02 0.90451068E+02</pdfrwt>
<totfact> 0.35765492E+04</totfact>
</mgrwt>
</event>
<event>
 7    1  0.1312339E-009  0.9117118E+02  0.7818608E-02  0.1300040E+00
         -3   -1    0    0    0  501 -0.00000000000E+00  0.00000000000E+00  0.46337352824E+03  0.46337353925E+03  0.10100000000E+00 0.  1.
          3   -1    0    0  501    0  0.00000000000E+00 -0.00000000000E+00 -0.44840229049E+01  0.44851602437E+01  0.10100000000E+00 0. -1.
         23    2    1    2    0    0  0.00000000000E+00  0.00000000000E+00  0.45888950534E+03  0.46785869949E+03  0.91171182853E+02 0.  0.
    9000005    2    3    3    0    0 -0.33443022371E+02  0.24670883452E+02  0.31873392911E+03  0.32167158042E+03  0.12417723138E+02 0.  0.
         22    1    3    3    0    0  0.33443022371E+02 -0.24670883452E+02  0.14015557623E+03  0.14618711908E+03  0.00000000000E+00 0.  1.
         22    1    4    4    0    0 -0.54306013946E+01  0.77286694269E+01  0.10770878326E+03  0.10812217975E+03  0.00000000000E+00 0.  1.
         22    1    4    4    0    0 -0.28012420976E+02  0.16942214025E+02  0.21102514584E+03  0.21354940066E+03  0.00000000000E+00 0.  1.
<mgrwt>
<rscale>  0 0.91171183E+02</rscale>
<asrwt>0</asrwt>
<pdfrwt beam="2">  1        3 0.68993859E-03 0.91171183E+02</pdfrwt>
<pdfrwt beam="1">  1       -3 0.71288264E-01 0.91171183E+02</pdfrwt>
<totfact> 0.18700996E+04</totfact>
</mgrwt>
</event>
<event>
 7    1  0.1312339E-009  0.9127678E+02  0.7818608E-02  0.1299789E+00
         -3   -1    0    0    0  501 -0.00000000000E+00  0.00000000000E+00  0.26518583081E+02  0.26518775417E+02  0.10100000000E+00 0.  1.
          3   -1    0    0  501    0  0.00000000000E+00 -0.00000000000E+00 -0.78543002647E+02  0.78543067586E+02  0.10100000000E+00 0. -1.
         23    2    1    2    0    0  0.00000000000E+00  0.00000000000E+00 -0.52024419566E+02  0.10506184300E+03  0.91276780311E+02 0.  0.
    9000005    2    3    3    0    0 -0.42169567753E+02  0.33317178874E+01 -0.42765860874E+02  0.61759490900E+02  0.13997966686E+02 0.  0.
         22    1    3    3    0    0  0.42169567753E+02 -0.33317178874E+01 -0.92585586927E+01  0.43302352103E+02  0.00000000000E+00 0.  1.
         22    1    4    4    0    0 -0.36679106340E+02  0.54420609813E+01 -0.41664018420E+02  0.55775113630E+02  0.00000000000E+00 0.  1.
         22    1    4    4    0    0 -0.54904614135E+01 -0.21103430940E+01 -0.11018424539E+01  0.59843772692E+01  0.00000000000E+00 0.  1.
<mgrwt>
<rscale>  0 0.91276780E+02</rscale>
<asrwt>0</asrwt>
<pdfrwt beam="2">  1        3 0.12083559E-01 0.91276780E+02</pdfrwt>
<pdfrwt beam="1">  1       -3 0.40798018E-02 0.91276780E+02</pdfrwt>
<totfact> 0.34197603E+04</totfact>
</mgrwt>
</event>
<event>
 7    1  0.1312339E-009  0.1017038E+03  0.7818608E-02  0.1276753E+00
          3   -1    0    0  501    0  0.00000000000E+00  0.00000000000E+00  0.83763302023E+02  0.83763362915E+02  0.10100000000E+00 0. -1.
         -3   -1    0    0    0  501 -0.00000000000E+00 -0.00000000000E+00 -0.30871526614E+02  0.30871691830E+02  0.10100000000E+00 0.  1.
         23    2    1    2    0    0  0.00000000000E+00  0.00000000000E+00  0.52891775409E+02  0.11463505474E+03  0.10170376527E+03 0.  0.
    9000005    2    3    3    0    0 -0.11317032820E+02 -0.22982640124E+02 -0.20857980824E+02  0.36562629886E+02  0.15668234145E+02 0.  0.
         22    1    3    3    0    0  0.11317032820E+02  0.22982640124E+02  0.73749756233E+02  0.78072424859E+02  0.00000000000E+00 0. -1.
         22    1    4    4    0    0 -0.11240606483E+02 -0.62836663214E+01 -0.12258231538E+02  0.17779199560E+02  0.00000000000E+00 0. -1.
         22    1    4    4    0    0 -0.76426336962E-01 -0.16698973802E+02 -0.85997492856E+01  0.18783430326E+02  0.00000000000E+00 0. -1.
<mgrwt>
<rscale>  0 0.10170377E+03</rscale>
<asrwt>0</asrwt>
<pdfrwt beam="1">  1        3 0.12886679E-01 0.10170377E+03</pdfrwt>
<pdfrwt beam="2">  1       -3 0.47494830E-02 0.10170377E+03</pdfrwt>
<totfact> 0.24926105E+04</totfact>
</mgrwt>
</event>
<event>
 7    1  0.1312339E-009  0.9101529E+02  0.7818608E-02  0.1300411E+00
         -3   -1    0    0    0  501 -0.00000000000E+00  0.00000000000E+00  0.22469121751E+03  0.22469124021E+03  0.10100000000E+00 0.  1.
          3   -1    0    0  501    0  0.00000000000E+00 -0.00000000000E+00 -0.92165522891E+01  0.92171056790E+01  0.10100000000E+00 0. -1.
         23    2    1    2    0    0  0.00000000000E+00  0.00000000000E+00  0.21547466522E+03  0.23390834588E+03  0.91015289509E+02 0.  0.
    9000005    2    3    3    0    0 -0.32130528743E+02 -0.91899693837E+01  0.33340711066E+02  0.48733823693E+02  0.12106037451E+02 0.  0.
         22    1    3    3    0    0  0.32130528743E+02  0.91899693837E+01  0.18213395415E+03  0.18517452219E+03  0.00000000000E+00 0.  1.
         22    1    4    4    0    0 -0.14922772458E+02 -0.66751980001E+01  0.85413598875E+01  0.18444571963E+02  0.00000000000E+00 0.  1.
         22    1    4    4    0    0 -0.17207756284E+02 -0.25147713836E+01  0.24799351179E+02  0.30289251730E+02  0.00000000000E+00 0.  1.
<mgrwt>
<rscale>  0 0.91015290E+02</rscale>
<asrwt>0</asrwt>
<pdfrwt beam="2">  1        3 0.14179755E-02 0.91015290E+02</pdfrwt>
<pdfrwt beam="1">  1       -3 0.34567921E-01 0.91015290E+02</pdfrwt>
<totfact> 0.26960771E+04</totfact>
</mgrwt>
</event>
<event>
 7    1  0.1312339E-009  0.8899731E+02  0.7818608E-02  0.1305298E+00
          3   -1    0    0  501    0  0.00000000000E+00  0.00000000000E+00  0.99191281797E+02  0.99191333218E+02  0.10100000000E+00 0. -1.
         -3   -1    0    0    0  501 -0.00000000000E+00 -0.00000000000E+00 -0.19962561214E+02  0.19962816716E+02  0.10100000000E+00 0.  1.
         23    2    1    2    0    0  0.00000000000E+00  0.71054273576E-14  0.79228720583E+02  0.11915414993E+03  0.88997310528E+02 0.  0.
    9000005    2    3    3    0    0 -0.18676591379E+02 -0.36862626529E+02  0.23976054802E+02  0.50157589322E+02  0.15272991279E+02 0.  0.
         22    1    3    3    0    0  0.18676591379E+02  0.36862626529E+02  0.55252665782E+02  0.68996560611E+02  0.00000000000E+00 0. -1.
         22    1    4    4    0    0 -0.18678539520E+02 -0.35884939424E+02  0.25874670426E+02  0.48022029171E+02  0.00000000000E+00 0.  1.
         22    1    4    4    0    0  0.19481413015E-02 -0.97768710570E+00 -0.18986156242E+01  0.21355601514E+01  0.00000000000E+00 0.  1.
<mgrwt>
<rscale>  0 0.88997311E+02</rscale>
<asrwt>0</asrwt>
<pdfrwt beam="1">  1        3 0.15260221E-01 0.88997311E+02</pdfrwt>
<pdfrwt beam="2">  1       -3 0.30711869E-02 0.88997311E+02</pdfrwt>
<totfact> 0.35559574E+04</totfact>
</mgrwt>
</event>
<event>
 7    1  0.1312339E-009  0.9184199E+02  0.7818608E-02  0.1298451E+00
          3   -1    0    0  501    0  0.00000000000E+00  0.00000000000E+00  0.16253135513E+02  0.16253449326E+02  0.10100000000E+00 0. -1.
         -3   -1    0    0    0  501 -0.00000000000E+00 -0.00000000000E+00 -0.12974185422E+03  0.12974189354E+03  0.10100000000E+00 0.  1.
         23    2    1    2    0    0  0.00000000000E+00  0.17763568394E-14 -0.11348871871E+03  0.14599534286E+03  0.91841988560E+02 0.  0.
    9000005    2    3    3    0    0  0.38983086173E+02 -0.11645078309E+02 -0.25115754272E+02  0.48706753088E+02  0.92875092131E+01 0.  0.
         22    1    3    3    0    0 -0.38983086173E+02  0.11645078309E+02 -0.88372964439E+02  0.97288589773E+02  0.00000000000E+00 0.  1.
         22    1    4    4    0    0  0.36193403540E+02 -0.86239781027E+01 -0.20335823820E+02  0.42401429086E+02  0.00000000000E+00 0. -1.
         22    1    4    4    0    0  0.27896826330E+01 -0.30211002060E+01 -0.47799304515E+01  0.63053240019E+01  0.00000000000E+00 0. -1.
<mgrwt>
<rscale>  0 0.91841989E+02</rscale>
<asrwt>0</asrwt>
<pdfrwt beam="1">  1        3 0.25005096E-02 0.91841989E+02</pdfrwt>
<pdfrwt beam="2">  1       -3 0.19960312E-01 0.91841989E+02</pdfrwt>
<totfact> 0.30938534E+04</totfact>
</mgrwt>
</event>
<event>
 7    1  0.1312339E-009  0.8881713E+02  0.7818608E-02  0.1305742E+00
          3   -1    0    0  501    0  0.00000000000E+00  0.00000000000E+00  0.55992690115E+03  0.55992691026E+03  0.10100000000E+00 0. -1.
         -3   -1    0    0    0  501 -0.00000000000E+00 -0.00000000000E+00 -0.35213703127E+01  0.35228184567E+01  0.10100000000E+00 0.  1.
         23    2    1    2    0    0  0.00000000000E+00  0.00000000000E+00  0.55640553084E+03  0.56344972871E+03  0.88817126973E+02 0.  0.
    9000005    2    3    3    0    0 -0.21304525419E+02 -0.41198224253E+01  0.52321313574E+03  0.52379382332E+03  0.11710175125E+02 0.  0.
         22    1    3    3    0    0  0.21304525419E+02  0.41198224253E+01  0.33192395096E+02  0.39655905391E+02  0.00000000000E+00 0.  1.
         22    1    4    4    0    0 -0.12801541922E+02 -0.66353875051E+01  0.40113627275E+03  0.40139533774E+03  0.00000000000E+00 0.  1.
         22    1    4    4    0    0 -0.85029834969E+01  0.25155650798E+01  0.12207686299E+03  0.12239848558E+03  0.00000000000E+00 0.  1.
<mgrwt>
<rscale>  0 0.88817127E+02</rscale>
<asrwt>0</asrwt>
<pdfrwt beam="1">  1        3 0.86142649E-01 0.88817127E+02</pdfrwt>
<pdfrwt beam="2">  1       -3 0.54186177E-03 0.88817127E+02</pdfrwt>
<totfact> 0.17664084E+04</totfact>
</mgrwt>
</event>
<event>
 7    1  0.1312339E-009  0.9138103E+02  0.7818608E-02  0.1299541E+00
         -3   -1    0    0    0  501 -0.00000000000E+00  0.00000000000E+00  0.34220142348E+01  0.34235044068E+01  0.10100000000E+00 0.  1.
          3   -1    0    0  501    0  0.00000000000E+00 -0.00000000000E+00 -0.60992259342E+03  0.60992260179E+03  0.10100000000E+00 0. -1.
         23    2    1    2    0    0  0.00000000000E+00  0.35527136788E-14 -0.60650057919E+03  0.61334610619E+03  0.91381034277E+02 0.  0.
    9000005    2    3    3    0    0  0.34514196390E+01 -0.16008751834E+02 -0.58917175572E+03  0.58950327591E+03  0.11070778885E+02 0.  0.
         22    1    3    3    0    0 -0.34514196390E+01  0.16008751834E+02 -0.17328823471E+02  0.23842830279E+02  0.00000000000E+00 0.  1.
         22    1    4    4    0    0 -0.26872504401E+00 -0.10912663540E+02 -0.49502130819E+03  0.49514165044E+03  0.00000000000E+00 0.  1.
         22    1    4    4    0    0  0.37201446830E+01 -0.50960882945E+01 -0.94150447526E+02  0.94361625472E+02  0.00000000000E+00 0.  1.
<mgrwt>
<rscale>  0 0.91381034E+02</rscale>
<asrwt>0</asrwt>
<pdfrwt beam="2">  1        3 0.93834274E-01 0.91381034E+02</pdfrwt>
<pdfrwt beam="1">  1       -3 0.52657949E-03 0.91381034E+02</pdfrwt>
<totfact> 0.15375018E+04</totfact>
</mgrwt>
</event>
<event>
 7    1  0.1312339E-009  0.9048612E+02  0.7818608E-02  0.1301679E+00
          3   -1    0    0  501    0  0.00000000000E+00  0.00000000000E+00  0.18118976742E+02  0.18119258240E+02  0.10100000000E+00 0. -1.
         -3   -1    0    0    0  501 -0.00000000000E+00 -0.00000000000E+00 -0.11297066655E+03  0.11297071170E+03  0.10100000000E+00 0.  1.
         23    2    1    2    0    0  0.00000000000E+00  0.35527136788E-14 -0.94851689804E+02  0.13108996994E+03  0.90486115835E+02 0.  0.
    9000005    2    3    3    0    0  0.24244792724E+02  0.19723459605E+02 -0.93769438794E+02  0.99817040743E+02  0.13925126131E+02 0.  0.
         22    1    3    3    0    0 -0.24244792724E+02 -0.19723459605E+02 -0.10822510099E+01  0.31272929193E+02  0.00000000000E+00 0. -1.
         22    1    4    4    0    0  0.24627743014E+02  0.20984475134E+02 -0.92466091177E+02  0.97963523519E+02  0.00000000000E+00 0. -1.
         22    1    4    4    0    0 -0.38295028930E+00 -0.12610155289E+01 -0.13033476171E+01  0.18535172239E+01  0.00000000000E+00 0. -1.
<mgrwt>
<rscale>  0 0.90486116E+02</rscale>
<asrwt>0</asrwt>
<pdfrwt beam="1">  1        3 0.27875601E-02 0.90486116E+02</pdfrwt>
<pdfrwt beam="2">  1       -3 0.17380127E-01 0.90486116E+02</pdfrwt>
<totfact> 0.33182349E+04</totfact>
</mgrwt>
</event>
<event>
 7    1  0.1312339E-009  0.8312531E+02  0.7818608E-02  0.1320409E+00
         -3   -1    0    0    0  501 -0.00000000000E+00  0.00000000000E+00  0.12215288471E+03  0.12215292646E+03  0.10100000000E+00 0.  1.
          3   -1    0    0  501    0  0.00000000000E+00 -0.00000000000E+00 -0.14141516253E+02  0.14141876924E+02  0.10100000000E+00 0. -1.
         23    2    1    2    0    0 -0.88817841970E-15  0.35527136788E-14  0.10801136845E+03  0.13629480339E+03  0.83125313320E+02 0.  0.
    9000005    2    3    3    0    0 -0.62933875826E+01  0.31219495578E+02  0.97015948029E+02  0.10260262474E+03  0.10046929917E+02 0.  0.
         22    1    3    3    0    0  0.62933875826E+01 -0.31219495578E+02  0.10995420426E+02  0.33692178643E+02  0.00000000000E+00 0. -1.
         22    1    4    4    0    0  0.15511027237E+01  0.12938756942E+02  0.47080252709E+02  0.48850461062E+02  0.00000000000E+00 0. -1.
         22    1    4    4    0    0 -0.78444903064E+01  0.18280738636E+02  0.49935695320E+02  0.53752163680E+02  0.00000000000E+00 0. -1.
<mgrwt>
<rscale>  0 0.83125313E+02</rscale>
<asrwt>0</asrwt>
<pdfrwt beam="2">  1        3 0.21756488E-02 0.83125313E+02</pdfrwt>
<pdfrwt beam="1">  1       -3 0.18792783E-01 0.83125313E+02</pdfrwt>
<totfact> 0.41263419E+04</totfact>
</mgrwt>
</event>
<event>
 7    1  0.1312339E-009  0.8989437E+02  0.7818608E-02  0.1303108E+00
         -3   -1    0    0    0  501 -0.00000000000E+00  0.00000000000E+00  0.57244844251E+01  0.57253753530E+01  0.10100000000E+00 0.  1.
          3   -1    0    0  501    0  0.00000000000E+00 -0.00000000000E+00 -0.35288539683E+03  0.35288541128E+03  0.10100000000E+00 0. -1.
         23    2    1    2    0    0  0.71054273576E-14  0.00000000000E+00 -0.34716091240E+03  0.35861078663E+03  0.89894366844E+02 0.  0.
    9000005    2    3    3    0    0  0.40031395088E+02 -0.48756265611E+01 -0.24461671825E+03  0.24842187575E+03  0.15805226272E+02 0.  0.
         22    1    3    3    0    0 -0.40031395088E+02  0.48756265611E+01 -0.10254419415E+03  0.11018891088E+03  0.00000000000E+00 0.  1.
         22    1    4    4    0    0  0.28008644116E+02 -0.10986766100E+01 -0.12297266256E+03  0.12612678928E+03  0.00000000000E+00 0. -1.
         22    1    4    4    0    0  0.12022750973E+02 -0.37769499511E+01 -0.12164405568E+03  0.12229508647E+03  0.00000000000E+00 0. -1.
<mgrwt>
<rscale>  0 0.89894367E+02</rscale>
<asrwt>0</asrwt>
<pdfrwt beam="2">  1        3 0.54290114E-01 0.89894367E+02</pdfrwt>
<pdfrwt beam="1">  1       -3 0.88075983E-03 0.89894367E+02</pdfrwt>
<totfact> 0.22773468E+04</totfact>
</mgrwt>
</event>
<event>
 7    1  0.1312339E-009  0.1011775E+03  0.7818608E-02  0.1277839E+00
          3   -1    0    0  501    0  0.00000000000E+00  0.00000000000E+00  0.24218069111E+02  0.24218279717E+02  0.10100000000E+00 0. -1.
         -3   -1    0    0    0  501 -0.00000000000E+00 -0.00000000000E+00 -0.10567342664E+03  0.10567347491E+03  0.10100000000E+00 0.  1.
         23    2    1    2    0    0  0.00000000000E+00  0.22204460493E-15 -0.81455357528E+02  0.12989175462E+03  0.10117753036E+03 0.  0.
    9000005    2    3    3    0    0 -0.43121411978E+02  0.19512228631E+01 -0.10216083776E+02  0.46595310723E+02  0.14265033194E+02 0.  0.
         22    1    3    3    0    0  0.43121411978E+02 -0.19512228631E+01 -0.71239273752E+02  0.83296443900E+02  0.00000000000E+00 0.  1.
         22    1    4    4    0    0 -0.21305280760E+02  0.47190429208E+01  0.11279597095E+01  0.21850781392E+02  0.00000000000E+00 0.  1.
         22    1    4    4    0    0 -0.21816131218E+02 -0.27678200576E+01 -0.11344043486E+02  0.24744529331E+02  0.00000000000E+00 0.  1.
<mgrwt>
<rscale>  0 0.10117753E+03</rscale>
<asrwt>0</asrwt>
<pdfrwt beam="1">  1        3 0.37258768E-02 0.10117753E+03</pdfrwt>
<pdfrwt beam="2">  1       -3 0.16257470E-01 0.10117753E+03</pdfrwt>
<totfact> 0.24517696E+04</totfact>
</mgrwt>
</event>
<event>
 7    1  0.1312339E-009  0.9087422E+02  0.7818608E-02  0.1300748E+00
          3   -1    0    0  501    0  0.00000000000E+00  0.00000000000E+00  0.47330198510E+01  0.47340973701E+01  0.10100000000E+00 0. -1.
         -3   -1    0    0    0  501 -0.00000000000E+00 -0.00000000000E+00 -0.43614665958E+03  0.43614667128E+03  0.10100000000E+00 0.  1.
         23    2    1    2    0    0  0.35527136788E-14  0.00000000000E+00 -0.43141363973E+03  0.44088076865E+03  0.90874218656E+02 0.  0.
    9000005    2    3    3    0    0 -0.19434924478E+02  0.40341476486E+02 -0.24883720945E+03  0.25289325866E+03  0.54673995084E+01 0.  0.
         22    1    3    3    0    0  0.19434924478E+02 -0.40341476486E+02 -0.18257643029E+03  0.18798750999E+03  0.00000000000E+00 0. -1.
         22    1    4    4    0    0 -0.12314466579E+01  0.60311809715E+00 -0.93454649876E+01  0.94455242387E+01  0.00000000000E+00 0.  1.
         22    1    4    4    0    0 -0.18203477820E+02  0.39738358389E+02 -0.23949174446E+03  0.24344773442E+03  0.00000000000E+00 0.  1.
<mgrwt>
<rscale>  0 0.90874219E+02</rscale>
<asrwt>0</asrwt>
<pdfrwt beam="1">  1        3 0.72824103E-03 0.90874219E+02</pdfrwt>
<pdfrwt beam="2">  1       -3 0.67099538E-01 0.90874219E+02</pdfrwt>
<totfact> 0.19592922E+04</totfact>
</mgrwt>
</event>
<event>
 7    1  0.1312339E-009  0.9077234E+02  0.7818608E-02  0.1300992E+00
          3   -1    0    0  501    0  0.00000000000E+00  0.00000000000E+00  0.19968474677E+02  0.19968730103E+02  0.10100000000E+00 0. -1.
         -3   -1    0    0    0  501 -0.00000000000E+00 -0.00000000000E+00 -0.10315688515E+03  0.10315693460E+03  0.10100000000E+00 0.  1.
         23    2    1    2    0    0  0.00000000000E+00  0.00000000000E+00 -0.83188410477E+02  0.12312566470E+03  0.90772339788E+02 0.  0.
    9000005    2    3    3    0    0  0.27319512788E+02  0.34836917330E+02 -0.40784234991E+02  0.61822478107E+02  0.14096041555E+02 0.  0.
         22    1    3    3    0    0 -0.27319512788E+02 -0.34836917330E+02 -0.42404175487E+02  0.61303186595E+02  0.00000000000E+00 0. -1.
         22    1    4    4    0    0  0.32029810002E+01  0.40027647917E+01 -0.12551905160E+02  0.13558448894E+02  0.00000000000E+00 0. -1.
         22    1    4    4    0    0  0.24116531788E+02  0.30834152538E+02 -0.28232329831E+02  0.48264029213E+02  0.00000000000E+00 0. -1.
<mgrwt>
<rscale>  0 0.90772340E+02</rscale>
<asrwt>0</asrwt>
<pdfrwt beam="1">  1        3 0.30720965E-02 0.90772340E+02</pdfrwt>
<pdfrwt beam="2">  1       -3 0.15870313E-01 0.90772340E+02</pdfrwt>
<totfact> 0.33436498E+04</totfact>
</mgrwt>
</event>
<event>
 7    1  0.1312339E-009  0.9479718E+02  0.7818608E-02  0.1291634E+00
          3   -1    0    0  501    0  0.00000000000E+00  0.00000000000E+00  0.11955430111E+03  0.11955434378E+03  0.10100000000E+00 0. -1.
         -3   -1    0    0    0  501 -0.00000000000E+00 -0.00000000000E+00 -0.18791500266E+02  0.18791771690E+02  0.10100000000E+00 0.  1.
         23    2    1    2    0    0  0.00000000000E+00  0.00000000000E+00  0.10076280085E+03  0.13834611547E+03  0.94797181551E+02 0.  0.
    9000005    2    3    3    0    0 -0.35992464256E+02  0.28116225934E+02  0.63489409605E+02  0.79394564692E+02  0.13660604914E+02 0.  0.
         22    1    3    3    0    0  0.35992464256E+02 -0.28116225934E+02  0.37273391244E+02  0.58951550776E+02  0.00000000000E+00 0.  1.
         22    1    4    4    0    0 -0.34488205980E+02  0.27066177931E+02  0.63920315625E+02  0.77510135396E+02  0.00000000000E+00 0. -1.
         22    1    4    4    0    0 -0.15042582760E+01  0.10500480034E+01 -0.43090602076E+00  0.18844292953E+01  0.00000000000E+00 0. -1.
<mgrwt>
<rscale>  0 0.94797182E+02</rscale>
<asrwt>0</asrwt>
<pdfrwt beam="1">  1        3 0.18392994E-01 0.94797182E+02</pdfrwt>
<pdfrwt beam="2">  1       -3 0.28910241E-02 0.94797182E+02</pdfrwt>
<totfact> 0.28815018E+04</totfact>
</mgrwt>
</event>
<event>
 7    1  0.1312339E-009  0.9371606E+02  0.7818608E-02  0.1294094E+00
         -3   -1    0    0    0  501 -0.00000000000E+00  0.00000000000E+00  0.11642203250E+02  0.11642641346E+02  0.10100000000E+00 0.  1.
          3   -1    0    0  501    0  0.00000000000E+00 -0.00000000000E+00 -0.18859216927E+03  0.18859219631E+03  0.10100000000E+00 0. -1.
         23    2    1    2    0    0  0.00000000000E+00  0.00000000000E+00 -0.17694996602E+03  0.20023483766E+03  0.93716059128E+02 0.  0.
    9000005    2    3    3    0    0 -0.25007990493E+02  0.12527772971E+02 -0.94111083234E+01  0.30377210448E+02  0.72014769720E+01 0.  0.
         22    1    3    3    0    0  0.25007990493E+02 -0.12527772971E+02 -0.16753885770E+03  0.16985762721E+03  0.00000000000E+00 0. -1.
         22    1    4    4    0    0 -0.10801974589E+02  0.52782539607E+01 -0.78358878265E+01  0.14350740675E+02  0.00000000000E+00 0.  1.
         22    1    4    4    0    0 -0.14206015905E+02  0.72495190102E+01 -0.15752204969E+01  0.16026469773E+02  0.00000000000E+00 0.  1.
<mgrwt>
<rscale>  0 0.93716059E+02</rscale>
<asrwt>0</asrwt>
<pdfrwt beam="2">  1        3 0.29014214E-01 0.93716059E+02</pdfrwt>
<pdfrwt beam="1">  1       -3 0.17911441E-02 0.93716059E+02</pdfrwt>
<totfact> 0.26445848E+04</totfact>
</mgrwt>
</event>
<event>
 7    1  0.1312339E-009  0.9078920E+02  0.7818608E-02  0.1300952E+00
         -3   -1    0    0    0  501 -0.00000000000E+00  0.00000000000E+00  0.23668447125E+03  0.23668449280E+03  0.10100000000E+00 0.  1.
          3   -1    0    0  501    0  0.00000000000E+00 -0.00000000000E+00 -0.87060855008E+01  0.87066713357E+01  0.10100000000E+00 0. -1.
         23    2    1    2    0    0  0.17763568394E-14 -0.35527136788E-14  0.22797838575E+03  0.24539116414E+03  0.90789201269E+02 0.  0.
    9000005    2    3    3    0    0  0.13981164910E+02 -0.24627334812E+02  0.20951046146E+03  0.21158224786E+03  0.83925894393E+01 0.  0.
         22    1    3    3    0    0 -0.13981164910E+02  0.24627334812E+02  0.18467924297E+02  0.33808916280E+02  0.00000000000E+00 0. -1.
         22    1    4    4    0    0  0.10167311102E+02 -0.23294914955E+02  0.18572617071E+03  0.18745729584E+03  0.00000000000E+00 0.  1.
         22    1    4    4    0    0  0.38138538079E+01 -0.13324198564E+01  0.23784290751E+02  0.24124952022E+02  0.00000000000E+00 0.  1.
<mgrwt>
<rscale>  0 0.90789201E+02</rscale>
<asrwt>0</asrwt>
<pdfrwt beam="2">  1        3 0.13394443E-02 0.90789201E+02</pdfrwt>
<pdfrwt beam="1">  1       -3 0.36413046E-01 0.90789201E+02</pdfrwt>
<totfact> 0.26608945E+04</totfact>
</mgrwt>
</event>
<event>
 7    1  0.1312339E-009  0.9013931E+02  0.7818608E-02  0.1302515E+00
          3   -1    0    0  501    0  0.00000000000E+00  0.00000000000E+00  0.59854135894E+02  0.59854221110E+02  0.10100000000E+00 0. -1.
         -3   -1    0    0    0  501 -0.00000000000E+00 -0.00000000000E+00 -0.33936879090E+02  0.33937029383E+02  0.10100000000E+00 0.  1.
         23    2    1    2    0    0  0.00000000000E+00  0.00000000000E+00  0.25917256804E+02  0.93791250493E+02  0.90139305904E+02 0.  0.
    9000005    2    3    3    0    0 -0.23672530570E+02 -0.16546744179E+02  0.48839370105E+02  0.56918405136E+02  0.44985913840E+01 0.  0.
         22    1    3    3    0    0  0.23672530570E+02  0.16546744179E+02 -0.22922113301E+02  0.36872845357E+02  0.00000000000E+00 0.  1.
         22    1    4    4    0    0 -0.11627946640E+02 -0.10856225466E+02  0.26839487145E+02  0.31199757125E+02  0.00000000000E+00 0. -1.
         22    1    4    4    0    0 -0.12044583931E+02 -0.56905187136E+01  0.21999882960E+02  0.25718648011E+02  0.00000000000E+00 0. -1.
<mgrwt>
<rscale>  0 0.90139306E+02</rscale>
<asrwt>0</asrwt>
<pdfrwt beam="1">  1        3 0.92083466E-02 0.90139306E+02</pdfrwt>
<pdfrwt beam="2">  1       -3 0.52210765E-02 0.90139306E+02</pdfrwt>
<totfact> 0.36248631E+04</totfact>
</mgrwt>
</event>
<event>
 7    1  0.1312339E-009  0.9342340E+02  0.7818608E-02  0.1294767E+00
          3   -1    0    0  501    0  0.00000000000E+00  0.00000000000E+00  0.13685274986E+02  0.13685647680E+02  0.10100000000E+00 0. -1.
         -3   -1    0    0    0  501 -0.00000000000E+00 -0.00000000000E+00 -0.15943762416E+03  0.15943765615E+03  0.10100000000E+00 0.  1.
         23    2    1    2    0    0  0.00000000000E+00 -0.35527136788E-14 -0.14575234917E+03  0.17312330383E+03  0.93423396637E+02 0.  0.
    9000005    2    3    3    0    0 -0.39505140127E+02  0.24356469179E+02 -0.76220679278E+02  0.89525775123E+02  0.71678988832E+01 0.  0.
         22    1    3    3    0    0  0.39505140127E+02 -0.24356469179E+02 -0.69531669892E+02  0.83597528704E+02  0.00000000000E+00 0. -1.
         22    1    4    4    0    0 -0.31091197805E+02  0.19662767913E+02 -0.65408952624E+02  0.75044107739E+02  0.00000000000E+00 0.  1.
         22    1    4    4    0    0 -0.84139423226E+01  0.46937012664E+01 -0.10811726654E+02  0.14481667384E+02  0.00000000000E+00 0.  1.
<mgrwt>
<rscale>  0 0.93423397E+02</rscale>
<asrwt>0</asrwt>
<pdfrwt beam="1">  1        3 0.21054582E-02 0.93423397E+02</pdfrwt>
<pdfrwt beam="2">  1       -3 0.24528895E-01 0.93423397E+02</pdfrwt>
<totfact> 0.28037063E+04</totfact>
</mgrwt>
</event>
<event>
 7    1  0.1356313E-009  0.9020397E+02  0.7818608E-02  0.1302359E+00
          3   -1    0    0  501    0  0.00000000000E+00  0.00000000000E+00  0.11124429621E+02  0.11124888107E+02  0.10100000000E+00 0. -1.
         -3   -1    0    0    0  501 -0.00000000000E+00 -0.00000000000E+00 -0.18285357903E+03  0.18285360692E+03  0.10100000000E+00 0.  1.
         23    2    1    2    0    0  0.38857805862E-15  0.00000000000E+00 -0.17172914940E+03  0.19397849503E+03  0.90203967637E+02 0.  0.
    9000005    2    3    3    0    0 -0.12283000890E+00 -0.39901845972E+02 -0.50129082989E+02  0.65999010141E+02  0.15835781607E+02 0.  0.
         22    1    3    3    0    0  0.12283000890E+00  0.39901845972E+02 -0.12160006642E+03  0.12797948489E+03  0.00000000000E+00 0.  1.
         22    1    4    4    0    0  0.41861368151E+01 -0.30115466435E+01 -0.10426925485E+02  0.11632451577E+02  0.00000000000E+00 0. -1.
         22    1    4    4    0    0 -0.43089668240E+01 -0.36890299329E+02 -0.39702157503E+02  0.54366558564E+02  0.00000000000E+00 0. -1.
<mgrwt>
<rscale>  0 0.90203968E+02</rscale>
<asrwt>0</asrwt>
<pdfrwt beam="1">  1        3 0.17114883E-02 0.90203968E+02</pdfrwt>
<pdfrwt beam="2">  1       -3 0.28131355E-01 0.90203968E+02</pdfrwt>
<totfact> 0.29656836E+04</totfact>
</mgrwt>
</event>
<event>
 7    1  0.1312339E-009  0.9067298E+02  0.7818608E-02  0.1301230E+00
         -3   -1    0    0    0  501 -0.00000000000E+00  0.00000000000E+00  0.48740118296E+02  0.48740222942E+02  0.10100000000E+00 0.  1.
          3   -1    0    0  501    0  0.00000000000E+00 -0.00000000000E+00 -0.42170334489E+02  0.42170455439E+02  0.10100000000E+00 0. -1.
         23    2    1    2    0    0  0.00000000000E+00  0.00000000000E+00  0.65697838067E+01  0.90910678381E+02  0.90672980454E+02 0.  0.
    9000005    2    3    3    0    0 -0.41442706338E+02  0.13002437098E+02  0.14846523961E+02  0.46694553418E+02  0.85674247039E+01 0.  0.
         22    1    3    3    0    0  0.41442706338E+02 -0.13002437098E+02 -0.82767401543E+01  0.44216124963E+02  0.00000000000E+00 0. -1.
         22    1    4    4    0    0 -0.24368423792E+02  0.83414830508E+01  0.13136488789E+02  0.28913106982E+02  0.00000000000E+00 0. -1.
         22    1    4    4    0    0 -0.17074282546E+02  0.46609540476E+01  0.17100351717E+01  0.17781446437E+02  0.00000000000E+00 0. -1.
<mgrwt>
<rscale>  0 0.90672980E+02</rscale>
<asrwt>0</asrwt>
<pdfrwt beam="2">  1        3 0.64877612E-02 0.90672980E+02</pdfrwt>
<pdfrwt beam="1">  1       -3 0.74984970E-02 0.90672980E+02</pdfrwt>
<totfact> 0.35896774E+04</totfact>
</mgrwt>
</event>
<event>
 7    1  0.1312339E-009  0.9091161E+02  0.7818608E-02  0.1300659E+00
          3   -1    0    0  501    0  0.00000000000E+00  0.00000000000E+00  0.12603931335E+02  0.12604336004E+02  0.10100000000E+00 0. -1.
         -3   -1    0    0    0  501 -0.00000000000E+00 -0.00000000000E+00 -0.16393231542E+03  0.16393234654E+03  0.10100000000E+00 0.  1.
         23    2    1    2    0    0  0.00000000000E+00  0.00000000000E+00 -0.15132838409E+03  0.17653668254E+03  0.90911607905E+02 0.  0.
    9000005    2    3    3    0    0 -0.36117547367E+02  0.12409719904E+02 -0.12207342289E+03  0.12842918697E+03  0.11561016923E+02 0.  0.
         22    1    3    3    0    0  0.36117547367E+02 -0.12409719904E+02 -0.29254961196E+02  0.48107495575E+02  0.00000000000E+00 0. -1.
         22    1    4    4    0    0 -0.12765102838E+02  0.10181586122E+02 -0.45371942160E+02  0.48220593959E+02  0.00000000000E+00 0.  1.
         22    1    4    4    0    0 -0.23352444529E+02  0.22281337822E+01 -0.76701480733E+02  0.80208593007E+02  0.00000000000E+00 0.  1.
<mgrwt>
<rscale>  0 0.90911608E+02</rscale>
<asrwt>0</asrwt>
<pdfrwt beam="1">  1        3 0.19391000E-02 0.90911608E+02</pdfrwt>
<pdfrwt beam="2">  1       -3 0.25220388E-01 0.90911608E+02</pdfrwt>
<totfact> 0.29993235E+04</totfact>
</mgrwt>
</event>
<event>
 7    1  0.1312339E-009  0.9056637E+02  0.7818608E-02  0.1301486E+00
         -3   -1    0    0    0  501 -0.00000000000E+00  0.00000000000E+00  0.41467077205E+03  0.41467078435E+03  0.10100000000E+00 0.  1.
          3   -1    0    0  501    0  0.00000000000E+00 -0.00000000000E+00 -0.49445202478E+01  0.49455516862E+01  0.10100000000E+00 0. -1.
         23    2    1    2    0    0  0.00000000000E+00  0.00000000000E+00  0.40972625180E+03  0.41961633604E+03  0.90566373742E+02 0.  0.
    9000005    2    3    3    0    0 -0.22443957894E+02  0.38772374222E+02  0.20234948513E+03  0.20745566201E+03  0.92471248557E+01 0.  0.
         22    1    3    3    0    0  0.22443957894E+02 -0.38772374222E+02  0.20737676667E+03  0.21216067403E+03  0.00000000000E+00 0. -1.
         22    1    4    4    0    0 -0.35740858156E+01  0.10374398933E+02  0.66115243469E+02  0.67019606546E+02  0.00000000000E+00 0.  1.
         22    1    4    4    0    0 -0.18869872078E+02  0.28397975289E+02  0.13623424166E+03  0.14043605547E+03  0.00000000000E+00 0.  1.
<mgrwt>
<rscale>  0 0.90566374E+02</rscale>
<asrwt>0</asrwt>
<pdfrwt beam="2">  1        3 0.76077574E-03 0.90566374E+02</pdfrwt>
<pdfrwt beam="1">  1       -3 0.63795581E-01 0.90566374E+02</pdfrwt>
<totfact> 0.20382365E+04</totfact>
</mgrwt>
</event>
<event>
 7    1  0.1312339E-009  0.9177549E+02  0.7818608E-02  0.1298608E+00
         -3   -1    0    0    0  501 -0.00000000000E+00  0.00000000000E+00  0.17681105996E+03  0.17681108881E+03  0.10100000000E+00 0.  1.
          3   -1    0    0  501    0  0.00000000000E+00 -0.00000000000E+00 -0.11908994646E+02  0.11909422928E+02  0.10100000000E+00 0. -1.
         23    2    1    2    0    0  0.00000000000E+00  0.17763568394E-14  0.16490206531E+03  0.18872051174E+03  0.91775489130E+02 0.  0.
    9000005    2    3    3    0    0  0.21864029675E+02  0.13673247062E+02  0.16003581532E+03  0.16247791530E+03  0.11073269405E+02 0.  0.
         22    1    3    3    0    0 -0.21864029675E+02 -0.13673247062E+02  0.48662499940E+01  0.26242596439E+02  0.00000000000E+00 0. -1.
         22    1    4    4    0    0  0.77250324777E+01 -0.87830789333E+00  0.44048139025E+02  0.44729029759E+02  0.00000000000E+00 0. -1.
         22    1    4    4    0    0  0.14138997197E+02  0.14551554956E+02  0.11598767629E+03  0.11774888554E+03  0.00000000000E+00 0. -1.
<mgrwt>
<rscale>  0 0.91775489E+02</rscale>
<asrwt>0</asrwt>
<pdfrwt beam="2">  1        3 0.18321883E-02 0.91775489E+02</pdfrwt>
<pdfrwt beam="1">  1       -3 0.27201734E-01 0.91775489E+02</pdfrwt>
<totfact> 0.28581369E+04</totfact>
</mgrwt>
</event>
<event>
 7    1  0.1312339E-009  0.9152421E+02  0.7818608E-02  0.1299202E+00
          3   -1    0    0  501    0  0.00000000000E+00  0.00000000000E+00  0.78654985978E+02  0.78655050825E+02  0.10100000000E+00 0. -1.
         -3   -1    0    0    0  501 -0.00000000000E+00 -0.00000000000E+00 -0.26624587508E+02  0.26624779078E+02  0.10100000000E+00 0.  1.
         23    2    1    2    0    0  0.00000000000E+00  0.00000000000E+00  0.52030398470E+02  0.10527982990E+03  0.91524205648E+02 0.  0.
    9000005    2    3    3    0    0  0.21065239925E+02 -0.39340108419E+02  0.35622276395E+02  0.57733905435E+02  0.85363222612E+01 0.  0.
         22    1    3    3    0    0 -0.21065239925E+02  0.39340108419E+02  0.16408122076E+02  0.47545924468E+02  0.00000000000E+00 0.  1.
         22    1    4    4    0    0  0.13255986150E+02 -0.17150393299E+02  0.20014996996E+02  0.29503512738E+02  0.00000000000E+00 0.  1.
         22    1    4    4    0    0  0.78092537749E+01 -0.22189715119E+02  0.15607279399E+02  0.28230392697E+02  0.00000000000E+00 0.  1.
<mgrwt>
<rscale>  0 0.91524206E+02</rscale>
<asrwt>0</asrwt>
<pdfrwt beam="1">  1        3 0.12100787E-01 0.91524206E+02</pdfrwt>
<pdfrwt beam="2">  1       -3 0.40961101E-02 0.91524206E+02</pdfrwt>
<totfact> 0.33930601E+04</totfact>
</mgrwt>
</event>
<event>
 7    1  0.1312339E-009  0.9115787E+02  0.7818608E-02  0.1300072E+00
         -3   -1    0    0    0  501 -0.00000000000E+00  0.00000000000E+00  0.17789283264E+03  0.17789286131E+03  0.10100000000E+00 0.  1.
          3   -1    0    0  501    0  0.00000000000E+00 -0.00000000000E+00 -0.11677791419E+02  0.11678228180E+02  0.10100000000E+00 0. -1.
         23    2    1    2    0    0  0.00000000000E+00  0.88817841970E-15  0.16621504122E+03  0.18957108949E+03  0.91157874278E+02 0.  0.
    9000005    2    3    3    0    0  0.13606573580E+02  0.63689386796E+01  0.17237857521E+03  0.17333251271E+03  0.10202183567E+02 0.  0.
         22    1    3    3    0    0 -0.13606573580E+02 -0.63689386796E+01 -0.61635339864E+01  0.16238576775E+02  0.00000000000E+00 0. -1.
         22    1    4    4    0    0  0.27755963576E+01 -0.14546811609E+01  0.72057704639E+02  0.72125812510E+02  0.00000000000E+00 0. -1.
         22    1    4    4    0    0  0.10830977222E+02  0.78236198405E+01  0.10032087057E+03  0.10120670020E+03  0.00000000000E+00 0. -1.
<mgrwt>
<rscale>  0 0.91157874E+02</rscale>
<asrwt>0</asrwt>
<pdfrwt beam="2">  1        3 0.17966190E-02 0.91157874E+02</pdfrwt>
<pdfrwt beam="1">  1       -3 0.27368165E-01 0.91157874E+02</pdfrwt>
<totfact> 0.29062577E+04</totfact>
</mgrwt>
</event>
<event>
 7    1  0.1312339E-009  0.9241374E+02  0.7818608E-02  0.1297110E+00
          3   -1    0    0  501    0  0.00000000000E+00  0.00000000000E+00  0.28291032253E+02  0.28291212539E+02  0.10100000000E+00 0. -1.
         -3   -1    0    0    0  501 -0.00000000000E+00 -0.00000000000E+00 -0.75467794357E+02  0.75467861942E+02  0.10100000000E+00 0.  1.
         23    2    1    2    0    0  0.00000000000E+00 -0.35527136788E-14 -0.47176762104E+02  0.10375907448E+03  0.92413736288E+02 0.  0.
    9000005    2    3    3    0    0  0.29822944351E+02  0.27560430782E+02 -0.46848708584E+02  0.63150048715E+02  0.12005906964E+02 0.  0.
         22    1    3    3    0    0 -0.29822944351E+02 -0.27560430782E+02 -0.32805351984E+00  0.40609025767E+02  0.00000000000E+00 0. -1.
         22    1    4    4    0    0  0.11514702781E+01  0.67801384881E+01 -0.88833327403E+01  0.11234311830E+02  0.00000000000E+00 0.  1.
         22    1    4    4    0    0  0.28671474073E+02  0.20780292294E+02 -0.37965375844E+02  0.51915736885E+02  0.00000000000E+00 0.  1.
<mgrwt>
<rscale>  0 0.92413736E+02</rscale>
<asrwt>0</asrwt>
<pdfrwt beam="1">  1        3 0.43524856E-02 0.92413736E+02</pdfrwt>
<pdfrwt beam="2">  1       -3 0.11610449E-01 0.92413736E+02</pdfrwt>
<totfact> 0.33155029E+04</totfact>
</mgrwt>
</event>
<event>
 7    1  0.1312339E-009  0.9199230E+02  0.7818608E-02  0.1298098E+00
         -3   -1    0    0    0  501 -0.00000000000E+00  0.00000000000E+00  0.17201589232E+03  0.17201592197E+03  0.10100000000E+00 0.  1.
          3   -1    0    0  501    0  0.00000000000E+00 -0.00000000000E+00 -0.12298892987E+02  0.12299307692E+02  0.10100000000E+00 0. -1.
         23    2    1    2    0    0 -0.17763568394E-14 -0.71054273576E-14  0.15971699933E+03  0.18431522966E+03  0.91992304081E+02 0.  0.
    9000005    2    3    3    0    0  0.13690000437E+02  0.38767246294E+02  0.12104120969E+03  0.12786939543E+03  0.30483354359E+01 0.  0.
         22    1    3    3    0    0 -0.13690000437E+02 -0.38767246294E+02  0.38675789646E+02  0.56445834230E+02  0.00000000000E+00 0. -1.
         22    1    4    4    0    0  0.16140081115E+01  0.23884557105E+01  0.76824382102E+01  0.82054615786E+01  0.00000000000E+00 0.  1.
         22    1    4    4    0    0  0.12075992325E+02  0.36378790584E+02  0.11335877148E+03  0.11966393386E+03  0.00000000000E+00 0.  1.
<mgrwt>
<rscale>  0 0.91992304E+02</rscale>
<asrwt>0</asrwt>
<pdfrwt beam="2">  1        3 0.18921717E-02 0.91992304E+02</pdfrwt>
<pdfrwt beam="1">  1       -3 0.26464016E-01 0.91992304E+02</pdfrwt>
<totfact> 0.28631338E+04</totfact>
</mgrwt>
</event>
<event>
 7    1  0.1312339E-009  0.8887728E+02  0.7818608E-02  0.1305594E+00
         -3   -1    0    0    0  501 -0.00000000000E+00  0.00000000000E+00  0.13422709094E+02  0.13423089079E+02  0.10100000000E+00 0.  1.
          3   -1    0    0  501    0  0.00000000000E+00 -0.00000000000E+00 -0.14712079519E+03  0.14712082986E+03  0.10100000000E+00 0. -1.
         23    2    1    2    0    0  0.00000000000E+00 -0.17763568394E-14 -0.13369808609E+03  0.16054391894E+03  0.88877284399E+02 0.  0.
    9000005    2    3    3    0    0 -0.40825530211E+02  0.12648180367E+02 -0.55731063703E+02  0.71630719892E+02  0.14082193976E+02 0.  0.
         22    1    3    3    0    0  0.40825530211E+02 -0.12648180367E+02 -0.77967022390E+02  0.88913199043E+02  0.00000000000E+00 0.  1.
         22    1    4    4    0    0 -0.16804513975E+02  0.12455438161E+02 -0.24084439942E+02  0.31899684592E+02  0.00000000000E+00 0.  1.
         22    1    4    4    0    0 -0.24021016236E+02  0.19274220545E+00 -0.31646623760E+02  0.39731035300E+02  0.00000000000E+00 0.  1.
<mgrwt>
<rscale>  0 0.88877284E+02</rscale>
<asrwt>0</asrwt>
<pdfrwt beam="2">  1        3 0.22633999E-01 0.88877284E+02</pdfrwt>
<pdfrwt beam="1">  1       -3 0.20650642E-02 0.88877284E+02</pdfrwt>
<totfact> 0.32862745E+04</totfact>
</mgrwt>
</event>
<event>
 7    1  0.1312339E-009  0.9193335E+02  0.7818608E-02  0.1298236E+00
         -3   -1    0    0    0  501 -0.00000000000E+00  0.00000000000E+00  0.41620400148E+01  0.41632653152E+01  0.10100000000E+00 0.  1.
          3   -1    0    0  501    0  0.00000000000E+00 -0.00000000000E+00 -0.50759224424E+03  0.50759225429E+03  0.10100000000E+00 0. -1.
         23    2    1    2    0    0  0.00000000000E+00  0.00000000000E+00 -0.50343020423E+03  0.51175551960E+03  0.91933352591E+02 0.  0.
    9000005    2    3    3    0    0  0.36498306418E+01 -0.38134586567E+02 -0.39303206803E+03  0.39489955513E+03  0.19708349192E+01 0.  0.
         22    1    3    3    0    0 -0.36498306418E+01  0.38134586567E+02 -0.11039813620E+03  0.11685596447E+03  0.00000000000E+00 0.  1.
         22    1    4    4    0    0  0.29375834061E+01 -0.31954306117E+02 -0.33625475284E+03  0.33778242388E+03  0.00000000000E+00 0.  1.
         22    1    4    4    0    0  0.71224723574E+00 -0.61802804506E+01 -0.56777315183E+02  0.57117131248E+02  0.00000000000E+00 0.  1.
<mgrwt>
<rscale>  0 0.91933353E+02</rscale>
<asrwt>0</asrwt>
<pdfrwt beam="2">  1        3 0.78091161E-01 0.91933353E+02</pdfrwt>
<pdfrwt beam="1">  1       -3 0.64040928E-03 0.91933353E+02</pdfrwt>
<totfact> 0.17246308E+04</totfact>
</mgrwt>
</event>
<event>
 7    1  0.1312339E-009  0.9163784E+02  0.7818608E-02  0.1298933E+00
         -3   -1    0    0    0  501 -0.00000000000E+00  0.00000000000E+00  0.69834608752E+02  0.69834681789E+02  0.10100000000E+00 0.  1.
          3   -1    0    0  501    0  0.00000000000E+00 -0.00000000000E+00 -0.30061902137E+02  0.30062071803E+02  0.10100000000E+00 0. -1.
         23    2    1    2    0    0  0.71054273576E-14  0.00000000000E+00  0.39772706615E+02  0.99896753591E+02  0.91637837090E+02 0.  0.
    9000005    2    3    3    0    0 -0.45076452051E+02  0.36314570194E+01  0.23545450650E+02  0.51850964538E+02  0.94371747688E+01 0.  0.
         22    1    3    3    0    0  0.45076452051E+02 -0.36314570194E+01  0.16227255965E+02  0.48045789053E+02  0.00000000000E+00 0. -1.
         22    1    4    4    0    0 -0.28121474449E+02  0.62269600009E+01  0.12163942865E+02  0.31265857769E+02  0.00000000000E+00 0. -1.
         22    1    4    4    0    0 -0.16954977602E+02 -0.25955029815E+01  0.11381507785E+02  0.20585106769E+02  0.00000000000E+00 0. -1.
<mgrwt>
<rscale>  0 0.91637837E+02</rscale>
<asrwt>0</asrwt>
<pdfrwt beam="2">  1        3 0.46249268E-02 0.91637837E+02</pdfrwt>
<pdfrwt beam="1">  1       -3 0.10743804E-01 0.91637837E+02</pdfrwt>
<totfact> 0.34206203E+04</totfact>
</mgrwt>
</event>
<event>
 6    1  0.1312339E-009  0.2746465E+03  0.7818608E-02  0.1098649E+00
         -3   -1    0    0    0  501 -0.00000000000E+00  0.00000000000E+00  0.36478415106E+03  0.36478416505E+03  0.10100000000E+00 0.  1.
          3   -1    0    0  501    0  0.00000000000E+00 -0.00000000000E+00 -0.51695378613E+02  0.51695477278E+02  0.10100000000E+00 0. -1.
    9000005    2    1    2    0    0  0.12735385759E+03  0.93020033309E+00  0.80229768951E+02  0.15106829022E+03  0.12842981221E+02 0.  0.
         22    1    1    2    0    0 -0.12735385759E+03 -0.93020033309E+00  0.23285900350E+03  0.26541135211E+03  0.00000000000E+00 0. -1.
         22    1    3    3    0    0  0.10448445610E+03 -0.29014049018E+01  0.61621403530E+02  0.12133679198E+03  0.00000000000E+00 0. -1.
         22    1    3    3    0    0  0.22869401498E+02  0.38316052349E+01  0.18608365421E+02  0.29731498234E+02  0.00000000000E+00 0. -1.
<mgrwt>
<rscale>  0 0.27464652E+03</rscale>
<asrwt>0</asrwt>
<pdfrwt beam="2">  1        3 0.79531443E-02 0.27464652E+03</pdfrwt>
<pdfrwt beam="1">  1       -3 0.56120644E-01 0.27464652E+03</pdfrwt>
<totfact> 0.86488704E+02</totfact>
</mgrwt>
</event>
<event>
 7    1  0.1312339E-009  0.8830293E+02  0.7818608E-02  0.1307014E+00
         -3   -1    0    0    0  501 -0.00000000000E+00  0.00000000000E+00  0.80323895953E+02  0.80323959452E+02  0.10100000000E+00 0.  1.
          3   -1    0    0  501    0  0.00000000000E+00 -0.00000000000E+00 -0.24268465422E+02  0.24268675591E+02  0.10100000000E+00 0. -1.
         23    2    1    2    0    0  0.00000000000E+00  0.00000000000E+00  0.56055430532E+02  0.10459263504E+03  0.88302933208E+02 0.  0.
    9000005    2    3    3    0    0 -0.81345954184E+01 -0.24360927280E+02 -0.11899990533E+02  0.31945779140E+02  0.14808666705E+02 0.  0.
         22    1    3    3    0    0  0.81345954184E+01  0.24360927280E+02  0.67955421065E+02  0.72646855903E+02  0.00000000000E+00 0.  1.
         22    1    4    4    0    0  0.15255007918E+01 -0.34736966905E+01  0.27319212502E+01  0.46751593642E+01  0.00000000000E+00 0. -1.
         22    1    4    4    0    0 -0.96600962102E+01 -0.20887230590E+02 -0.14631911783E+02  0.27270619775E+02  0.00000000000E+00 0. -1.
<mgrwt>
<rscale>  0 0.88302933E+02</rscale>
<asrwt>0</asrwt>
<pdfrwt beam="2">  1        3 0.37336311E-02 0.88302933E+02</pdfrwt>
<pdfrwt beam="1">  1       -3 0.12357543E-01 0.88302933E+02</pdfrwt>
<totfact> 0.37449944E+04</totfact>
</mgrwt>
</event>
<event>
 7    1  0.1312339E-009  0.9005822E+02  0.7818608E-02  0.1302711E+00
         -3   -1    0    0    0  501 -0.00000000000E+00  0.00000000000E+00  0.14821240833E+03  0.14821244274E+03  0.10100000000E+00 0.  1.
          3   -1    0    0  501    0  0.00000000000E+00 -0.00000000000E+00 -0.13680283164E+02  0.13680655995E+02  0.10100000000E+00 0. -1.
         23    2    1    2    0    0 -0.55511151231E-15  0.00000000000E+00  0.13453212516E+03  0.16189309874E+03  0.90058218490E+02 0.  0.
    9000005    2    3    3    0    0 -0.72624487237E+00  0.37835409109E+02  0.25572334905E+02  0.46548911596E+02  0.89895074515E+01 0.  0.
         22    1    3    3    0    0  0.72624487237E+00 -0.37835409109E+02  0.10895979026E+03  0.11534418714E+03  0.00000000000E+00 0.  1.
         22    1    4    4    0    0 -0.44444040304E+01  0.12061024647E+02  0.85548340708E+01  0.15440408955E+02  0.00000000000E+00 0.  1.
         22    1    4    4    0    0  0.37181591581E+01  0.25774384461E+02  0.17017500834E+02  0.31108502641E+02  0.00000000000E+00 0.  1.
<mgrwt>
<rscale>  0 0.90058218E+02</rscale>
<asrwt>0</asrwt>
<pdfrwt beam="2">  1        3 0.21046902E-02 0.90058218E+02</pdfrwt>
<pdfrwt beam="1">  1       -3 0.22801941E-01 0.90058218E+02</pdfrwt>
<totfact> 0.31632650E+04</totfact>
</mgrwt>
</event>
<event>
 7    1  0.1312339E-009  0.1044821E+03  0.7818608E-02  0.1271143E+00
         -3   -1    0    0    0  501 -0.00000000000E+00  0.00000000000E+00  0.12393122622E+03  0.12393126738E+03  0.10100000000E+00 0.  1.
          3   -1    0    0  501    0  0.00000000000E+00 -0.00000000000E+00 -0.22021135165E+02  0.22021366783E+02  0.10100000000E+00 0. -1.
         23    2    1    2    0    0  0.00000000000E+00  0.00000000000E+00  0.10191009106E+03  0.14595263416E+03  0.10448207865E+03 0.  0.
    9000005    2    3    3    0    0  0.10428918185E+02  0.64311728402E+01  0.12185143261E+03  0.12254794614E+03  0.44838773874E+01 0.  0.
         22    1    3    3    0    0 -0.10428918185E+02 -0.64311728402E+01 -0.19941341549E+02  0.23404688021E+02  0.00000000000E+00 0. -1.
         22    1    4    4    0    0  0.83719889052E+01  0.29290479924E+01  0.75598218696E+02  0.76116753678E+02  0.00000000000E+00 0.  1.
         22    1    4    4    0    0  0.20569292794E+01  0.35021248479E+01  0.46253213910E+02  0.46431192462E+02  0.00000000000E+00 0.  1.
<mgrwt>
<rscale>  0 0.10448208E+03</rscale>
<asrwt>0</asrwt>
<pdfrwt beam="2">  1        3 0.33878880E-02 0.10448208E+03</pdfrwt>
<pdfrwt beam="1">  1       -3 0.19066363E-01 0.10448208E+03</pdfrwt>
<totfact> 0.21747372E+04</totfact>
</mgrwt>
</event>
<event>
 7    1  0.1312339E-009  0.9330983E+02  0.7818608E-02  0.1295029E+00
         -3   -1    0    0    0  501 -0.00000000000E+00  0.00000000000E+00  0.12216921745E+02  0.12217339232E+02  0.10100000000E+00 0.  1.
          3   -1    0    0  501    0  0.00000000000E+00 -0.00000000000E+00 -0.17816589478E+03  0.17816592341E+03  0.10100000000E+00 0. -1.
         23    2    1    2    0    0  0.00000000000E+00  0.00000000000E+00 -0.16594897304E+03  0.19038326264E+03  0.93309833577E+02 0.  0.
    9000005    2    3    3    0    0  0.22927575536E+02 -0.16529850622E+02 -0.85998797504E+01  0.30515671055E+02  0.76379687540E+01 0.  0.
         22    1    3    3    0    0 -0.22927575536E+02  0.16529850622E+02 -0.15734909329E+03  0.15986759159E+03  0.00000000000E+00 0. -1.
         22    1    4    4    0    0  0.93411108984E+01 -0.24642993990E+01 -0.37856373294E+01  0.10375942094E+02  0.00000000000E+00 0.  1.
         22    1    4    4    0    0  0.13586464638E+02 -0.14065551223E+02 -0.48142424210E+01  0.20139728961E+02  0.00000000000E+00 0.  1.
<mgrwt>
<rscale>  0 0.93309834E+02</rscale>
<asrwt>0</asrwt>
<pdfrwt beam="2">  1        3 0.27410170E-01 0.93309834E+02</pdfrwt>
<pdfrwt beam="1">  1       -3 0.18795609E-02 0.93309834E+02</pdfrwt>
<totfact> 0.27243610E+04</totfact>
</mgrwt>
</event>
<event>
 7    1  0.1312339E-009  0.9341736E+02  0.7818608E-02  0.1294781E+00
          3   -1    0    0  501    0  0.00000000000E+00  0.00000000000E+00  0.10851008743E+03  0.10851013444E+03  0.10100000000E+00 0. -1.
         -3   -1    0    0    0  501 -0.00000000000E+00 -0.00000000000E+00 -0.20105792516E+02  0.20106046198E+02  0.10100000000E+00 0.  1.
         23    2    1    2    0    0  0.00000000000E+00  0.00000000000E+00  0.88404294915E+02  0.12861618063E+03  0.93417356854E+02 0.  0.
    9000005    2    3    3    0    0  0.37947975495E+02  0.23636028077E+02  0.59604344025E+02  0.75435847439E+02  0.11797397375E+02 0.  0.
         22    1    3    3    0    0 -0.37947975495E+02 -0.23636028077E+02  0.28799950891E+02  0.53180333195E+02  0.00000000000E+00 0.  1.
         22    1    4    4    0    0  0.28665999444E+02  0.11334822441E+02  0.40023983482E+02  0.50518679492E+02  0.00000000000E+00 0. -1.
         22    1    4    4    0    0  0.92819760513E+01  0.12301205635E+02  0.19580360543E+02  0.24917167947E+02  0.00000000000E+00 0. -1.
<mgrwt>
<rscale>  0 0.93417357E+02</rscale>
<asrwt>0</asrwt>
<pdfrwt beam="1">  1        3 0.16693883E-01 0.93417357E+02</pdfrwt>
<pdfrwt beam="2">  1       -3 0.30932220E-02 0.93417357E+02</pdfrwt>
<totfact> 0.30578475E+04</totfact>
</mgrwt>
</event>
<event>
 7    1  0.1312339E-009  0.9285431E+02  0.7818608E-02  0.1296083E+00
          3   -1    0    0  501    0  0.00000000000E+00  0.00000000000E+00  0.54748671732E+02  0.54748764894E+02  0.10100000000E+00 0. -1.
         -3   -1    0    0    0  501 -0.00000000000E+00 -0.00000000000E+00 -0.39370276344E+02  0.39370405896E+02  0.10100000000E+00 0.  1.
         23    2    1    2    0    0 -0.71054273576E-14 -0.17763568394E-14  0.15378395388E+02  0.94119170790E+02  0.92854312046E+02 0.  0.
    9000005    2    3    3    0    0  0.39717308364E+02  0.82259512159E+01 -0.12817341258E+02  0.44721494507E+02  0.13805686398E+02 0.  0.
         22    1    3    3    0    0 -0.39717308364E+02 -0.82259512159E+01  0.28195736646E+02  0.49397676283E+02  0.00000000000E+00 0.  1.
         22    1    4    4    0    0  0.29651993956E+02  0.18396045655E+01 -0.13805934266E+02  0.32760169588E+02  0.00000000000E+00 0.  1.
         22    1    4    4    0    0  0.10065314408E+02  0.63863466504E+01  0.98859300732E+00  0.11961324919E+02  0.00000000000E+00 0.  1.
<mgrwt>
<rscale>  0 0.92854312E+02</rscale>
<asrwt>0</asrwt>
<pdfrwt beam="1">  1        3 0.84228897E-02 0.92854312E+02</pdfrwt>
<pdfrwt beam="2">  1       -3 0.60569827E-02 0.92854312E+02</pdfrwt>
<totfact> 0.33408537E+04</totfact>
</mgrwt>
</event>
<event>
 7    1  0.1312339E-009  0.8669022E+02  0.7818608E-02  0.1311071E+00
         -3   -1    0    0    0  501 -0.00000000000E+00  0.00000000000E+00  0.48718442292E+01  0.48728910508E+01  0.10100000000E+00 0.  1.
          3   -1    0    0  501    0  0.00000000000E+00 -0.00000000000E+00 -0.38560171321E+03  0.38560172643E+03  0.10100000000E+00 0. -1.
         23    2    1    2    0    0  0.00000000000E+00  0.00000000000E+00 -0.38072986898E+03  0.39047461748E+03  0.86690217259E+02 0.  0.
    9000005    2    3    3    0    0 -0.40696624876E+02 -0.95053416200E+01 -0.17262242611E+03  0.17821233970E+03  0.14648181725E+02 0.  0.
         22    1    3    3    0    0  0.40696624876E+02  0.95053416200E+01 -0.20810744287E+03  0.21226227779E+03  0.00000000000E+00 0. -1.
         22    1    4    4    0    0 -0.99611051403E+01  0.27778103206E+01 -0.57658430237E+02  0.58578446746E+02  0.00000000000E+00 0. -1.
         22    1    4    4    0    0 -0.30735519736E+02 -0.12283151941E+02 -0.11496399587E+03  0.11963389295E+03  0.00000000000E+00 0. -1.
<mgrwt>
<rscale>  0 0.86690217E+02</rscale>
<asrwt>0</asrwt>
<pdfrwt beam="2">  1        3 0.59323398E-01 0.86690217E+02</pdfrwt>
<pdfrwt beam="1">  1       -3 0.74959635E-03 0.86690217E+02</pdfrwt>
<totfact> 0.23914225E+04</totfact>
</mgrwt>
</event>
<event>
 7    1  0.1312339E-009  0.9001992E+02  0.7818608E-02  0.1302803E+00
         -3   -1    0    0    0  501 -0.00000000000E+00  0.00000000000E+00  0.10157288089E+03  0.10157293111E+03  0.10100000000E+00 0.  1.
          3   -1    0    0  501    0  0.00000000000E+00 -0.00000000000E+00 -0.19945064894E+02  0.19945320620E+02  0.10100000000E+00 0. -1.
         23    2    1    2    0    0  0.00000000000E+00  0.00000000000E+00  0.81627815997E+02  0.12151825173E+03  0.90019915342E+02 0.  0.
    9000005    2    3    3    0    0 -0.83271564983E+01 -0.40560868520E+02  0.21534376876E+02  0.48540535841E+02  0.13338989536E+02 0.  0.
         22    1    3    3    0    0  0.83271564983E+01  0.40560868520E+02  0.60093439121E+02  0.72977715885E+02  0.00000000000E+00 0. -1.
         22    1    4    4    0    0 -0.71687105912E+01 -0.26846092461E+02  0.20887163128E+02  0.34761712782E+02  0.00000000000E+00 0. -1.
         22    1    4    4    0    0 -0.11584459071E+01 -0.13714776059E+02  0.64721374783E+00  0.13778823059E+02  0.00000000000E+00 0. -1.
<mgrwt>
<rscale>  0 0.90019915E+02</rscale>
<asrwt>0</asrwt>
<pdfrwt beam="2">  1        3 0.30684950E-02 0.90019915E+02</pdfrwt>
<pdfrwt beam="1">  1       -3 0.15626621E-01 0.90019915E+02</pdfrwt>
<totfact> 0.34311580E+04</totfact>
</mgrwt>
</event>
<event>
 7    1  0.1312339E-009  0.9135837E+02  0.7818608E-02  0.1299595E+00
          3   -1    0    0  501    0  0.00000000000E+00  0.00000000000E+00  0.11734737671E+03  0.11734742018E+03  0.10100000000E+00 0. -1.
         -3   -1    0    0    0  501 -0.00000000000E+00 -0.00000000000E+00 -0.17781101558E+02  0.17781388405E+02  0.10100000000E+00 0.  1.
         23    2    1    2    0    0  0.88817841970E-15  0.00000000000E+00  0.99566275153E+02  0.13512880858E+03  0.91358369953E+02 0.  0.
    9000005    2    3    3    0    0  0.40831558506E+01 -0.12699454862E+02  0.11434085707E+03  0.11522311627E+03  0.49584887880E+01 0.  0.
         22    1    3    3    0    0 -0.40831558506E+01  0.12699454862E+02 -0.14774581920E+02  0.19905692311E+02  0.00000000000E+00 0.  1.
         22    1    4    4    0    0  0.35604578839E+01 -0.58404427911E+01  0.41699979871E+02  0.42257259182E+02  0.00000000000E+00 0. -1.
         22    1    4    4    0    0  0.52269796662E+00 -0.68590120705E+01  0.72640877202E+02  0.72965857087E+02  0.00000000000E+00 0. -1.
<mgrwt>
<rscale>  0 0.91358370E+02</rscale>
<asrwt>0</asrwt>
<pdfrwt beam="1">  1        3 0.18053468E-01 0.91358370E+02</pdfrwt>
<pdfrwt beam="2">  1       -3 0.27355795E-02 0.91358370E+02</pdfrwt>
<totfact> 0.32067978E+04</totfact>
</mgrwt>
</event>
<event>
 7    1  0.1312339E-009  0.9100448E+02  0.7818608E-02  0.1300437E+00
          3   -1    0    0  501    0  0.00000000000E+00  0.00000000000E+00  0.25453802200E+03  0.25453804203E+03  0.10100000000E+00 0. -1.
         -3   -1    0    0    0  501 -0.00000000000E+00 -0.00000000000E+00 -0.81338302794E+01  0.81344573276E+01  0.10100000000E+00 0.  1.
         23    2    1    2    0    0  0.00000000000E+00  0.00000000000E+00  0.24640419172E+03  0.26267249936E+03  0.91004484645E+02 0.  0.
    9000005    2    3    3    0    0  0.21539053241E+02  0.35414138877E+02  0.79358959076E+02  0.90561483460E+02  0.13617850559E+02 0.  0.
         22    1    3    3    0    0 -0.21539053241E+02 -0.35414138877E+02  0.16704523264E+03  0.17211101590E+03  0.00000000000E+00 0. -1.
         22    1    4    4    0    0  0.17325329324E+02  0.29276836212E+02  0.73822577148E+02  0.81283904136E+02  0.00000000000E+00 0. -1.
         22    1    4    4    0    0  0.42137239171E+01  0.61373026656E+01  0.55363819274E+01  0.92775793235E+01  0.00000000000E+00 0. -1.
<mgrwt>
<rscale>  0 0.91004485E+02</rscale>
<asrwt>0</asrwt>
<pdfrwt beam="1">  1        3 0.39159745E-01 0.91004485E+02</pdfrwt>
<pdfrwt beam="2">  1       -3 0.12514083E-02 0.91004485E+02</pdfrwt>
<totfact> 0.25681534E+04</totfact>
</mgrwt>
</event>
<event>
 7    1  0.1312339E-009  0.9295046E+02  0.7818608E-02  0.1295860E+00
         -3   -1    0    0    0  501 -0.00000000000E+00  0.00000000000E+00  0.65149684775E+02  0.65149763064E+02  0.10100000000E+00 0.  1.
          3   -1    0    0  501    0  0.00000000000E+00 -0.00000000000E+00 -0.33153428784E+02  0.33153582629E+02  0.10100000000E+00 0. -1.
         23    2    1    2    0    0  0.00000000000E+00  0.00000000000E+00  0.31996255991E+02  0.98303345694E+02  0.92950456573E+02 0.  0.
    9000005    2    3    3    0    0 -0.37896794832E+02  0.95641116522E+01 -0.89599653883E+01  0.41690172669E+02  0.11408340246E+02 0.  0.
         22    1    3    3    0    0  0.37896794832E+02 -0.95641116522E+01  0.40956221379E+02  0.56613173025E+02  0.00000000000E+00 0.  1.
         22    1    4    4    0    0 -0.32967643198E+02  0.43514419498E+01 -0.92305481236E+01  0.34510919485E+02  0.00000000000E+00 0.  1.
         22    1    4    4    0    0 -0.49291516346E+01  0.52126697024E+01  0.27058273530E+00  0.71792531840E+01  0.00000000000E+00 0.  1.
<mgrwt>
<rscale>  0 0.92950457E+02</rscale>
<asrwt>0</asrwt>
<pdfrwt beam="2">  1        3 0.51005454E-02 0.92950457E+02</pdfrwt>
<pdfrwt beam="1">  1       -3 0.10023046E-01 0.92950457E+02</pdfrwt>
<totfact> 0.33015650E+04</totfact>
</mgrwt>
</event>
<event>
 7    1  0.1312339E-009  0.9296895E+02  0.7818608E-02  0.1295817E+00
          3   -1    0    0  501    0  0.00000000000E+00  0.00000000000E+00  0.67411055024E+02  0.67411130686E+02  0.10100000000E+00 0. -1.
         -3   -1    0    0    0  501 -0.00000000000E+00 -0.00000000000E+00 -0.32054009023E+02  0.32054168145E+02  0.10100000000E+00 0.  1.
         23    2    1    2    0    0  0.00000000000E+00  0.00000000000E+00  0.35357046000E+02  0.99465298832E+02  0.92968946266E+02 0.  0.
    9000005    2    3    3    0    0  0.31385750009E+02  0.19082856295E+02  0.48124186228E+02  0.60578018423E+02  0.21303304797E+01 0.  0.
         22    1    3    3    0    0 -0.31385750009E+02 -0.19082856295E+02 -0.12767140227E+02  0.38887280409E+02  0.00000000000E+00 0.  1.
         22    1    4    4    0    0  0.31365496145E+02  0.19126691294E+02  0.48003272584E+02  0.60447819209E+02  0.00000000000E+00 0.  1.
         22    1    4    4    0    0  0.20253864080E-01 -0.43834999444E-01  0.12091364333E+00  0.13019921402E+00  0.00000000000E+00 0.  1.
<mgrwt>
<rscale>  0 0.92968946E+02</rscale>
<asrwt>0</asrwt>
<pdfrwt beam="1">  1        3 0.10370949E-01 0.92968946E+02</pdfrwt>
<pdfrwt beam="2">  1       -3 0.49314041E-02 0.92968946E+02</pdfrwt>
<totfact> 0.32914705E+04</totfact>
</mgrwt>
</event>
<event>
 7    1  0.1312339E-009  0.8930179E+02  0.7818608E-02  0.1304551E+00
         -3   -1    0    0    0  501 -0.00000000000E+00  0.00000000000E+00  0.82585259335E+03  0.82585259953E+03  0.10100000000E+00 0.  1.
          3   -1    0    0  501    0  0.00000000000E+00 -0.00000000000E+00 -0.24130517773E+01  0.24151645658E+01  0.10100000000E+00 0. -1.
         23    2    1    2    0    0  0.00000000000E+00  0.00000000000E+00  0.82343954157E+03  0.82826776409E+03  0.89301793981E+02 0.  0.
    9000005    2    3    3    0    0  0.36833568329E+02 -0.41591637359E+01  0.64197675593E+03  0.64305774014E+03  0.38847910180E+01 0.  0.
         22    1    3    3    0    0 -0.36833568329E+02  0.41591637359E+01  0.18146278564E+03  0.18521002395E+03  0.00000000000E+00 0. -1.
         22    1    4    4    0    0  0.17139124718E+01 -0.17996703603E+00  0.47470292534E+02  0.47501563736E+02  0.00000000000E+00 0.  1.
         22    1    4    4    0    0  0.35119655857E+02 -0.39791966999E+01  0.59450646340E+03  0.59555617641E+03  0.00000000000E+00 0.  1.
<mgrwt>
<rscale>  0 0.89301794E+02</rscale>
<asrwt>0</asrwt>
<pdfrwt beam="2">  1        3 0.37140149E-03 0.89301794E+02</pdfrwt>
<pdfrwt beam="1">  1       -3 0.12705449E+00 0.89301794E+02</pdfrwt>
<totfact> 0.12669253E+04</totfact>
</mgrwt>
</event>
<event>
 7    1  0.1312339E-009  0.9266928E+02  0.7818608E-02  0.1296513E+00
         -3   -1    0    0    0  501 -0.00000000000E+00  0.00000000000E+00  0.32551298057E+02  0.32551454747E+02  0.10100000000E+00 0.  1.
          3   -1    0    0  501    0  0.00000000000E+00 -0.00000000000E+00 -0.65953968744E+02  0.65954046078E+02  0.10100000000E+00 0. -1.
         23    2    1    2    0    0  0.00000000000E+00  0.00000000000E+00 -0.33402670688E+02  0.98505500826E+02  0.92669279073E+02 0.  0.
    9000005    2    3    3    0    0 -0.16649278627E+02 -0.33242520775E+02  0.10251946181E+02  0.41164509901E+02  0.14392734576E+02 0.  0.
         22    1    3    3    0    0  0.16649278627E+02  0.33242520775E+02 -0.43654616869E+02  0.57340990925E+02  0.00000000000E+00 0. -1.
         22    1    4    4    0    0 -0.11814489469E+02 -0.31093331727E+02  0.12338512785E+02  0.35476983201E+02  0.00000000000E+00 0.  1.
         22    1    4    4    0    0 -0.48347891582E+01 -0.21491890480E+01 -0.20865666034E+01  0.56875266996E+01  0.00000000000E+00 0.  1.
<mgrwt>
<rscale>  0 0.92669279E+02</rscale>
<asrwt>0</asrwt>
<pdfrwt beam="2">  1        3 0.10146782E-01 0.92669279E+02</pdfrwt>
<pdfrwt beam="1">  1       -3 0.50079100E-02 0.92669279E+02</pdfrwt>
<totfact> 0.33274585E+04</totfact>
</mgrwt>
</event>
<event>
 7    1  0.1312339E-009  0.9702460E+02  0.7818608E-02  0.1286680E+00
         -3   -1    0    0    0  501 -0.00000000000E+00  0.00000000000E+00  0.41895398805E+02  0.41895520549E+02  0.10100000000E+00 0.  1.
          3   -1    0    0  501    0  0.00000000000E+00 -0.00000000000E+00 -0.56174018242E+02  0.56174109040E+02  0.10100000000E+00 0. -1.
         23    2    1    2    0    0  0.00000000000E+00  0.00000000000E+00 -0.14278619437E+02  0.98069629589E+02  0.97024601389E+02 0.  0.
    9000005    2    3    3    0    0  0.39978649649E+02 -0.22121301605E+02 -0.22286637185E+02  0.51682424880E+02  0.93131322333E+01 0.  0.
         22    1    3    3    0    0 -0.39978649649E+02  0.22121301605E+02  0.80080177477E+01  0.46387204709E+02  0.00000000000E+00 0.  1.
         22    1    4    4    0    0  0.26402672789E+02 -0.16707861540E+02 -0.10683413532E+02  0.33021040146E+02  0.00000000000E+00 0. -1.
         22    1    4    4    0    0  0.13575976860E+02 -0.54134400657E+01 -0.11603223653E+02  0.18661384734E+02  0.00000000000E+00 0. -1.
<mgrwt>
<rscale>  0 0.97024601E+02</rscale>
<asrwt>0</asrwt>
<pdfrwt beam="2">  1        3 0.86421730E-02 0.97024601E+02</pdfrwt>
<pdfrwt beam="1">  1       -3 0.64454623E-02 0.97024601E+02</pdfrwt>
<totfact> 0.29370477E+04</totfact>
</mgrwt>
</event>
<event>
 7    1  0.1312339E-009  0.9157438E+02  0.7818608E-02  0.1299083E+00
         -3   -1    0    0    0  501 -0.00000000000E+00  0.00000000000E+00  0.20047329331E+02  0.20047583753E+02  0.10100000000E+00 0.  1.
          3   -1    0    0  501    0  0.00000000000E+00 -0.00000000000E+00 -0.10457491754E+03  0.10457496631E+03  0.10100000000E+00 0. -1.
         23    2    1    2    0    0 -0.44408920985E-15 -0.35527136788E-14 -0.84527588207E+02  0.12462255006E+03  0.91574378603E+02 0.  0.
    9000005    2    3    3    0    0 -0.30448407849E+01  0.21520904717E+02 -0.96876596071E+02  0.99624182309E+02  0.82147695819E+01 0.  0.
         22    1    3    3    0    0  0.30448407849E+01 -0.21520904717E+02  0.12349007863E+02  0.24998367756E+02  0.00000000000E+00 0.  1.
         22    1    4    4    0    0  0.35212785377E+00  0.18880011952E+02 -0.76231557175E+02  0.78535527977E+02  0.00000000000E+00 0.  1.
         22    1    4    4    0    0 -0.33969686386E+01  0.26408927650E+01 -0.20645038896E+02  0.21088654332E+02  0.00000000000E+00 0.  1.
<mgrwt>
<rscale>  0 0.91574379E+02</rscale>
<asrwt>0</asrwt>
<pdfrwt beam="2">  1        3 0.16088472E-01 0.91574379E+02</pdfrwt>
<pdfrwt beam="1">  1       -3 0.30842279E-02 0.91574379E+02</pdfrwt>
<totfact> 0.32545687E+04</totfact>
</mgrwt>
</event>
<event>
 7    1  0.1312339E-009  0.9245674E+02  0.7818608E-02  0.1297009E+00
         -3   -1    0    0    0  501 -0.00000000000E+00  0.00000000000E+00  0.16618404297E+02  0.16618711212E+02  0.10100000000E+00 0.  1.
          3   -1    0    0  501    0  0.00000000000E+00 -0.00000000000E+00 -0.12859459512E+03  0.12859463478E+03  0.10100000000E+00 0. -1.
         23    2    1    2    0    0  0.00000000000E+00 -0.17763568394E-14 -0.11197619082E+03  0.14521334599E+03  0.92456738768E+02 0.  0.
    9000005    2    3    3    0    0 -0.32871874272E+02 -0.82094155923E+01 -0.80321290448E+01  0.35886667634E+02  0.86823495902E+01 0.  0.
         22    1    3    3    0    0  0.32871874272E+02  0.82094155923E+01 -0.10394406177E+03  0.10932667836E+03  0.00000000000E+00 0. -1.
         22    1    4    4    0    0 -0.23547339983E+02 -0.47654900679E+01 -0.16655280694E+01  0.24082381519E+02  0.00000000000E+00 0. -1.
         22    1    4    4    0    0 -0.93245342883E+01 -0.34439255244E+01 -0.63666009755E+01  0.11804286115E+02  0.00000000000E+00 0. -1.
<mgrwt>
<rscale>  0 0.92456739E+02</rscale>
<asrwt>0</asrwt>
<pdfrwt beam="2">  1        3 0.19783810E-01 0.92456739E+02</pdfrwt>
<pdfrwt beam="1">  1       -3 0.25567043E-02 0.92456739E+02</pdfrwt>
<totfact> 0.30428501E+04</totfact>
</mgrwt>
</event>
<event>
 6    1  0.1312339E-009  0.2286972E+03  0.7818608E-02  0.1127560E+00
         -3   -1    0    0    0  501 -0.00000000000E+00  0.00000000000E+00  0.11397157030E+02  0.11397604545E+02  0.10100000000E+00 0.  1.
          3   -1    0    0  501    0  0.00000000000E+00 -0.00000000000E+00 -0.11472461911E+04  0.11472461955E+04  0.10100000000E+00 0. -1.
    9000005    2    1    2    0    0 -0.74427515786E+02 -0.56506873129E+02 -0.90176904175E+03  0.90660030261E+03  0.20548032139E+01 0.  0.
         22    1    1    2    0    0  0.74427515786E+02  0.56506873129E+02 -0.23407999229E+03  0.25204349745E+03  0.00000000000E+00 0.  1.
         22    1    3    3    0    0 -0.97889368704E+01 -0.68509534709E+01 -0.11046142350E+03  0.11110573762E+03  0.00000000000E+00 0.  1.
         22    1    3    3    0    0 -0.64638578915E+02 -0.49655919658E+02 -0.79130761825E+03  0.79549456500E+03  0.00000000000E+00 0.  1.
<mgrwt>
<rscale>  0 0.22869724E+03</rscale>
<asrwt>0</asrwt>
<pdfrwt beam="2">  1        3 0.17649936E+00 0.22869724E+03</pdfrwt>
<pdfrwt beam="1">  1       -3 0.17534444E-02 0.22869724E+03</pdfrwt>
<totfact> 0.65524207E+02</totfact>
</mgrwt>
</event>
<event>
 7    1  0.1312339E-009  0.9044770E+02  0.7818608E-02  0.1301771E+00
          3   -1    0    0  501    0  0.00000000000E+00  0.00000000000E+00  0.59193058655E+01  0.59201674747E+01  0.10100000000E+00 0. -1.
         -3   -1    0    0    0  501 -0.00000000000E+00 -0.00000000000E+00 -0.34548687921E+03  0.34548689397E+03  0.10100000000E+00 0.  1.
         23    2    1    2    0    0 -0.88817841970E-15  0.00000000000E+00 -0.33956757334E+03  0.35140706145E+03  0.90447697419E+02 0.  0.
    9000005    2    3    3    0    0  0.71303268269E+01 -0.14877916391E+02 -0.33297875485E+03  0.33364174451E+03  0.13029525701E+02 0.  0.
         22    1    3    3    0    0 -0.71303268269E+01  0.14877916391E+02 -0.65888184932E+01  0.17765316939E+02  0.00000000000E+00 0. -1.
         22    1    4    4    0    0 -0.19735419024E+01  0.81246841434E+00 -0.72844882272E+02  0.72876140442E+02  0.00000000000E+00 0. -1.
         22    1    4    4    0    0  0.91038687293E+01 -0.15690384805E+02 -0.26013387258E+03  0.26076560407E+03  0.00000000000E+00 0. -1.
<mgrwt>
<rscale>  0 0.90447697E+02</rscale>
<asrwt>0</asrwt>
<pdfrwt beam="1">  1        3 0.91073012E-03 0.90447697E+02</pdfrwt>
<pdfrwt beam="2">  1       -3 0.53151879E-01 0.90447697E+02</pdfrwt>
<totfact> 0.22639266E+04</totfact>
</mgrwt>
</event>
<event>
 7    1  0.1312339E-009  0.9077106E+02  0.7818608E-02  0.1300995E+00
         -3   -1    0    0    0  501 -0.00000000000E+00  0.00000000000E+00  0.10617928302E+03  0.10617933106E+03  0.10100000000E+00 0.  1.
          3   -1    0    0  501    0  0.00000000000E+00 -0.00000000000E+00 -0.19399515009E+02  0.19399777927E+02  0.10100000000E+00 0. -1.
         23    2    1    2    0    0 -0.71054273576E-14  0.00000000000E+00  0.86779768011E+02  0.12557910898E+03  0.90771055282E+02 0.  0.
    9000005    2    3    3    0    0  0.34948072714E+02  0.26745882431E+02  0.38858644078E+02  0.60516491972E+02  0.14681333985E+02 0.  0.
         22    1    3    3    0    0 -0.34948072714E+02 -0.26745882431E+02  0.47921123933E+02  0.65062617012E+02  0.00000000000E+00 0.  1.
         22    1    4    4    0    0  0.31556783709E+02  0.22321372975E+02  0.26231877161E+02  0.46713870198E+02  0.00000000000E+00 0. -1.
         22    1    4    4    0    0  0.33912890049E+01  0.44245094558E+01  0.12626766917E+02  0.13802621773E+02  0.00000000000E+00 0. -1.
<mgrwt>
<rscale>  0 0.90771055E+02</rscale>
<asrwt>0</asrwt>
<pdfrwt beam="2">  1        3 0.29845647E-02 0.90771055E+02</pdfrwt>
<pdfrwt beam="1">  1       -3 0.16335298E-01 0.90771055E+02</pdfrwt>
<totfact> 0.33270803E+04</totfact>
</mgrwt>
</event>
<event>
 7    1  0.1312339E-009  0.9659200E+02  0.7818608E-02  0.1287630E+00
          3   -1    0    0  501    0  0.00000000000E+00  0.00000000000E+00  0.24192869705E+01  0.24213943185E+01  0.10100000000E+00 0. -1.
         -3   -1    0    0    0  501 -0.00000000000E+00 -0.00000000000E+00 -0.96370668278E+03  0.96370668807E+03  0.10100000000E+00 0.  1.
         23    2    1    2    0    0 -0.35527136788E-14 -0.35527136788E-14 -0.96128739580E+03  0.96612808239E+03  0.96591998853E+02 0.  0.
    9000005    2    3    3    0    0 -0.31090699702E+02 -0.27013730739E+02 -0.72329564610E+03  0.72459869249E+03  0.13794935088E+02 0.  0.
         22    1    3    3    0    0  0.31090699702E+02  0.27013730739E+02 -0.23799174971E+03  0.24152938990E+03  0.00000000000E+00 0. -1.
         22    1    4    4    0    0 -0.13571172728E+02 -0.19629474441E+02 -0.34391482344E+03  0.34474178566E+03  0.00000000000E+00 0. -1.
         22    1    4    4    0    0 -0.17519526974E+02 -0.73842562975E+01 -0.37938082265E+03  0.37985690683E+03  0.00000000000E+00 0. -1.
<mgrwt>
<rscale>  0 0.96591999E+02</rscale>
<asrwt>0</asrwt>
<pdfrwt beam="1">  1        3 0.37236127E-03 0.96591999E+02</pdfrwt>
<pdfrwt beam="2">  1       -3 0.14826242E+00 0.96591999E+02</pdfrwt>
<totfact> 0.88630073E+03</totfact>
</mgrwt>
</event>
<event>
 7    1  0.1312339E-009  0.9091447E+02  0.7818608E-02  0.1300652E+00
          3   -1    0    0  501    0  0.00000000000E+00  0.00000000000E+00  0.66835471012E+01  0.66843102004E+01  0.10100000000E+00 0. -1.
         -3   -1    0    0    0  501 -0.00000000000E+00 -0.00000000000E+00 -0.30915277386E+03  0.30915279036E+03  0.10100000000E+00 0.  1.
         23    2    1    2    0    0  0.00000000000E+00  0.00000000000E+00 -0.30246922676E+03  0.31583710056E+03  0.90914470539E+02 0.  0.
    9000005    2    3    3    0    0 -0.18700330633E+02  0.22867651097E+02 -0.26999066938E+03  0.27193392844E+03  0.13433839867E+02 0.  0.
         22    1    3    3    0    0  0.18700330633E+02 -0.22867651097E+02 -0.32478557382E+02  0.43903172119E+02  0.00000000000E+00 0. -1.
         22    1    4    4    0    0 -0.13074740922E+02  0.54978204064E+01 -0.12136335552E+03  0.12218935692E+03  0.00000000000E+00 0. -1.
         22    1    4    4    0    0 -0.56255897113E+01  0.17369830691E+02 -0.14862731386E+03  0.14974457153E+03  0.00000000000E+00 0. -1.
<mgrwt>
<rscale>  0 0.90914471E+02</rscale>
<asrwt>0</asrwt>
<pdfrwt beam="1">  1        3 0.10282982E-02 0.90914471E+02</pdfrwt>
<pdfrwt beam="2">  1       -3 0.47562014E-01 0.90914471E+02</pdfrwt>
<totfact> 0.23604115E+04</totfact>
</mgrwt>
</event>
<event>
 7    1  0.1312339E-009  0.9077218E+02  0.7818608E-02  0.1300992E+00
          3   -1    0    0  501    0  0.00000000000E+00  0.00000000000E+00  0.90090370405E+02  0.90090427020E+02  0.10100000000E+00 0. -1.
         -3   -1    0    0    0  501 -0.00000000000E+00 -0.00000000000E+00 -0.22864611157E+02  0.22864834230E+02  0.10100000000E+00 0.  1.
         23    2    1    2    0    0 -0.17763568394E-14  0.17763568394E-14  0.67225759248E+02  0.11295526125E+03  0.90772178213E+02 0.  0.
    9000005    2    3    3    0    0  0.14448935339E+02 -0.91150896297E+01 -0.18597885314E+02  0.25447806955E+02  0.31389407898E+01 0.  0.
         22    1    3    3    0    0 -0.14448935339E+02  0.91150896297E+01  0.85823644561E+02  0.87507454295E+02  0.00000000000E+00 0. -1.
         22    1    4    4    0    0  0.12256297819E+02 -0.89254293940E+01 -0.16478039044E+02  0.22392094516E+02  0.00000000000E+00 0. -1.
         22    1    4    4    0    0  0.21926375203E+01 -0.18966023570E+00 -0.21198462697E+01  0.30557124386E+01  0.00000000000E+00 0. -1.
<mgrwt>
<rscale>  0 0.90772178E+02</rscale>
<asrwt>0</asrwt>
<pdfrwt beam="1">  1        3 0.13860079E-01 0.90772178E+02</pdfrwt>
<pdfrwt beam="2">  1       -3 0.35176540E-02 0.90772178E+02</pdfrwt>
<totfact> 0.34145153E+04</totfact>
</mgrwt>
</event>
<event>
 7    1  0.1312339E-009  0.9029517E+02  0.7818608E-02  0.1302138E+00
          3   -1    0    0  501    0  0.00000000000E+00  0.00000000000E+00  0.12908640390E+02  0.12909035507E+02  0.10100000000E+00 0. -1.
         -3   -1    0    0    0  501 -0.00000000000E+00 -0.00000000000E+00 -0.15789951615E+03  0.15789954845E+03  0.10100000000E+00 0.  1.
         23    2    1    2    0    0  0.00000000000E+00  0.00000000000E+00 -0.14499087576E+03  0.17080858396E+03  0.90295173186E+02 0.  0.
    9000005    2    3    3    0    0 -0.16865919971E+02  0.17725522626E+02 -0.14413617079E+03  0.14632626525E+03  0.61226436324E+01 0.  0.
         22    1    3    3    0    0  0.16865919971E+02 -0.17725522626E+02 -0.85470497702E+00  0.24482318710E+02  0.00000000000E+00 0. -1.
         22    1    4    4    0    0 -0.14740595514E+01  0.22888703674E+01 -0.78728446316E+01  0.83302738078E+01  0.00000000000E+00 0.  1.
         22    1    4    4    0    0 -0.15391860420E+02  0.15436652258E+02 -0.13626332615E+03  0.13799599144E+03  0.00000000000E+00 0.  1.
<mgrwt>
<rscale>  0 0.90295173E+02</rscale>
<asrwt>0</asrwt>
<pdfrwt beam="1">  1        3 0.19859777E-02 0.90295173E+02</pdfrwt>
<pdfrwt beam="2">  1       -3 0.24292265E-01 0.90295173E+02</pdfrwt>
<totfact> 0.30880095E+04</totfact>
</mgrwt>
</event>
<event>
 7    1  0.1312339E-009  0.1008943E+03  0.7818608E-02  0.1278426E+00
          3   -1    0    0  501    0  0.00000000000E+00  0.00000000000E+00  0.77064663977E+03  0.77064664639E+03  0.10100000000E+00 0. -1.
         -3   -1    0    0    0  501 -0.00000000000E+00 -0.00000000000E+00 -0.33015330123E+01  0.33030775394E+01  0.10100000000E+00 0.  1.
         23    2    1    2    0    0  0.00000000000E+00  0.00000000000E+00  0.76734510676E+03  0.77394972393E+03  0.10089431254E+03 0.  0.
    9000005    2    3    3    0    0 -0.12756248163E+02 -0.46286440145E+02  0.48798001405E+03  0.49048894810E+03  0.12237552408E+02 0.  0.
         22    1    3    3    0    0  0.12756248163E+02  0.46286440145E+02  0.27936509270E+03  0.28346077582E+03  0.00000000000E+00 0.  1.
         22    1    4    4    0    0 -0.96445897577E+01 -0.26272219166E+02  0.22581306516E+03  0.22754073923E+03  0.00000000000E+00 0. -1.
         22    1    4    4    0    0 -0.31116584054E+01 -0.20014220979E+02  0.26216694889E+03  0.26294820887E+03  0.00000000000E+00 0. -1.
<mgrwt>
<rscale>  0 0.10089431E+03</rscale>
<asrwt>0</asrwt>
<pdfrwt beam="1">  1        3 0.11856115E+00 0.10089431E+03</pdfrwt>
<pdfrwt beam="2">  1       -3 0.50804742E-03 0.10089431E+03</pdfrwt>
<totfact> 0.97489559E+03</totfact>
</mgrwt>
</event>
<event>
 7    1  0.1321810E-009  0.9201422E+02  0.7818608E-02  0.1298046E+00
          3   -1    0    0  501    0  0.00000000000E+00  0.00000000000E+00  0.38711582199E+02  0.38711713955E+02  0.10100000000E+00 0. -1.
         -3   -1    0    0    0  501 -0.00000000000E+00 -0.00000000000E+00 -0.54677268351E+02  0.54677361635E+02  0.10100000000E+00 0.  1.
         23    2    1    2    0    0  0.35527136788E-14  0.00000000000E+00 -0.15965686152E+02  0.93389075591E+02  0.92014217952E+02 0.  0.
    9000005    2    3    3    0    0 -0.18875406294E+02  0.16421314340E+02  0.29535590113E+02  0.41463102618E+02  0.14862613096E+02 0.  0.
         22    1    3    3    0    0  0.18875406294E+02 -0.16421314340E+02 -0.45501276265E+02  0.51925972972E+02  0.00000000000E+00 0.  1.
         22    1    4    4    0    0  0.60792416629E+00  0.77244080903E+01  0.84822390852E+01  0.11488447764E+02  0.00000000000E+00 0.  1.
         22    1    4    4    0    0 -0.19483330460E+02  0.86969062495E+01  0.21053351027E+02  0.29974654854E+02  0.00000000000E+00 0.  1.
<mgrwt>
<rscale>  0 0.92014218E+02</rscale>
<asrwt>0</asrwt>
<pdfrwt beam="1">  1        3 0.59556453E-02 0.92014218E+02</pdfrwt>
<pdfrwt beam="2">  1       -3 0.84119048E-02 0.92014218E+02</pdfrwt>
<totfact> 0.34303161E+04</totfact>
</mgrwt>
</event>
<event>
 7    1  0.1312339E-009  0.9088225E+02  0.7818608E-02  0.1300729E+00
         -3   -1    0    0    0  501 -0.00000000000E+00  0.00000000000E+00  0.40983847467E+02  0.40983971918E+02  0.10100000000E+00 0.  1.
          3   -1    0    0  501    0  0.00000000000E+00 -0.00000000000E+00 -0.50382906000E+02  0.50383007235E+02  0.10100000000E+00 0. -1.
         23    2    1    2    0    0  0.00000000000E+00  0.35527136788E-14 -0.93990585333E+01  0.91366979153E+02  0.90882245672E+02 0.  0.
    9000005    2    3    3    0    0  0.97246906760E+01 -0.26415771970E+02 -0.40197328216E+02  0.49642932934E+02  0.74988650504E+01 0.  0.
         22    1    3    3    0    0 -0.97246906760E+01  0.26415771970E+02  0.30798269683E+02  0.41724046220E+02  0.00000000000E+00 0.  1.
         22    1    4    4    0    0  0.34725083561E+01 -0.52693314406E+01 -0.47586705984E+01  0.79037405055E+01  0.00000000000E+00 0. -1.
         22    1    4    4    0    0  0.62521823199E+01 -0.21146440529E+02 -0.35438657618E+02  0.41739192428E+02  0.00000000000E+00 0. -1.
<mgrwt>
<rscale>  0 0.90882246E+02</rscale>
<asrwt>0</asrwt>
<pdfrwt beam="2">  1        3 0.77512337E-02 0.90882246E+02</pdfrwt>
<pdfrwt beam="1">  1       -3 0.63052247E-02 0.90882246E+02</pdfrwt>
<totfact> 0.35636964E+04</totfact>
</mgrwt>
</event>
<event>
 7    1  0.1312339E-009  0.9136644E+02  0.7818608E-02  0.1299576E+00
         -3   -1    0    0    0  501 -0.00000000000E+00  0.00000000000E+00  0.86641072330E+01  0.86646959061E+01  0.10100000000E+00 0. -1.
          3   -1    0    0  501    0  0.00000000000E+00 -0.00000000000E+00 -0.24086505822E+03  0.24086507939E+03  0.10100000000E+00 0.  1.
         23    2    1    2    0    0  0.00000000000E+00 -0.35527136788E-14 -0.23220095098E+03  0.24952977530E+03  0.91366444184E+02 0.  0.
    9000005    2    3    3    0    0  0.36851270524E+02  0.25123449583E+02 -0.11127022282E+03  0.12063662237E+03  0.13525099325E+02 0.  0.
         22    1    3    3    0    0 -0.36851270524E+02 -0.25123449583E+02 -0.12093072816E+03  0.12889315293E+03  0.00000000000E+00 0.  1.
         22    1    4    4    0    0  0.21636359943E+02  0.11087639820E+02 -0.75392523774E+02  0.79215531743E+02  0.00000000000E+00 0.  1.
         22    1    4    4    0    0  0.15214910581E+02  0.14035809763E+02 -0.35877699044E+02  0.41421090623E+02  0.00000000000E+00 0.  1.
<mgrwt>
<rscale>  0 0.91366444E+02</rscale>
<asrwt>0</asrwt>
<pdfrwt beam="2">  1        3 0.37056205E-01 0.91366444E+02</pdfrwt>
<pdfrwt beam="1">  1       -3 0.13329867E-02 0.91366444E+02</pdfrwt>
<totfact> 0.25978902E+04</totfact>
</mgrwt>
</event>
<event>
 7    1  0.1312339E-009  0.9050473E+02  0.7818608E-02  0.1301634E+00
         -3   -1    0    0    0  501 -0.00000000000E+00  0.00000000000E+00  0.38200336597E+02  0.38200470116E+02  0.10100000000E+00 0.  1.
          3   -1    0    0  501    0  0.00000000000E+00 -0.00000000000E+00 -0.53605963064E+02  0.53606058212E+02  0.10100000000E+00 0. -1.
         23    2    1    2    0    0  0.00000000000E+00  0.00000000000E+00 -0.15405626467E+02  0.91806528328E+02  0.90504725384E+02 0.  0.
    9000005    2    3    3    0    0  0.14567913209E+02  0.15786209294E+02  0.31142437255E+02  0.40541035690E+02  0.14570369848E+02 0.  0.
         22    1    3    3    0    0 -0.14567913209E+02 -0.15786209294E+02 -0.46548063722E+02  0.51265492638E+02  0.00000000000E+00 0. -1.
         22    1    4    4    0    0  0.60708017574E+01  0.14862180076E+02  0.13652728172E+02  0.21074534802E+02  0.00000000000E+00 0.  1.
         22    1    4    4    0    0  0.84971114513E+01  0.92402921804E+00  0.17489709082E+02  0.19466500887E+02  0.00000000000E+00 0.  1.
<mgrwt>
<rscale>  0 0.90504725E+02</rscale>
<asrwt>0</asrwt>
<pdfrwt beam="2">  1        3 0.82470888E-02 0.90504725E+02</pdfrwt>
<pdfrwt beam="1">  1       -3 0.58769924E-02 0.90504725E+02</pdfrwt>
<totfact> 0.36007916E+04</totfact>
</mgrwt>
</event>
<event>
 7    1  0.1312339E-009  0.8606193E+02  0.7818608E-02  0.1312679E+00
         -3   -1    0    0    0  501 -0.00000000000E+00  0.00000000000E+00  0.24826341029E+02  0.24826546475E+02  0.10100000000E+00 0.  1.
          3   -1    0    0  501    0  0.00000000000E+00 -0.00000000000E+00 -0.74584093067E+02  0.74584161453E+02  0.10100000000E+00 0. -1.
         23    2    1    2    0    0  0.00000000000E+00  0.00000000000E+00 -0.49757752038E+02  0.99410707928E+02  0.86061925163E+02 0.  0.
    9000005    2    3    3    0    0  0.18129368361E+02 -0.24069456416E+02 -0.59173862984E+02  0.67840534113E+02  0.13884497794E+02 0.  0.
         22    1    3    3    0    0 -0.18129368361E+02  0.24069456416E+02  0.94161109459E+01  0.31570173814E+02  0.00000000000E+00 0.  1.
         22    1    4    4    0    0  0.63064376804E+01 -0.79177497485E-01 -0.13755238550E+02  0.15132217711E+02  0.00000000000E+00 0.  1.
         22    1    4    4    0    0  0.11822930680E+02 -0.23990278919E+02 -0.45418624434E+02  0.52708316402E+02  0.00000000000E+00 0.  1.
<mgrwt>
<rscale>  0 0.86061925E+02</rscale>
<asrwt>0</asrwt>
<pdfrwt beam="2">  1        3 0.11474497E-01 0.86061925E+02</pdfrwt>
<pdfrwt beam="1">  1       -3 0.38194582E-02 0.86061925E+02</pdfrwt>
<totfact> 0.40590693E+04</totfact>
</mgrwt>
</event>
<event>
 7    1  0.1312339E-009  0.8624104E+02  0.7818608E-02  0.1312219E+00
         -3   -1    0    0    0  501 -0.00000000000E+00  0.00000000000E+00  0.50604624955E+01  0.50614703070E+01  0.10100000000E+00 0.  1.
          3   -1    0    0  501    0  0.00000000000E+00 -0.00000000000E+00 -0.36739510853E+03  0.36739512241E+03  0.10100000000E+00 0. -1.
         23    2    1    2    0    0  0.00000000000E+00  0.00000000000E+00 -0.36233464603E+03  0.37245659272E+03  0.86241044425E+02 0.  0.
    9000005    2    3    3    0    0  0.89995433975E+01 -0.39372692618E+02 -0.11848600049E+03  0.12528587715E+03  0.51398437493E+01 0.  0.
         22    1    3    3    0    0 -0.89995433975E+01  0.39372692618E+02 -0.24384864554E+03  0.24717071557E+03  0.00000000000E+00 0.  1.
         22    1    4    4    0    0 -0.58599053922E+00 -0.41703147664E+01 -0.11153535299E+02  0.11922091253E+02  0.00000000000E+00 0. -1.
         22    1    4    4    0    0  0.95855339368E+01 -0.35202377852E+02 -0.10733246520E+03  0.11336378589E+03  0.00000000000E+00 0. -1.
<mgrwt>
<rscale>  0 0.86241044E+02</rscale>
<asrwt>0</asrwt>
<pdfrwt beam="2">  1        3 0.56522382E-01 0.86241044E+02</pdfrwt>
<pdfrwt beam="1">  1       -3 0.77861157E-03 0.86241044E+02</pdfrwt>
<totfact> 0.24907458E+04</totfact>
</mgrwt>
</event>
<event>
 7    1  0.1312339E-009  0.9262153E+02  0.7818608E-02  0.1296625E+00
          3   -1    0    0  501    0  0.00000000000E+00  0.00000000000E+00  0.71960562022E+02  0.71960632901E+02  0.10100000000E+00 0. -1.
         -3   -1    0    0    0  501 -0.00000000000E+00 -0.00000000000E+00 -0.29803470670E+02  0.29803641808E+02  0.10100000000E+00 0.  1.
         23    2    1    2    0    0  0.00000000000E+00 -0.71054273576E-14  0.42157091351E+02  0.10176427471E+03  0.92621526956E+02 0.  0.
    9000005    2    3    3    0    0 -0.24323685110E+02  0.39295276670E+02  0.23423045867E+02  0.51897202546E+02  0.29866584137E+01 0.  0.
         22    1    3    3    0    0  0.24323685110E+02 -0.39295276670E+02  0.18734045484E+02  0.49867072163E+02  0.00000000000E+00 0.  1.
         22    1    4    4    0    0 -0.24239723307E+02  0.38642415773E+02  0.22824114377E+02  0.51007261050E+02  0.00000000000E+00 0. -1.
         22    1    4    4    0    0 -0.83961803186E-01  0.65286089683E+00  0.59893149053E+00  0.88994149547E+00  0.00000000000E+00 0. -1.
<mgrwt>
<rscale>  0 0.92621527E+02</rscale>
<asrwt>0</asrwt>
<pdfrwt beam="1">  1        3 0.11070874E-01 0.92621527E+02</pdfrwt>
<pdfrwt beam="2">  1       -3 0.45851680E-02 0.92621527E+02</pdfrwt>
<totfact> 0.33090557E+04</totfact>
</mgrwt>
</event>
<event>
 7    1  0.1312339E-009  0.9626234E+02  0.7818608E-02  0.1288358E+00
         -3   -1    0    0    0  501 -0.00000000000E+00  0.00000000000E+00  0.24039076452E+03  0.24039078573E+03  0.10100000000E+00 0.  1.
          3   -1    0    0  501    0  0.00000000000E+00 -0.00000000000E+00 -0.96365619763E+01  0.96370912481E+01  0.10100000000E+00 0. -1.
         23    2    1    2    0    0  0.00000000000E+00 -0.35527136788E-14  0.23075420254E+03  0.25002787698E+03  0.96262335720E+02 0.  0.
    9000005    2    3    3    0    0 -0.22329076492E+02 -0.31250659420E+02  0.44035370978E+02  0.59399669648E+02  0.10677803426E+02 0.  0.
         22    1    3    3    0    0  0.22329076492E+02  0.31250659420E+02  0.18671883156E+03  0.19062820733E+03  0.00000000000E+00 0.  1.
         22    1    4    4    0    0 -0.20359000466E+01 -0.56150235225E+00  0.12863654794E+00  0.21158263758E+01  0.00000000000E+00 0. -1.
         22    1    4    4    0    0 -0.20293176446E+02 -0.30689157068E+02  0.43906734430E+02  0.57283843273E+02  0.00000000000E+00 0. -1.
<mgrwt>
<rscale>  0 0.96262336E+02</rscale>
<asrwt>0</asrwt>
<pdfrwt beam="2">  1        3 0.14825907E-02 0.96262336E+02</pdfrwt>
<pdfrwt beam="1">  1       -3 0.36983229E-01 0.96262336E+02</pdfrwt>
<totfact> 0.22538294E+04</totfact>
</mgrwt>
</event>
<event>
 7    1  0.1312339E-009  0.9123684E+02  0.7818608E-02  0.1299884E+00
          3   -1    0    0  501    0  0.00000000000E+00  0.00000000000E+00  0.25119284536E+02  0.25119487586E+02  0.10100000000E+00 0. -1.
         -3   -1    0    0    0  501 -0.00000000000E+00 -0.00000000000E+00 -0.82845753378E+02  0.82845814944E+02  0.10100000000E+00 0.  1.
         23    2    1    2    0    0  0.00000000000E+00  0.00000000000E+00 -0.57726468842E+02  0.10796530253E+03  0.91236842040E+02 0.  0.
    9000005    2    3    3    0    0  0.31319042200E+02 -0.18363686126E+02  0.23122993558E+00  0.39575228542E+02  0.15749218217E+02 0.  0.
         22    1    3    3    0    0 -0.31319042200E+02  0.18363686126E+02 -0.57957698778E+02  0.68390073988E+02  0.00000000000E+00 0.  1.
         22    1    4    4    0    0  0.30066909227E+02 -0.18097028489E+02  0.42574714718E+01  0.35350354084E+02  0.00000000000E+00 0. -1.
         22    1    4    4    0    0  0.12521329733E+01 -0.26665763733E+00 -0.40262415362E+01  0.42248744580E+01  0.00000000000E+00 0. -1.
<mgrwt>
<rscale>  0 0.91236842E+02</rscale>
<asrwt>0</asrwt>
<pdfrwt beam="1">  1        3 0.38645257E-02 0.91236842E+02</pdfrwt>
<pdfrwt beam="2">  1       -3 0.12745521E-01 0.91236842E+02</pdfrwt>
<totfact> 0.34030933E+04</totfact>
</mgrwt>
</event>
<event>
 7    1  0.1312339E-009  0.9086713E+02  0.7818608E-02  0.1300765E+00
          3   -1    0    0  501    0  0.00000000000E+00  0.00000000000E+00  0.15982317458E+03  0.15982320649E+03  0.10100000000E+00 0. -1.
         -3   -1    0    0    0  501 -0.00000000000E+00 -0.00000000000E+00 -0.12915348147E+02  0.12915743058E+02  0.10100000000E+00 0.  1.
         23    2    1    2    0    0  0.00000000000E+00  0.17763568394E-14  0.14690782643E+03  0.17273894955E+03  0.90867129508E+02 0.  0.
    9000005    2    3    3    0    0  0.32803923162E+02  0.11693764941E+02  0.12726954591E+03  0.13275765924E+03  0.14636162640E+02 0.  0.
         22    1    3    3    0    0 -0.32803923162E+02 -0.11693764941E+02  0.19638280524E+02  0.39981290315E+02  0.00000000000E+00 0.  1.
         22    1    4    4    0    0  0.29638513964E+02  0.49873375765E+01  0.94720511220E+02  0.99374495178E+02  0.00000000000E+00 0.  1.
         22    1    4    4    0    0  0.31654091977E+01  0.67064273647E+01  0.32549034692E+02  0.33383164061E+02  0.00000000000E+00 0.  1.
<mgrwt>
<rscale>  0 0.90867130E+02</rscale>
<asrwt>0</asrwt>
<pdfrwt beam="1">  1        3 0.24588215E-01 0.90867130E+02</pdfrwt>
<pdfrwt beam="2">  1       -3 0.19870094E-02 0.90867130E+02</pdfrwt>
<totfact> 0.30248011E+04</totfact>
</mgrwt>
</event>
<event>
 7    1  0.1312339E-009  0.9110503E+02  0.7818608E-02  0.1300198E+00
          3   -1    0    0  501    0  0.00000000000E+00  0.00000000000E+00  0.59899076539E+02  0.59899161690E+02  0.10100000000E+00 0. -1.
         -3   -1    0    0    0  501 -0.00000000000E+00 -0.00000000000E+00 -0.34641949003E+02  0.34642096237E+02  0.10100000000E+00 0.  1.
         23    2    1    2    0    0 -0.35527136788E-14  0.00000000000E+00  0.25257127536E+02  0.94541257928E+02  0.91105032568E+02 0.  0.
    9000005    2    3    3    0    0 -0.21509374189E+02 -0.22524627764E+02  0.45772491444E+02  0.57246590880E+02  0.14561564491E+02 0.  0.
         22    1    3    3    0    0  0.21509374189E+02  0.22524627764E+02 -0.20515363908E+02  0.37294667048E+02  0.00000000000E+00 0.  1.
         22    1    4    4    0    0 -0.19406634354E+02 -0.20044056462E+02  0.29308120391E+02  0.40464151755E+02  0.00000000000E+00 0. -1.
         22    1    4    4    0    0 -0.21027398352E+01 -0.24805713023E+01  0.16464371053E+02  0.16782439125E+02  0.00000000000E+00 0. -1.
<mgrwt>
<rscale>  0 0.91105033E+02</rscale>
<asrwt>0</asrwt>
<pdfrwt beam="1">  1        3 0.92152603E-02 0.91105033E+02</pdfrwt>
<pdfrwt beam="2">  1       -3 0.53295486E-02 0.91105033E+02</pdfrwt>
<totfact> 0.35156791E+04</totfact>
</mgrwt>
</event>
<event>
 7    1  0.1312339E-009  0.9113623E+02  0.7818608E-02  0.1300123E+00
         -3   -1    0    0    0  501 -0.00000000000E+00  0.00000000000E+00  0.13729124801E+03  0.13729128516E+03  0.10100000000E+00 0.  1.
          3   -1    0    0  501    0  0.00000000000E+00 -0.00000000000E+00 -0.15124232772E+02  0.15124570009E+02  0.10100000000E+00 0. -1.
         23    2    1    2    0    0 -0.35527136788E-14  0.00000000000E+00  0.12216701524E+03  0.15241585517E+03  0.91136234808E+02 0.  0.
    9000005    2    3    3    0    0 -0.28504195072E+02 -0.33156519409E+02  0.43892941375E+02  0.62757199397E+02  0.10001592748E+02 0.  0.
         22    1    3    3    0    0  0.28504195072E+02  0.33156519409E+02  0.78274073861E+02  0.89658655772E+02  0.00000000000E+00 0. -1.
         22    1    4    4    0    0 -0.10175309303E+02 -0.13166308529E+02  0.10249374284E+02  0.19543241105E+02  0.00000000000E+00 0. -1.
         22    1    4    4    0    0 -0.18328885769E+02 -0.19990210880E+02  0.33643567091E+02  0.43213958292E+02  0.00000000000E+00 0. -1.
<mgrwt>
<rscale>  0 0.91136235E+02</rscale>
<asrwt>0</asrwt>
<pdfrwt beam="2">  1        3 0.23268339E-02 0.91136235E+02</pdfrwt>
<pdfrwt beam="1">  1       -3 0.21121759E-01 0.91136235E+02</pdfrwt>
<totfact> 0.31198550E+04</totfact>
</mgrwt>
</event>
<event>
 7    1  0.1312339E-009  0.9628310E+02  0.7818608E-02  0.1288312E+00
         -3   -1    0    0    0  501 -0.00000000000E+00  0.00000000000E+00  0.15298987562E+03  0.15298990896E+03  0.10100000000E+00 0.  1.
          3   -1    0    0  501    0  0.00000000000E+00 -0.00000000000E+00 -0.15148570352E+02  0.15148907047E+02  0.10100000000E+00 0. -1.
         23    2    1    2    0    0  0.00000000000E+00  0.00000000000E+00  0.13784130527E+03  0.16813881601E+03  0.96283103450E+02 0.  0.
    9000005    2    3    3    0    0 -0.34093464759E+02 -0.13896321386E+02  0.18147566762E+02  0.42910771523E+02  0.12511116897E+02 0.  0.
         22    1    3    3    0    0  0.34093464759E+02  0.13896321386E+02  0.11969373851E+03  0.12522804449E+03  0.00000000000E+00 0.  1.
         22    1    4    4    0    0 -0.28407767003E+01  0.86937794563E+00 -0.13082321663E+01  0.32461210196E+01  0.00000000000E+00 0. -1.
         22    1    4    4    0    0 -0.31252688059E+02 -0.14765699332E+02  0.19455798928E+02  0.39664650504E+02  0.00000000000E+00 0. -1.
<mgrwt>
<rscale>  0 0.96283103E+02</rscale>
<asrwt>0</asrwt>
<pdfrwt beam="2">  1        3 0.23305777E-02 0.96283103E+02</pdfrwt>
<pdfrwt beam="1">  1       -3 0.23536933E-01 0.96283103E+02</pdfrwt>
<totfact> 0.26073340E+04</totfact>
</mgrwt>
</event>
<event>
 7    1  0.1312339E-009  0.9164770E+02  0.7818608E-02  0.1298910E+00
         -3   -1    0    0    0  501 -0.00000000000E+00  0.00000000000E+00  0.56503543192E+01  0.56512569339E+01  0.10100000000E+00 0.  1.
          3   -1    0    0  501    0  0.00000000000E+00 -0.00000000000E+00 -0.37159662745E+03  0.37159664118E+03  0.10100000000E+00 0. -1.
         23    2    1    2    0    0  0.35527136788E-14  0.00000000000E+00 -0.36594627313E+03  0.37724789811E+03  0.91647704881E+02 0.  0.
    9000005    2    3    3    0    0  0.22283731747E+02 -0.10476874548E+01 -0.34704181195E+03  0.34800681397E+03  0.13155264062E+02 0.  0.
         22    1    3    3    0    0 -0.22283731747E+02  0.10476874548E+01 -0.18904461178E+02  0.29241084145E+02  0.00000000000E+00 0.  1.
         22    1    4    4    0    0  0.21314224230E+02  0.21433468267E+00 -0.23779513509E+03  0.23874854631E+03  0.00000000000E+00 0. -1.
         22    1    4    4    0    0  0.96950751697E+00 -0.12620221375E+01 -0.10924667686E+03  0.10925826765E+03  0.00000000000E+00 0. -1.
<mgrwt>
<rscale>  0 0.91647705E+02</rscale>
<asrwt>0</asrwt>
<pdfrwt beam="2">  1        3 0.57168763E-01 0.91647705E+02</pdfrwt>
<pdfrwt beam="1">  1       -3 0.86935606E-03 0.91647705E+02</pdfrwt>
<totfact> 0.21027892E+04</totfact>
</mgrwt>
</event>
<event>
 7    1  0.1312339E-009  0.9014537E+02  0.7818608E-02  0.1302500E+00
          3   -1    0    0  501    0  0.00000000000E+00  0.00000000000E+00  0.12100752945E+02  0.12101174440E+02  0.10100000000E+00 0. -1.
         -3   -1    0    0    0  501 -0.00000000000E+00 -0.00000000000E+00 -0.16788262465E+03  0.16788265503E+03  0.10100000000E+00 0.  1.
         23    2    1    2    0    0  0.00000000000E+00  0.00000000000E+00 -0.15578187170E+03  0.17998382947E+03  0.90145367707E+02 0.  0.
    9000005    2    3    3    0    0  0.93573286027E+01  0.31736962975E+02 -0.13720524074E+03  0.14203800446E+03  0.15960019057E+02 0.  0.
         22    1    3    3    0    0 -0.93573286027E+01 -0.31736962975E+02 -0.18576630966E+02  0.37945825008E+02  0.00000000000E+00 0. -1.
         22    1    4    4    0    0 -0.23641593029E+01  0.43116690244E+01 -0.76503559904E+01  0.90943766012E+01  0.00000000000E+00 0.  1.
         22    1    4    4    0    0  0.11721487906E+02  0.27425293950E+02 -0.12955488475E+03  0.13294362786E+03  0.00000000000E+00 0.  1.
<mgrwt>
<rscale>  0 0.90145368E+02</rscale>
<asrwt>0</asrwt>
<pdfrwt beam="1">  1        3 0.18616892E-02 0.90145368E+02</pdfrwt>
<pdfrwt beam="2">  1       -3 0.25828129E-01 0.90145368E+02</pdfrwt>
<totfact> 0.30487948E+04</totfact>
</mgrwt>
</event>
<event>
 7    1  0.1312339E-009  0.9103193E+02  0.7818608E-02  0.1300372E+00
          3   -1    0    0  501    0  0.00000000000E+00  0.00000000000E+00  0.12314658002E+03  0.12314662144E+03  0.10100000000E+00 0. -1.
         -3   -1    0    0    0  501 -0.00000000000E+00 -0.00000000000E+00 -0.16822869483E+02  0.16823172669E+02  0.10100000000E+00 0.  1.
         23    2    1    2    0    0  0.00000000000E+00  0.00000000000E+00  0.10632371053E+03  0.13996979410E+03  0.91031927585E+02 0.  0.
    9000005    2    3    3    0    0  0.87275265692E+01 -0.34002944673E+02  0.96055409959E+02  0.10339373687E+03  0.15207007400E+02 0.  0.
         22    1    3    3    0    0 -0.87275265692E+01  0.34002944673E+02  0.10268300576E+02  0.36576057239E+02  0.00000000000E+00 0.  1.
         22    1    4    4    0    0  0.78584101962E+01 -0.18382772849E+02  0.34428155647E+02  0.39811792847E+02  0.00000000000E+00 0.  1.
         22    1    4    4    0    0  0.86911637302E+00 -0.15620171824E+02  0.61627254312E+02  0.63581944018E+02  0.00000000000E+00 0.  1.
<mgrwt>
<rscale>  0 0.91031928E+02</rscale>
<asrwt>0</asrwt>
<pdfrwt beam="1">  1        3 0.18945654E-01 0.91031928E+02</pdfrwt>
<pdfrwt beam="2">  1       -3 0.25881602E-02 0.91031928E+02</pdfrwt>
<totfact> 0.32070272E+04</totfact>
</mgrwt>
</event>
<event>
 7    1  0.1312339E-009  0.9122970E+02  0.7818608E-02  0.1299901E+00
          3   -1    0    0  501    0  0.00000000000E+00  0.00000000000E+00  0.18213682405E+02  0.18213962439E+02  0.10100000000E+00 0. -1.
         -3   -1    0    0    0  501 -0.00000000000E+00 -0.00000000000E+00 -0.11423792091E+03  0.11423796555E+03  0.10100000000E+00 0.  1.
         23    2    1    2    0    0  0.00000000000E+00 -0.11102230246E-15 -0.96024238501E+02  0.13245192799E+03  0.91229703768E+02 0.  0.
    9000005    2    3    3    0    0 -0.16211077097E+02 -0.60891358649E+00 -0.10972695414E+03  0.11121671638E+03  0.81230376532E+01 0.  0.
         22    1    3    3    0    0  0.16211077097E+02  0.60891358649E+00  0.13702715640E+02  0.21235211614E+02  0.00000000000E+00 0. -1.
         22    1    4    4    0    0 -0.47614701895E+01 -0.36953701829E+01 -0.46312727813E+02  0.46703277365E+02  0.00000000000E+00 0.  1.
         22    1    4    4    0    0 -0.11449606908E+02  0.30864565964E+01 -0.63414226328E+02  0.64513439015E+02  0.00000000000E+00 0.  1.
<mgrwt>
<rscale>  0 0.91229704E+02</rscale>
<asrwt>0</asrwt>
<pdfrwt beam="1">  1        3 0.28021300E-02 0.91229704E+02</pdfrwt>
<pdfrwt beam="2">  1       -3 0.17575089E-01 0.91229704E+02</pdfrwt>
<totfact> 0.32365843E+04</totfact>
</mgrwt>
</event>
<event>
 7    1  0.1312339E-009  0.9545835E+02  0.7818608E-02  0.1290147E+00
          3   -1    0    0  501    0  0.00000000000E+00  0.00000000000E+00  0.12478585273E+02  0.12478994007E+02  0.10100000000E+00 0. -1.
         -3   -1    0    0    0  501 -0.00000000000E+00 -0.00000000000E+00 -0.18255529166E+03  0.18255531960E+03  0.10100000000E+00 0.  1.
         23    2    1    2    0    0 -0.35527136788E-14  0.00000000000E+00 -0.17007670639E+03  0.19503431361E+03  0.95458354420E+02 0.  0.
    9000005    2    3    3    0    0  0.31871457671E+02  0.34149358061E+02 -0.68834984552E+02  0.83536086221E+02  0.76193262601E+01 0.  0.
         22    1    3    3    0    0 -0.31871457671E+02 -0.34149358061E+02 -0.10124172184E+03  0.11149822739E+03  0.00000000000E+00 0.  1.
         22    1    4    4    0    0  0.11670351743E+02  0.10168337087E+02 -0.17319409197E+02  0.23228304369E+02  0.00000000000E+00 0.  1.
         22    1    4    4    0    0  0.20201105928E+02  0.23981020975E+02 -0.51515575355E+02  0.60307781851E+02  0.00000000000E+00 0.  1.
<mgrwt>
<rscale>  0 0.95458354E+02</rscale>
<asrwt>0</asrwt>
<pdfrwt beam="1">  1        3 0.19198161E-02 0.95458354E+02</pdfrwt>
<pdfrwt beam="2">  1       -3 0.28085461E-01 0.95458354E+02</pdfrwt>
<totfact> 0.25394222E+04</totfact>
</mgrwt>
</event>
<event>
 7    1  0.1312339E-009  0.8821036E+02  0.7818608E-02  0.1307244E+00
         -3   -1    0    0    0  501 -0.00000000000E+00  0.00000000000E+00  0.20401693728E+02  0.20401943730E+02  0.10100000000E+00 0.  1.
          3   -1    0    0  501    0  0.00000000000E+00 -0.00000000000E+00 -0.95347439748E+02  0.95347493241E+02  0.10100000000E+00 0. -1.
         23    2    1    2    0    0  0.00000000000E+00  0.00000000000E+00 -0.74945746019E+02  0.11574943697E+03  0.88210358308E+02 0.  0.
    9000005    2    3    3    0    0  0.18941444146E+02 -0.59323476249E+01 -0.88286829198E+02  0.91833844672E+02  0.15649912548E+02 0.  0.
         22    1    3    3    0    0 -0.18941444146E+02  0.59323476249E+01  0.13341083178E+02  0.23915592300E+02  0.00000000000E+00 0.  1.
         22    1    4    4    0    0  0.19330770291E+01 -0.77136724573E+01 -0.22636402695E+02  0.23992587533E+02  0.00000000000E+00 0.  1.
         22    1    4    4    0    0  0.17008367116E+02  0.17813248324E+01 -0.65650426503E+02  0.67841257139E+02  0.00000000000E+00 0.  1.
<mgrwt>
<rscale>  0 0.88210358E+02</rscale>
<asrwt>0</asrwt>
<pdfrwt beam="2">  1        3 0.14668860E-01 0.88210358E+02</pdfrwt>
<pdfrwt beam="1">  1       -3 0.31387455E-02 0.88210358E+02</pdfrwt>
<totfact> 0.36681918E+04</totfact>
</mgrwt>
</event>
<event>
 7    1  0.1312339E-009  0.8713985E+02  0.7818608E-02  0.1309930E+00
          3   -1    0    0  501    0  0.00000000000E+00  0.00000000000E+00  0.82195338274E+01  0.82201543379E+01  0.10100000000E+00 0. -1.
         -3   -1    0    0    0  501 -0.00000000000E+00 -0.00000000000E+00 -0.23094514528E+03  0.23094516736E+03  0.10100000000E+00 0.  1.
         23    2    1    2    0    0  0.00000000000E+00  0.00000000000E+00 -0.22272561145E+03  0.23916532170E+03  0.87139847994E+02 0.  0.
    9000005    2    3    3    0    0 -0.10985902193E+02  0.39504647086E+02 -0.14869920626E+03  0.15454135433E+03  0.95010034705E+01 0.  0.
         22    1    3    3    0    0  0.10985902193E+02 -0.39504647086E+02 -0.74026405190E+02  0.84623967372E+02  0.00000000000E+00 0.  1.
         22    1    4    4    0    0 -0.56038158650E+01  0.74227931428E+01 -0.40710990026E+02  0.41759852959E+02  0.00000000000E+00 0.  1.
         22    1    4    4    0    0 -0.53820863283E+01  0.32081853944E+02 -0.10798821623E+03  0.11278150137E+03  0.00000000000E+00 0.  1.
<mgrwt>
<rscale>  0 0.87139848E+02</rscale>
<asrwt>0</asrwt>
<pdfrwt beam="1">  1        3 0.12645933E-02 0.87139848E+02</pdfrwt>
<pdfrwt beam="2">  1       -3 0.35530067E-01 0.87139848E+02</pdfrwt>
<totfact> 0.30021438E+04</totfact>
</mgrwt>
</event>
<event>
 7    1  0.1312339E-009  0.9438481E+02  0.7818608E-02  0.1292568E+00
          3   -1    0    0  501    0  0.00000000000E+00  0.00000000000E+00  0.21445703470E+03  0.21445705848E+03  0.10100000000E+00 0. -1.
         -3   -1    0    0    0  501 -0.00000000000E+00 -0.00000000000E+00 -0.10384667599E+02  0.10385158744E+02  0.10100000000E+00 0.  1.
         23    2    1    2    0    0  0.00000000000E+00  0.00000000000E+00  0.20407236710E+03  0.22484221723E+03  0.94384806157E+02 0.  0.
    9000005    2    3    3    0    0  0.28914676084E+02 -0.35405523518E+02  0.79469251889E+02  0.92118647695E+02  0.89929788606E+01 0.  0.
         22    1    3    3    0    0 -0.28914676084E+02  0.35405523518E+02  0.12460311521E+03  0.13272356953E+03  0.00000000000E+00 0.  1.
         22    1    4    4    0    0  0.25099003023E+02 -0.26829046854E+02  0.68071578490E+02  0.77353070437E+02  0.00000000000E+00 0. -1.
         22    1    4    4    0    0  0.38156730615E+01 -0.85764766635E+01  0.11397673399E+02  0.14765577258E+02  0.00000000000E+00 0. -1.
<mgrwt>
<rscale>  0 0.94384806E+02</rscale>
<asrwt>0</asrwt>
<pdfrwt beam="1">  1        3 0.32993426E-01 0.94384806E+02</pdfrwt>
<pdfrwt beam="2">  1       -3 0.15976810E-02 0.94384806E+02</pdfrwt>
<totfact> 0.24830519E+04</totfact>
</mgrwt>
</event>
<event>
 7    1  0.1312339E-009  0.1161191E+03  0.7818608E-02  0.1249640E+00
         -3   -1    0    0    0  501 -0.00000000000E+00  0.00000000000E+00  0.33613001983E+03  0.33613003501E+03  0.10100000000E+00 0.  1.
          3   -1    0    0  501    0  0.00000000000E+00 -0.00000000000E+00 -0.10028325644E+02  0.10028834241E+02  0.10100000000E+00 0. -1.
         23    2    1    2    0    0  0.00000000000E+00  0.00000000000E+00  0.32610169419E+03  0.34615886925E+03  0.11611911043E+03 0.  0.
    9000005    2    3    3    0    0 -0.22953121481E+02  0.29635000774E+02  0.29448401290E+03  0.29712054926E+03  0.12438162527E+02 0.  0.
         22    1    3    3    0    0  0.22953121481E+02 -0.29635000774E+02  0.31617681296E+02  0.49038319986E+02  0.00000000000E+00 0. -1.
         22    1    4    4    0    0 -0.74098629727E+01  0.19152068947E+01  0.63942843276E+02  0.64399233636E+02  0.00000000000E+00 0. -1.
         22    1    4    4    0    0 -0.15543258509E+02  0.27719793879E+02  0.23054116962E+03  0.23272131563E+03  0.00000000000E+00 0. -1.
<mgrwt>
<rscale>  0 0.11611911E+03</rscale>
<asrwt>0</asrwt>
<pdfrwt beam="2">  1        3 0.15428596E-02 0.11611911E+03</pdfrwt>
<pdfrwt beam="1">  1       -3 0.51712351E-01 0.11611911E+03</pdfrwt>
<totfact> 0.11574793E+04</totfact>
</mgrwt>
</event>
<event>
 7    1  0.1312339E-009  0.9159380E+02  0.7818608E-02  0.1299037E+00
         -3   -1    0    0    0  501 -0.00000000000E+00  0.00000000000E+00  0.27543798237E+02  0.27543983414E+02  0.10100000000E+00 0.  1.
          3   -1    0    0  501    0  0.00000000000E+00 -0.00000000000E+00 -0.76145742454E+02  0.76145809437E+02  0.10100000000E+00 0. -1.
         23    2    1    2    0    0  0.17763568394E-14  0.00000000000E+00 -0.48601944217E+02  0.10368979285E+03  0.91593799790E+02 0.  0.
    9000005    2    3    3    0    0  0.15466372339E+02 -0.32939519374E+02 -0.54936055864E+02  0.66752798114E+02  0.10665140046E+02 0.  0.
         22    1    3    3    0    0 -0.15466372339E+02  0.32939519374E+02  0.63341116474E+01  0.36936994738E+02  0.00000000000E+00 0.  1.
         22    1    4    4    0    0  0.49202844935E+01 -0.45366364261E+01 -0.16539788644E+02  0.17842502010E+02  0.00000000000E+00 0.  1.
         22    1    4    4    0    0  0.10546087845E+02 -0.28402882948E+02 -0.38396267220E+02  0.48910296104E+02  0.00000000000E+00 0.  1.
<mgrwt>
<rscale>  0 0.91593800E+02</rscale>
<asrwt>0</asrwt>
<pdfrwt beam="2">  1        3 0.11714749E-01 0.91593800E+02</pdfrwt>
<pdfrwt beam="1">  1       -3 0.42375268E-02 0.91593800E+02</pdfrwt>
<totfact> 0.33974649E+04</totfact>
</mgrwt>
</event>
<event>
 7    1  0.1312339E-009  0.9159546E+02  0.7818608E-02  0.1299033E+00
         -3   -1    0    0    0  501 -0.00000000000E+00  0.00000000000E+00  0.12237762246E+03  0.12237766413E+03  0.10100000000E+00 0.  1.
          3   -1    0    0  501    0  0.00000000000E+00 -0.00000000000E+00 -0.17138821964E+02  0.17139119561E+02  0.10100000000E+00 0. -1.
         23    2    1    2    0    0  0.00000000000E+00  0.00000000000E+00  0.10523880049E+03  0.13951678369E+03  0.91595457331E+02 0.  0.
    9000005    2    3    3    0    0  0.39590588808E+02 -0.19606587528E+02  0.65383172069E+02  0.80016328960E+02  0.13259740335E+02 0.  0.
         22    1    3    3    0    0 -0.39590588808E+02  0.19606587528E+02  0.39855628422E+02  0.59500454734E+02  0.00000000000E+00 0. -1.
         22    1    4    4    0    0  0.56638305024E+01 -0.11086653434E+01  0.17838844237E+02  0.18749199410E+02  0.00000000000E+00 0. -1.
         22    1    4    4    0    0  0.33926758306E+02 -0.18497922185E+02  0.47544327831E+02  0.61267129550E+02  0.00000000000E+00 0. -1.
<mgrwt>
<rscale>  0 0.91595457E+02</rscale>
<asrwt>0</asrwt>
<pdfrwt beam="2">  1        3 0.26367680E-02 0.91595457E+02</pdfrwt>
<pdfrwt beam="1">  1       -3 0.18827352E-01 0.91595457E+02</pdfrwt>
<totfact> 0.31567197E+04</totfact>
</mgrwt>
</event>
<event>
 7    1  0.1312339E-009  0.8982945E+02  0.7818608E-02  0.1303265E+00
         -3   -1    0    0    0  501 -0.00000000000E+00  0.00000000000E+00  0.12708406310E+02  0.12708807652E+02  0.10100000000E+00 0.  1.
          3   -1    0    0  501    0  0.00000000000E+00 -0.00000000000E+00 -0.15873710146E+03  0.15873713359E+03  0.10100000000E+00 0. -1.
         23    2    1    2    0    0  0.00000000000E+00 -0.35527136788E-14 -0.14602869515E+03  0.17144594124E+03  0.89829454867E+02 0.  0.
    9000005    2    3    3    0    0  0.25342364169E+02  0.19637950059E+02 -0.17141465111E+02  0.38631022762E+02  0.13062985466E+02 0.  0.
         22    1    3    3    0    0 -0.25342364169E+02 -0.19637950059E+02 -0.12888723004E+03  0.13281491848E+03  0.00000000000E+00 0. -1.
         22    1    4    4    0    0  0.23888196263E+02  0.16500418454E+02 -0.10018292671E+02  0.30712797299E+02  0.00000000000E+00 0.  1.
         22    1    4    4    0    0  0.14541679054E+01  0.31375316051E+01 -0.71231724406E+01  0.79182254634E+01  0.00000000000E+00 0.  1.
<mgrwt>
<rscale>  0 0.89829455E+02</rscale>
<asrwt>0</asrwt>
<pdfrwt beam="2">  1        3 0.24421124E-01 0.89829455E+02</pdfrwt>
<pdfrwt beam="1">  1       -3 0.19551729E-02 0.89829455E+02</pdfrwt>
<totfact> 0.31275409E+04</totfact>
</mgrwt>
</event>
<event>
 7    1  0.1312339E-009  0.9181755E+02  0.7818608E-02  0.1298509E+00
          3   -1    0    0  501    0  0.00000000000E+00  0.00000000000E+00  0.56640264706E+02  0.56640354757E+02  0.10100000000E+00 0. -1.
         -3   -1    0    0    0  501 -0.00000000000E+00 -0.00000000000E+00 -0.37210367038E+02  0.37210504110E+02  0.10100000000E+00 0.  1.
         23    2    1    2    0    0  0.00000000000E+00  0.00000000000E+00  0.19429897668E+02  0.93850858867E+02  0.91817551626E+02 0.  0.
    9000005    2    3    3    0    0  0.21732572303E+01  0.34730975311E+02  0.38847747891E+02  0.54000932890E+02  0.13999626559E+02 0.  0.
         22    1    3    3    0    0 -0.21732572303E+01 -0.34730975311E+02 -0.19417850223E+02  0.39849925976E+02  0.00000000000E+00 0.  1.
         22    1    4    4    0    0 -0.19493672420E+01  0.16249675451E+01  0.86060983629E+01  0.89724846725E+01  0.00000000000E+00 0. -1.
         22    1    4    4    0    0  0.41226244723E+01  0.33106007766E+02  0.30241649528E+02  0.45028448218E+02  0.00000000000E+00 0. -1.
<mgrwt>
<rscale>  0 0.91817552E+02</rscale>
<asrwt>0</asrwt>
<pdfrwt beam="1">  1        3 0.87139043E-02 0.91817552E+02</pdfrwt>
<pdfrwt beam="2">  1       -3 0.57246893E-02 0.91817552E+02</pdfrwt>
<totfact> 0.34469092E+04</totfact>
</mgrwt>
</event>
<event>
 7    1  0.1312339E-009  0.9514396E+02  0.7818608E-02  0.1290852E+00
         -3   -1    0    0    0  501 -0.00000000000E+00  0.00000000000E+00  0.10328446081E+02  0.10328939899E+02  0.10100000000E+00 0.  1.
          3   -1    0    0  501    0  0.00000000000E+00 -0.00000000000E+00 -0.21910693213E+03  0.21910695541E+03  0.10100000000E+00 0. -1.
         23    2    1    2    0    0  0.00000000000E+00  0.00000000000E+00 -0.20877848605E+03  0.22943589531E+03  0.95143963648E+02 0.  0.
    9000005    2    3    3    0    0 -0.19059139574E+02  0.22582050557E+02 -0.19416996742E+03  0.19647214817E+03  0.51116485059E+01 0.  0.
         22    1    3    3    0    0  0.19059139574E+02 -0.22582050557E+02 -0.14608518626E+02  0.32963747134E+02  0.00000000000E+00 0.  1.
         22    1    4    4    0    0 -0.96988623246E+01  0.12101905999E+02 -0.11825984508E+03  0.11927244031E+03  0.00000000000E+00 0. -1.
         22    1    4    4    0    0 -0.93602772492E+01  0.10480144558E+02 -0.75910122337E+02  0.77199707858E+02  0.00000000000E+00 0. -1.
<mgrwt>
<rscale>  0 0.95143964E+02</rscale>
<asrwt>0</asrwt>
<pdfrwt beam="2">  1        3 0.33708795E-01 0.95143964E+02</pdfrwt>
<pdfrwt beam="1">  1       -3 0.15890316E-02 0.95143964E+02</pdfrwt>
<totfact> 0.24103686E+04</totfact>
</mgrwt>
</event>
<event>
 7    1  0.1312339E-009  0.9091351E+02  0.7818608E-02  0.1300654E+00
          3   -1    0    0  501    0  0.00000000000E+00  0.00000000000E+00  0.56865187581E+02  0.56865277276E+02  0.10100000000E+00 0. -1.
         -3   -1    0    0    0  501 -0.00000000000E+00 -0.00000000000E+00 -0.36336924399E+02  0.36337064765E+02  0.10100000000E+00 0.  1.
         23    2    1    2    0    0  0.00000000000E+00 -0.44408920985E-15  0.20528263182E+02  0.93202342041E+02  0.90913513697E+02 0.  0.
    9000005    2    3    3    0    0 -0.40617720410E+02 -0.38100095162E+01  0.30537053294E+02  0.51196494076E+02  0.49248348163E+01 0.  0.
         22    1    3    3    0    0  0.40617720410E+02  0.38100095162E+01 -0.10008790112E+02  0.42005847965E+02  0.00000000000E+00 0.  1.
         22    1    4    4    0    0 -0.38842967211E+02 -0.32674567498E+01  0.27753095068E+02  0.47850670437E+02  0.00000000000E+00 0.  1.
         22    1    4    4    0    0 -0.17747531985E+01 -0.54255276639E+00  0.27839582258E+01  0.33458236390E+01  0.00000000000E+00 0.  1.
<mgrwt>
<rscale>  0 0.90913514E+02</rscale>
<asrwt>0</asrwt>
<pdfrwt beam="1">  1        3 0.87485080E-02 0.90913514E+02</pdfrwt>
<pdfrwt beam="2">  1       -3 0.55903138E-02 0.90913514E+02</pdfrwt>
<totfact> 0.35461856E+04</totfact>
</mgrwt>
</event>
<event>
 7    1  0.1312339E-009  0.9133691E+02  0.7818608E-02  0.1299646E+00
         -3   -1    0    0    0  501 -0.00000000000E+00  0.00000000000E+00  0.12494514828E+03  0.12494518911E+03  0.10100000000E+00 0. -1.
          3   -1    0    0  501    0  0.00000000000E+00 -0.00000000000E+00 -0.16691990880E+02  0.16692296443E+02  0.10100000000E+00 0.  1.
         23    2    1    2    0    0  0.00000000000E+00  0.00000000000E+00  0.10825315740E+03  0.14163748555E+03  0.91336910527E+02 0.  0.
    9000005    2    3    3    0    0 -0.26263563255E+02  0.35333873936E+02  0.67897146437E+02  0.81914248669E+02  0.12714725264E+02 0.  0.
         22    1    3    3    0    0  0.26263563255E+02 -0.35333873936E+02  0.40356010967E+02  0.59723236880E+02  0.00000000000E+00 0. -1.
         22    1    4    4    0    0 -0.23410819450E+02  0.23130353774E+02  0.53647235783E+02  0.62937315165E+02  0.00000000000E+00 0.  1.
         22    1    4    4    0    0 -0.28527438048E+01  0.12203520162E+02  0.14249910654E+02  0.18976933504E+02  0.00000000000E+00 0.  1.
<mgrwt>
<rscale>  0 0.91336911E+02</rscale>
<asrwt>0</asrwt>
<pdfrwt beam="2">  1        3 0.25680251E-02 0.91336911E+02</pdfrwt>
<pdfrwt beam="1">  1       -3 0.19222358E-01 0.91336911E+02</pdfrwt>
<totfact> 0.31676715E+04</totfact>
</mgrwt>
</event>
<event>
 7    1  0.1312339E-009  0.9115090E+02  0.7818608E-02  0.1300088E+00
         -3   -1    0    0    0  501 -0.00000000000E+00  0.00000000000E+00  0.16081496163E+03  0.16081499335E+03  0.10100000000E+00 0.  1.
          3   -1    0    0  501    0  0.00000000000E+00 -0.00000000000E+00 -0.12915990321E+02  0.12916385213E+02  0.10100000000E+00 0. -1.
         23    2    1    2    0    0  0.00000000000E+00  0.00000000000E+00  0.14789897131E+03  0.17373137856E+03  0.91150897866E+02 0.  0.
    9000005    2    3    3    0    0  0.10401250769E+02  0.10260758267E+01  0.15838235981E+03  0.15892799099E+03  0.79934706029E+01 0.  0.
         22    1    3    3    0    0 -0.10401250769E+02 -0.10260758267E+01 -0.10483388498E+02  0.14803387571E+02  0.00000000000E+00 0. -1.
         22    1    4    4    0    0  0.36633967041E+01  0.32881820369E+01  0.98912484951E+02  0.99034904431E+02  0.00000000000E+00 0. -1.
         22    1    4    4    0    0  0.67378540652E+01 -0.22621062102E+01  0.59469874858E+02  0.59893086559E+02  0.00000000000E+00 0. -1.
<mgrwt>
<rscale>  0 0.91150898E+02</rscale>
<asrwt>0</asrwt>
<pdfrwt beam="2">  1        3 0.19871083E-02 0.91150898E+02</pdfrwt>
<pdfrwt beam="1">  1       -3 0.24740796E-01 0.91150898E+02</pdfrwt>
<totfact> 0.29938419E+04</totfact>
</mgrwt>
</event>
<event>
 7    1  0.1312339E-009  0.9005999E+02  0.7818608E-02  0.1302706E+00
          3   -1    0    0  501    0  0.00000000000E+00  0.00000000000E+00  0.21613003356E+03  0.21613005716E+03  0.10100000000E+00 0. -1.
         -3   -1    0    0    0  501 -0.00000000000E+00 -0.00000000000E+00 -0.93815577446E+01  0.93821014019E+01  0.10100000000E+00 0.  1.
         23    2    1    2    0    0  0.00000000000E+00  0.00000000000E+00  0.20674847582E+03  0.22551215856E+03  0.90059987824E+02 0.  0.
    9000005    2    3    3    0    0  0.26953561859E+02 -0.27455650161E+02  0.16160232155E+03  0.16619536104E+03  0.50279697608E+01 0.  0.
         22    1    3    3    0    0 -0.26953561859E+02  0.27455650161E+02  0.45146154269E+02  0.59316797519E+02  0.00000000000E+00 0.  1.
         22    1    4    4    0    0  0.25729041771E+02 -0.25961005503E+02  0.14749588851E+03  0.15195721281E+03  0.00000000000E+00 0.  1.
         22    1    4    4    0    0  0.12245200888E+01 -0.14946446583E+01  0.14106433036E+02  0.14238148233E+02  0.00000000000E+00 0.  1.
<mgrwt>
<rscale>  0 0.90059988E+02</rscale>
<asrwt>0</asrwt>
<pdfrwt beam="1">  1        3 0.33250818E-01 0.90059988E+02</pdfrwt>
<pdfrwt beam="2">  1       -3 0.14433602E-02 0.90059988E+02</pdfrwt>
<totfact> 0.28148772E+04</totfact>
</mgrwt>
</event>
<event>
 7    1  0.1312339E-009  0.9132981E+02  0.7818608E-02  0.1299663E+00
          3   -1    0    0  501    0  0.00000000000E+00  0.00000000000E+00  0.45626588057E+02  0.45626699845E+02  0.10100000000E+00 0. -1.
         -3   -1    0    0    0  501 -0.00000000000E+00 -0.00000000000E+00 -0.45703032746E+02  0.45703144347E+02  0.10100000000E+00 0.  1.
         23    2    1    2    0    0  0.35527136788E-14 -0.17763568394E-14 -0.76444688815E-01  0.91329844191E+02  0.91329812198E+02 0.  0.
    9000005    2    3    3    0    0  0.21336432215E+02 -0.15821290903E+02 -0.36141255832E+02  0.46538916669E+02  0.12414660935E+02 0.  0.
         22    1    3    3    0    0 -0.21336432215E+02  0.15821290903E+02  0.36064811143E+02  0.44790927522E+02  0.00000000000E+00 0. -1.
         22    1    4    4    0    0  0.20663485248E+02 -0.93701538087E+01 -0.26077945703E+02  0.34566438305E+02  0.00000000000E+00 0.  1.
         22    1    4    4    0    0  0.67294696666E+00 -0.64511370947E+01 -0.10063310129E+02  0.11972478364E+02  0.00000000000E+00 0.  1.
<mgrwt>
<rscale>  0 0.91329812E+02</rscale>
<asrwt>0</asrwt>
<pdfrwt beam="1">  1        3 0.70194922E-02 0.91329812E+02</pdfrwt>
<pdfrwt beam="2">  1       -3 0.70312531E-02 0.91329812E+02</pdfrwt>
<totfact> 0.35165492E+04</totfact>
</mgrwt>
</event>
<event>
 7    1  0.1312339E-009  0.1083133E+03  0.7818608E-02  0.1263726E+00
         -3   -1    0    0    0  501 -0.00000000000E+00  0.00000000000E+00  0.59306406931E+02  0.59306492933E+02  0.10100000000E+00 0.  1.
          3   -1    0    0  501    0  0.00000000000E+00 -0.00000000000E+00 -0.49453929461E+02  0.49454032598E+02  0.10100000000E+00 0. -1.
         23    2    1    2    0    0  0.00000000000E+00  0.00000000000E+00  0.98524774696E+01  0.10876052553E+03  0.10831334452E+03 0.  0.
    9000005    2    3    3    0    0  0.45279966377E+02  0.30999807898E+01  0.33002497616E+02  0.57811446356E+02  0.13896519161E+02 0.  0.
         22    1    3    3    0    0 -0.45279966377E+02 -0.30999807898E+01 -0.23150020147E+02  0.50949079175E+02  0.00000000000E+00 0.  1.
         22    1    4    4    0    0  0.25219790974E+02  0.22256845443E+01  0.26632142450E+02  0.36745918684E+02  0.00000000000E+00 0. -1.
         22    1    4    4    0    0  0.20060175404E+02  0.87429624553E+00  0.63703551664E+01  0.21065527672E+02  0.00000000000E+00 0. -1.
<mgrwt>
<rscale>  0 0.10831334E+03</rscale>
<asrwt>0</asrwt>
<pdfrwt beam="2">  1        3 0.76083114E-02 0.10831334E+03</pdfrwt>
<pdfrwt beam="1">  1       -3 0.91240771E-02 0.10831334E+03</pdfrwt>
<totfact> 0.21198156E+04</totfact>
</mgrwt>
</event>
<event>
 7    1  0.1312339E-009  0.9124952E+02  0.7818608E-02  0.1299854E+00
          3   -1    0    0  501    0  0.00000000000E+00  0.00000000000E+00  0.13970704589E+03  0.13970708239E+03  0.10100000000E+00 0. -1.
         -3   -1    0    0    0  501 -0.00000000000E+00 -0.00000000000E+00 -0.14899674689E+02  0.14900017008E+02  0.10100000000E+00 0.  1.
         23    2    1    2    0    0  0.00000000000E+00  0.17763568394E-14  0.12480737120E+03  0.15460709940E+03  0.91249522084E+02 0.  0.
    9000005    2    3    3    0    0 -0.23549771227E+02  0.12502162935E+02  0.40933118772E+00  0.27383799017E+02  0.62296945103E+01 0.  0.
         22    1    3    3    0    0  0.23549771227E+02 -0.12502162935E+02  0.12439804001E+03  0.12722330038E+03  0.00000000000E+00 0. -1.
         22    1    4    4    0    0 -0.74609361695E+01  0.10037765557E+01  0.10326560567E+01  0.75986521457E+01  0.00000000000E+00 0.  1.
         22    1    4    4    0    0 -0.16088835058E+02  0.11498386379E+02 -0.62332486894E+00  0.19785146872E+02  0.00000000000E+00 0.  1.
<mgrwt>
<rscale>  0 0.91249522E+02</rscale>
<asrwt>0</asrwt>
<pdfrwt beam="1">  1        3 0.21493420E-01 0.91249522E+02</pdfrwt>
<pdfrwt beam="2">  1       -3 0.22922868E-02 0.91249522E+02</pdfrwt>
<totfact> 0.30960564E+04</totfact>
</mgrwt>
</event>
<event>
 7    1  0.1312339E-009  0.9170475E+02  0.7818608E-02  0.1298775E+00
          3   -1    0    0  501    0  0.00000000000E+00  0.00000000000E+00  0.55647036126E+02  0.55647127784E+02  0.10100000000E+00 0. -1.
         -3   -1    0    0    0  501 -0.00000000000E+00 -0.00000000000E+00 -0.37781518300E+02  0.37781653300E+02  0.10100000000E+00 0.  1.
         23    2    1    2    0    0  0.71054273576E-14  0.35527136788E-14  0.17865517826E+02  0.93428781084E+02  0.91704745829E+02 0.  0.
    9000005    2    3    3    0    0 -0.22264218081E+02 -0.25887266923E+02 -0.21991646957E+02  0.40946026011E+02  0.52056233757E+01 0.  0.
         22    1    3    3    0    0  0.22264218081E+02  0.25887266923E+02  0.39857164782E+02  0.52482755072E+02  0.00000000000E+00 0. -1.
         22    1    4    4    0    0 -0.13541630959E+01 -0.21480990318E+01 -0.23191917205E+00  0.25498771819E+01  0.00000000000E+00 0. -1.
         22    1    4    4    0    0 -0.20910054985E+02 -0.23739167892E+02 -0.21759727784E+02  0.38396148829E+02  0.00000000000E+00 0. -1.
<mgrwt>
<rscale>  0 0.91704746E+02</rscale>
<asrwt>0</asrwt>
<pdfrwt beam="1">  1        3 0.85610999E-02 0.91704746E+02</pdfrwt>
<pdfrwt beam="2">  1       -3 0.58125587E-02 0.91704746E+02</pdfrwt>
<totfact> 0.34616590E+04</totfact>
</mgrwt>
</event>
<event>
 7    1  0.1312339E-009  0.8831534E+02  0.7818608E-02  0.1306983E+00
          3   -1    0    0  501    0  0.00000000000E+00  0.00000000000E+00  0.67817491552E+01  0.67825012056E+01  0.10100000000E+00 0. -1.
         -3   -1    0    0    0  501 -0.00000000000E+00 -0.00000000000E+00 -0.28750496689E+03  0.28750498463E+03  0.10100000000E+00 0.  1.
         23    2    1    2    0    0 -0.35527136788E-14 -0.35527136788E-14 -0.28072321774E+03  0.29428748584E+03  0.88315340368E+02 0.  0.
    9000005    2    3    3    0    0  0.23040833052E+02  0.17411063569E+02 -0.25065057605E+03  0.25259349466E+03  0.11989042811E+02 0.  0.
         22    1    3    3    0    0 -0.23040833052E+02 -0.17411063569E+02 -0.30072641684E+02  0.41693991176E+02  0.00000000000E+00 0. -1.
         22    1    4    4    0    0  0.20268674657E+02  0.10027896375E+02 -0.15834182541E+03  0.15994846530E+03  0.00000000000E+00 0.  1.
         22    1    4    4    0    0  0.27721583951E+01  0.73831671943E+01 -0.92308750642E+02  0.92645029360E+02  0.00000000000E+00 0.  1.
<mgrwt>
<rscale>  0 0.88315340E+02</rscale>
<asrwt>0</asrwt>
<pdfrwt beam="1">  1        3 0.10434055E-02 0.88315340E+02</pdfrwt>
<pdfrwt beam="2">  1       -3 0.44231583E-01 0.88315340E+02</pdfrwt>
<totfact> 0.26406705E+04</totfact>
</mgrwt>
</event>
<event>
 7    1  0.1312339E-009  0.8956847E+02  0.7818608E-02  0.1303900E+00
          3   -1    0    0  501    0  0.00000000000E+00  0.00000000000E+00  0.77196195360E+02  0.77196261432E+02  0.10100000000E+00 0. -1.
         -3   -1    0    0    0  501 -0.00000000000E+00 -0.00000000000E+00 -0.25980741344E+02  0.25980937662E+02  0.10100000000E+00 0.  1.
         23    2    1    2    0    0  0.00000000000E+00  0.00000000000E+00  0.51215454016E+02  0.10317719909E+03  0.89568474827E+02 0.  0.
    9000005    2    3    3    0    0 -0.17969632869E+02 -0.58772956767E+01  0.72158493907E+02  0.74962642039E+02  0.74228800782E+01 0.  0.
         22    1    3    3    0    0  0.17969632869E+02  0.58772956767E+01 -0.20943039891E+02  0.28214557055E+02  0.00000000000E+00 0.  1.
         22    1    4    4    0    0 -0.28846840998E+01 -0.42290413129E+01  0.19579887033E+02  0.20238037676E+02  0.00000000000E+00 0.  1.
         22    1    4    4    0    0 -0.15084948769E+02 -0.16482543639E+01  0.52578606874E+02  0.54724604363E+02  0.00000000000E+00 0.  1.
<mgrwt>
<rscale>  0 0.89568475E+02</rscale>
<asrwt>0</asrwt>
<pdfrwt beam="1">  1        3 0.11876358E-01 0.89568475E+02</pdfrwt>
<pdfrwt beam="2">  1       -3 0.39970574E-02 0.89568475E+02</pdfrwt>
<totfact> 0.36141218E+04</totfact>
</mgrwt>
</event>
<event>
 7    1  0.1312339E-009  0.9133124E+02  0.7818608E-02  0.1299660E+00
         -3   -1    0    0    0  501 -0.00000000000E+00  0.00000000000E+00  0.33958899735E+02  0.33959049931E+02  0.10100000000E+00 0.  1.
          3   -1    0    0  501    0  0.00000000000E+00 -0.00000000000E+00 -0.61407693059E+02  0.61407776118E+02  0.10100000000E+00 0. -1.
         23    2    1    2    0    0  0.17763568394E-14 -0.35527136788E-14 -0.27448793324E+02  0.95366826049E+02  0.91331239211E+02 0.  0.
    9000005    2    3    3    0    0 -0.15662873070E+02  0.15336101902E+02  0.26297483075E+02  0.37322154967E+02  0.14861494575E+02 0.  0.
         22    1    3    3    0    0  0.15662873070E+02 -0.15336101902E+02 -0.53746276398E+02  0.58044671082E+02  0.00000000000E+00 0. -1.
         22    1    4    4    0    0 -0.10492885573E+02  0.17199143902E+02  0.24078533966E+02  0.31395652511E+02  0.00000000000E+00 0.  1.
         22    1    4    4    0    0 -0.51699874974E+01 -0.18630420010E+01  0.22189491085E+01  0.59265024565E+01  0.00000000000E+00 0.  1.
<mgrwt>
<rscale>  0 0.91331239E+02</rscale>
<asrwt>0</asrwt>
<pdfrwt beam="2">  1        3 0.94473553E-02 0.91331239E+02</pdfrwt>
<pdfrwt beam="1">  1       -3 0.52244641E-02 0.91331239E+02</pdfrwt>
<totfact> 0.34857242E+04</totfact>
</mgrwt>
</event>
<event>
 7    1  0.1312339E-009  0.9034166E+02  0.7818608E-02  0.1302026E+00
         -3   -1    0    0    0  501 -0.00000000000E+00  0.00000000000E+00  0.70993462826E+01  0.71000646927E+01  0.10100000000E+00 0.  1.
          3   -1    0    0  501    0  0.00000000000E+00 -0.00000000000E+00 -0.28739200540E+03  0.28739202314E+03  0.10100000000E+00 0. -1.
         23    2    1    2    0    0 -0.35527136788E-14  0.00000000000E+00 -0.28029265911E+03  0.29449208784E+03  0.90341657309E+02 0.  0.
    9000005    2    3    3    0    0  0.26683566506E+02 -0.16653288552E+02 -0.24511054843E+03  0.24729965568E+03  0.94124387924E+01 0.  0.
         22    1    3    3    0    0 -0.26683566506E+02  0.16653288552E+02 -0.35182110679E+02  0.47192432157E+02  0.00000000000E+00 0.  1.
         22    1    4    4    0    0  0.14139109745E+02 -0.13308964156E+02 -0.16585985193E+03  0.16699261490E+03  0.00000000000E+00 0. -1.
         22    1    4    4    0    0  0.12544456761E+02 -0.33443243967E+01 -0.79250696506E+02  0.80307040773E+02  0.00000000000E+00 0. -1.
<mgrwt>
<rscale>  0 0.90341657E+02</rscale>
<asrwt>0</asrwt>
<pdfrwt beam="2">  1        3 0.44214202E-01 0.90341657E+02</pdfrwt>
<pdfrwt beam="1">  1       -3 0.10922640E-02 0.90341657E+02</pdfrwt>
<totfact> 0.24851386E+04</totfact>
</mgrwt>
</event>
<event>
 7    1  0.1312339E-009  0.9210907E+02  0.7818608E-02  0.1297823E+00
         -3   -1    0    0    0  501 -0.00000000000E+00  0.00000000000E+00  0.23697713081E+02  0.23697928312E+02  0.10100000000E+00 0.  1.
          3   -1    0    0  501    0  0.00000000000E+00 -0.00000000000E+00 -0.89502514008E+02  0.89502570995E+02  0.10100000000E+00 0. -1.
         23    2    1    2    0    0  0.71054273576E-14  0.17763568394E-14 -0.65804800927E+02  0.11320049931E+03  0.92109072399E+02 0.  0.
    9000005    2    3    3    0    0  0.35760003307E+02  0.86977919949E+01 -0.67692059745E+00  0.38393613138E+02  0.10917045672E+02 0.  0.
         22    1    3    3    0    0 -0.35760003307E+02 -0.86977919949E+01 -0.65127880330E+02  0.74806886169E+02  0.00000000000E+00 0. -1.
         22    1    4    4    0    0  0.34721842117E+02  0.57692046148E+01  0.70024697682E-01  0.35197939504E+02  0.00000000000E+00 0.  1.
         22    1    4    4    0    0  0.10381611896E+01  0.29285873801E+01 -0.74694529513E+00  0.31956736336E+01  0.00000000000E+00 0.  1.
<mgrwt>
<rscale>  0 0.92109072E+02</rscale>
<asrwt>0</asrwt>
<pdfrwt beam="2">  1        3 0.13769638E-01 0.92109072E+02</pdfrwt>
<pdfrwt beam="1">  1       -3 0.36458230E-02 0.92109072E+02</pdfrwt>
<totfact> 0.32796624E+04</totfact>
</mgrwt>
</event>
<event>
 7    1  0.1312339E-009  0.9095080E+02  0.7818608E-02  0.1300565E+00
          3   -1    0    0  501    0  0.00000000000E+00  0.00000000000E+00  0.14531352571E+03  0.14531356081E+03  0.10100000000E+00 0. -1.
         -3   -1    0    0    0  501 -0.00000000000E+00 -0.00000000000E+00 -0.14231164012E+02  0.14231522411E+02  0.10100000000E+00 0.  1.
         23    2    1    2    0    0  0.00000000000E+00  0.00000000000E+00  0.13108236170E+03  0.15954508322E+03  0.90950800060E+02 0.  0.
    9000005    2    3    3    0    0 -0.16843631265E+02  0.34062276482E+02  0.25486683667E+02  0.47320336341E+02  0.12070484405E+02 0.  0.
         22    1    3    3    0    0  0.16843631265E+02 -0.34062276482E+02  0.10559567803E+03  0.11222474688E+03  0.00000000000E+00 0. -1.
         22    1    4    4    0    0 -0.60133088302E+00  0.25725268069E+00 -0.11473866578E+01  0.13207096256E+01  0.00000000000E+00 0.  1.
         22    1    4    4    0    0 -0.16242300382E+02  0.33805023802E+02  0.26634070324E+02  0.45999626715E+02  0.00000000000E+00 0.  1.
<mgrwt>
<rscale>  0 0.90950800E+02</rscale>
<asrwt>0</asrwt>
<pdfrwt beam="1">  1        3 0.22355958E-01 0.90950800E+02</pdfrwt>
<pdfrwt beam="2">  1       -3 0.21894401E-02 0.90950800E+02</pdfrwt>
<totfact> 0.30940309E+04</totfact>
</mgrwt>
</event>
<event>
 7    1  0.1312339E-009  0.9084361E+02  0.7818608E-02  0.1300822E+00
         -3   -1    0    0    0  501 -0.00000000000E+00  0.00000000000E+00  0.78807703085E+02  0.78807767805E+02  0.10100000000E+00 0.  1.
          3   -1    0    0  501    0  0.00000000000E+00 -0.00000000000E+00 -0.26179253510E+02  0.26179448339E+02  0.10100000000E+00 0. -1.
         23    2    1    2    0    0  0.00000000000E+00  0.00000000000E+00  0.52628449575E+02  0.10498721614E+03  0.90843612044E+02 0.  0.
    9000005    2    3    3    0    0 -0.25660090252E+02  0.13648719739E+02 -0.13247508748E+02  0.32984649057E+02  0.82318165149E+01 0.  0.
         22    1    3    3    0    0  0.25660090252E+02 -0.13648719739E+02  0.65875958322E+02  0.72002567087E+02  0.00000000000E+00 0.  1.
         22    1    4    4    0    0 -0.55072147584E+01  0.27273154687E+01  0.64828563675E+00  0.61796390127E+01  0.00000000000E+00 0. -1.
         22    1    4    4    0    0 -0.20152875494E+02  0.10921404270E+02 -0.13895794384E+02  0.26805010044E+02  0.00000000000E+00 0. -1.
<mgrwt>
<rscale>  0 0.90843612E+02</rscale>
<asrwt>0</asrwt>
<pdfrwt beam="2">  1        3 0.40275974E-02 0.90843612E+02</pdfrwt>
<pdfrwt beam="1">  1       -3 0.12124282E-01 0.90843612E+02</pdfrwt>
<totfact> 0.34650010E+04</totfact>
</mgrwt>
</event>
<event>
 7    1  0.1312339E-009  0.8861724E+02  0.7818608E-02  0.1306235E+00
         -3   -1    0    0    0  501 -0.00000000000E+00  0.00000000000E+00  0.24961084536E+02  0.24961288873E+02  0.10100000000E+00 0.  1.
          3   -1    0    0  501    0  0.00000000000E+00 -0.00000000000E+00 -0.78652020769E+02  0.78652085617E+02  0.10100000000E+00 0. -1.
         23    2    1    2    0    0 -0.22204460493E-15  0.00000000000E+00 -0.53690936232E+02  0.10361337449E+03  0.88617237262E+02 0.  0.
    9000005    2    3    3    0    0 -0.49929055987E+00 -0.28204226641E+02  0.11347191203E+02  0.32721303624E+02  0.12091206357E+02 0.  0.
         22    1    3    3    0    0  0.49929055987E+00  0.28204226641E+02 -0.65038127435E+02  0.70892070867E+02  0.00000000000E+00 0.  1.
         22    1    4    4    0    0  0.45869977130E+01 -0.20461835769E+02  0.10406930247E+02  0.23410071939E+02  0.00000000000E+00 0. -1.
         22    1    4    4    0    0 -0.50862882729E+01 -0.77423908728E+01  0.94026095549E+00  0.93112316847E+01  0.00000000000E+00 0. -1.
<mgrwt>
<rscale>  0 0.88617237E+02</rscale>
<asrwt>0</asrwt>
<pdfrwt beam="2">  1        3 0.12100331E-01 0.88617237E+02</pdfrwt>
<pdfrwt beam="1">  1       -3 0.38401876E-02 0.88617237E+02</pdfrwt>
<totfact> 0.37167094E+04</totfact>
</mgrwt>
</event>
<event>
 7    1  0.1312339E-009  0.8608426E+02  0.7818608E-02  0.1312621E+00
         -3   -1    0    0    0  501 -0.00000000000E+00  0.00000000000E+00  0.58372041892E+02  0.58372129272E+02  0.10100000000E+00 0.  1.
          3   -1    0    0  501    0  0.00000000000E+00 -0.00000000000E+00 -0.31738035036E+02  0.31738195742E+02  0.10100000000E+00 0. -1.
         23    2    1    2    0    0  0.17763568394E-14  0.00000000000E+00  0.26634006856E+02  0.90110325013E+02  0.86084263096E+02 0.  0.
    9000005    2    3    3    0    0 -0.10369589217E+02  0.24374346417E+02  0.48624490735E+02  0.55683322167E+02  0.58867753862E+01 0.  0.
         22    1    3    3    0    0  0.10369589217E+02 -0.24374346417E+02 -0.21990483879E+02  0.34427002847E+02  0.00000000000E+00 0. -1.
         22    1    4    4    0    0 -0.18576792869E+01  0.49031779703E+01  0.54513318249E+01  0.75636727326E+01  0.00000000000E+00 0. -1.
         22    1    4    4    0    0 -0.85119099301E+01  0.19471168447E+02  0.43173158910E+02  0.48119649434E+02  0.00000000000E+00 0. -1.
<mgrwt>
<rscale>  0 0.86084263E+02</rscale>
<asrwt>0</asrwt>
<pdfrwt beam="2">  1        3 0.48827938E-02 0.86084263E+02</pdfrwt>
<pdfrwt beam="1">  1       -3 0.89803331E-02 0.86084263E+02</pdfrwt>
<totfact> 0.41396135E+04</totfact>
</mgrwt>
</event>
<event>
 7    1  0.1312339E-009  0.9354827E+02  0.7818608E-02  0.1294480E+00
         -3   -1    0    0    0  501 -0.00000000000E+00  0.00000000000E+00  0.18988112293E+01  0.19014954863E+01  0.10100000000E+00 0.  1.
          3   -1    0    0  501    0  0.00000000000E+00 -0.00000000000E+00 -0.11513883420E+04  0.11513883464E+04  0.10100000000E+00 0. -1.
         23    2    1    2    0    0  0.00000000000E+00  0.00000000000E+00 -0.11494895307E+04  0.11532898419E+04  0.93548266234E+02 0.  0.
    9000005    2    3    3    0    0 -0.95374637077E+01  0.12362211964E+02 -0.11180411575E+04  0.11181787656E+04  0.79959036812E+01 0.  0.
         22    1    3    3    0    0  0.95374637077E+01 -0.12362211964E+02 -0.31448373255E+02  0.35111076301E+02  0.00000000000E+00 0.  1.
         22    1    4    4    0    0 -0.67396892710E+01  0.61482448030E+01 -0.39427883786E+03  0.39438436367E+03  0.00000000000E+00 0. -1.
         22    1    4    4    0    0 -0.27977744367E+01  0.62139671607E+01 -0.72376231964E+03  0.72379440192E+03  0.00000000000E+00 0. -1.
<mgrwt>
<rscale>  0 0.93548266E+02</rscale>
<asrwt>0</asrwt>
<pdfrwt beam="2">  1        3 0.17713632E+00 0.93548266E+02</pdfrwt>
<pdfrwt beam="1">  1       -3 0.29233255E-03 0.93548266E+02</pdfrwt>
<totfact> 0.80147259E+03</totfact>
</mgrwt>
</event>
<event>
 7    1  0.1312339E-009  0.9010650E+02  0.7818608E-02  0.1302594E+00
         -3   -1    0    0    0  501 -0.00000000000E+00  0.00000000000E+00  0.86271114890E+01  0.86277026863E+01  0.10100000000E+00 0.  1.
          3   -1    0    0  501    0  0.00000000000E+00 -0.00000000000E+00 -0.23527234136E+03  0.23527236304E+03  0.10100000000E+00 0. -1.
         23    2    1    2    0    0  0.00000000000E+00 -0.35527136788E-14 -0.22664522987E+03  0.24390006573E+03  0.90106502749E+02 0.  0.
    9000005    2    3    3    0    0  0.36668113555E+02 -0.23893516397E+02 -0.13092213587E+03  0.13864627053E+03  0.12912474365E+02 0.  0.
         22    1    3    3    0    0 -0.36668113555E+02  0.23893516397E+02 -0.95723094007E+02  0.10525379520E+03  0.00000000000E+00 0. -1.
         22    1    4    4    0    0  0.16590293164E+02 -0.13705321641E+02 -0.82257565036E+02  0.85025764767E+02  0.00000000000E+00 0. -1.
         22    1    4    4    0    0  0.20077820391E+02 -0.10188194756E+02 -0.48664570830E+02  0.53620505761E+02  0.00000000000E+00 0. -1.
<mgrwt>
<rscale>  0 0.90106503E+02</rscale>
<asrwt>0</asrwt>
<pdfrwt beam="2">  1        3 0.36195787E-01 0.90106503E+02</pdfrwt>
<pdfrwt beam="1">  1       -3 0.13272952E-02 0.90106503E+02</pdfrwt>
<totfact> 0.27227139E+04</totfact>
</mgrwt>
</event>
<event>
 7    1  0.1312339E-009  0.9791616E+02  0.7818608E-02  0.1284740E+00
          3   -1    0    0  501    0  0.00000000000E+00  0.00000000000E+00  0.23195802438E+02  0.23196022326E+02  0.10100000000E+00 0. -1.
         -3   -1    0    0    0  501 -0.00000000000E+00 -0.00000000000E+00 -0.10333233772E+03  0.10333238708E+03  0.10100000000E+00 0.  1.
         23    2    1    2    0    0  0.00000000000E+00  0.00000000000E+00 -0.80136535278E+02  0.12652840940E+03  0.97916158520E+02 0.  0.
    9000005    2    3    3    0    0  0.23371866766E+02 -0.11915592966E+02  0.11962337517E+02  0.30766058335E+02  0.10734398666E+02 0.  0.
         22    1    3    3    0    0 -0.23371866766E+02  0.11915592966E+02 -0.92098872795E+02  0.95762351067E+02  0.00000000000E+00 0.  1.
         22    1    4    4    0    0  0.21212435276E+02 -0.61024640100E+01  0.10224682341E+02  0.24325945126E+02  0.00000000000E+00 0.  1.
         22    1    4    4    0    0  0.21594314904E+01 -0.58131289564E+01  0.17376551756E+01  0.64401132082E+01  0.00000000000E+00 0.  1.
<mgrwt>
<rscale>  0 0.97916159E+02</rscale>
<asrwt>0</asrwt>
<pdfrwt beam="1">  1        3 0.35686058E-02 0.97916159E+02</pdfrwt>
<pdfrwt beam="2">  1       -3 0.15897303E-01 0.97916159E+02</pdfrwt>
<totfact> 0.27005263E+04</totfact>
</mgrwt>
</event>
<event>
 7    1  0.1312339E-009  0.9113998E+02  0.7818608E-02  0.1300114E+00
         -3   -1    0    0    0  501 -0.00000000000E+00  0.00000000000E+00  0.25678818173E+03  0.25678820160E+03  0.10100000000E+00 0.  1.
          3   -1    0    0  501    0  0.00000000000E+00 -0.00000000000E+00 -0.80865782560E+01  0.80872089679E+01  0.10100000000E+00 0. -1.
         23    2    1    2    0    0  0.17763568394E-14  0.88817841970E-15  0.24870160348E+03  0.26487541057E+03  0.91139977777E+02 0.  0.
    9000005    2    3    3    0    0 -0.14638942428E+02 -0.47934748322E+01  0.24876734542E+03  0.24947150332E+03  0.10656584064E+02 0.  0.
         22    1    3    3    0    0  0.14638942428E+02  0.47934748322E+01 -0.65741944403E-01  0.15403907244E+02  0.00000000000E+00 0. -1.
         22    1    4    4    0    0 -0.98514599347E+01  0.91988182798E+00  0.18602191708E+03  0.18628486540E+03  0.00000000000E+00 0.  1.
         22    1    4    4    0    0 -0.47874824937E+01 -0.57133566602E+01  0.62745428348E+02  0.63186637919E+02  0.00000000000E+00 0.  1.
<mgrwt>
<rscale>  0 0.91139978E+02</rscale>
<asrwt>0</asrwt>
<pdfrwt beam="2">  1        3 0.12441390E-02 0.91139978E+02</pdfrwt>
<pdfrwt beam="1">  1       -3 0.39505925E-01 0.91139978E+02</pdfrwt>
<totfact> 0.25479455E+04</totfact>
</mgrwt>
</event>
<event>
 7    1  0.1312339E-009  0.9122505E+02  0.7818608E-02  0.1299912E+00
          3   -1    0    0  501    0  0.00000000000E+00  0.00000000000E+00  0.30462762495E+02  0.30462929928E+02  0.10100000000E+00 0. -1.
         -3   -1    0    0    0  501 -0.00000000000E+00 -0.00000000000E+00 -0.68296191612E+02  0.68296266294E+02  0.10100000000E+00 0.  1.
         23    2    1    2    0    0 -0.35527136788E-14  0.00000000000E+00 -0.37833429117E+02  0.98759196222E+02  0.91225054013E+02 0.  0.
    9000005    2    3    3    0    0  0.19672906182E+02  0.31141650018E+02  0.78604109944E+01  0.40067181198E+02  0.13666284961E+02 0.  0.
         22    1    3    3    0    0 -0.19672906182E+02 -0.31141650018E+02 -0.45693840111E+02  0.58692015024E+02  0.00000000000E+00 0. -1.
         22    1    4    4    0    0  0.21469847537E+02  0.26895633344E+02  0.84019587302E+01  0.35424883299E+02  0.00000000000E+00 0. -1.
         22    1    4    4    0    0 -0.17969413552E+01  0.42460166743E+01 -0.54154773580E+00  0.46422978989E+01  0.00000000000E+00 0. -1.
<mgrwt>
<rscale>  0 0.91225054E+02</rscale>
<asrwt>0</asrwt>
<pdfrwt beam="1">  1        3 0.46865975E-02 0.91225054E+02</pdfrwt>
<pdfrwt beam="2">  1       -3 0.10507125E-01 0.91225054E+02</pdfrwt>
<totfact> 0.34714428E+04</totfact>
</mgrwt>
</event>
<event>
 7    1  0.1312339E-009  0.8202609E+02  0.7818608E-02  0.1323398E+00
          3   -1    0    0  501    0  0.00000000000E+00  0.00000000000E+00  0.35918124008E+02  0.35918266011E+02  0.10100000000E+00 0. -1.
         -3   -1    0    0    0  501 -0.00000000000E+00 -0.00000000000E+00 -0.46830383516E+02  0.46830492430E+02  0.10100000000E+00 0.  1.
         23    2    1    2    0    0  0.00000000000E+00  0.00000000000E+00 -0.10912259508E+02  0.82748758441E+02  0.82026091068E+02 0.  0.
    9000005    2    3    3    0    0 -0.13179562914E+02 -0.32262632104E+02  0.16337361734E+02  0.38509407557E+02  0.12193330492E+01 0.  0.
         22    1    3    3    0    0  0.13179562914E+02  0.32262632104E+02 -0.27249621241E+02  0.44239350884E+02  0.00000000000E+00 0.  1.
         22    1    4    4    0    0 -0.68510504526E+01 -0.16238667760E+02  0.88969369699E+01  0.19743016749E+02  0.00000000000E+00 0.  1.
         22    1    4    4    0    0 -0.63285124618E+01 -0.16023964344E+02  0.74404247640E+01  0.18766390808E+02  0.00000000000E+00 0.  1.
<mgrwt>
<rscale>  0 0.82026091E+02</rscale>
<asrwt>0</asrwt>
<pdfrwt beam="1">  1        3 0.55258845E-02 0.82026091E+02</pdfrwt>
<pdfrwt beam="2">  1       -3 0.72046937E-02 0.82026091E+02</pdfrwt>
<totfact> 0.47933921E+04</totfact>
</mgrwt>
</event>
<event>
 7    1  0.1312339E-009  0.9033814E+02  0.7818608E-02  0.1302035E+00
          3   -1    0    0  501    0  0.00000000000E+00  0.00000000000E+00  0.40710318203E+02  0.40710443490E+02  0.10100000000E+00 0. -1.
         -3   -1    0    0    0  501 -0.00000000000E+00 -0.00000000000E+00 -0.50115904398E+02  0.50116006172E+02  0.10100000000E+00 0.  1.
         23    2    1    2    0    0  0.00000000000E+00  0.00000000000E+00 -0.94055861953E+01  0.90826449663E+02  0.90338136502E+02 0.  0.
    9000005    2    3    3    0    0 -0.15047814824E+01  0.39161942685E+02  0.15430829055E+02  0.44428500951E+02  0.14137152801E+02 0.  0.
         22    1    3    3    0    0  0.15047814824E+01 -0.39161942685E+02 -0.24836415250E+02  0.46397948711E+02  0.00000000000E+00 0.  1.
         22    1    4    4    0    0  0.50877049012E+01  0.12278999055E+02  0.13114561637E+01  0.13355840528E+02  0.00000000000E+00 0.  1.
         22    1    4    4    0    0 -0.65924863835E+01  0.26882943630E+02  0.14119372891E+02  0.31072660423E+02  0.00000000000E+00 0.  1.
<mgrwt>
<rscale>  0 0.90338137E+02</rscale>
<asrwt>0</asrwt>
<pdfrwt beam="1">  1        3 0.62631433E-02 0.90338137E+02</pdfrwt>
<pdfrwt beam="2">  1       -3 0.77101566E-02 0.90338137E+02</pdfrwt>
<totfact> 0.36266464E+04</totfact>
</mgrwt>
</event>
<event>
 7    1  0.1312339E-009  0.8529822E+02  0.7818608E-02  0.1314655E+00
          3   -1    0    0  501    0  0.00000000000E+00  0.00000000000E+00  0.13098857445E+04  0.13098857484E+04  0.10100000000E+00 0. -1.
         -3   -1    0    0    0  501 -0.00000000000E+00 -0.00000000000E+00 -0.13867894487E+01  0.13904625040E+01  0.10100000000E+00 0.  1.
         23    2    1    2    0    0  0.35527136788E-14  0.00000000000E+00  0.13084989551E+04  0.13112762109E+04  0.85298217428E+02 0.  0.
    9000005    2    3    3    0    0 -0.28238840874E+02 -0.42124161742E+01  0.11396601486E+04  0.11400403526E+04  0.71815593269E+01 0.  0.
         22    1    3    3    0    0  0.28238840874E+02  0.42124161742E+01  0.16883880649E+03  0.17123585828E+03  0.00000000000E+00 0.  1.
         22    1    4    4    0    0 -0.11881941159E+02 -0.47744419753E+01  0.57781569554E+03  0.57795757096E+03  0.00000000000E+00 0.  1.
         22    1    4    4    0    0 -0.16356899715E+02  0.56202580110E+00  0.56184445303E+03  0.56208278166E+03  0.00000000000E+00 0.  1.
<mgrwt>
<rscale>  0 0.85298217E+02</rscale>
<asrwt>0</asrwt>
<pdfrwt beam="1">  1        3 0.20152132E+00 0.85298217E+02</pdfrwt>
<pdfrwt beam="2">  1       -3 0.21363490E-03 0.85298217E+02</pdfrwt>
<totfact> 0.87665681E+03</totfact>
</mgrwt>
</event>
<event>
 7    1  0.1312339E-009  0.9169694E+02  0.7818608E-02  0.1298794E+00
         -3   -1    0    0    0  501 -0.00000000000E+00  0.00000000000E+00  0.18071291836E+03  0.18071294658E+03  0.10100000000E+00 0.  1.
          3   -1    0    0  501    0  0.00000000000E+00 -0.00000000000E+00 -0.11631914490E+02  0.11632352974E+02  0.10100000000E+00 0. -1.
         23    2    1    2    0    0  0.00000000000E+00  0.71054273576E-14  0.16908100387E+03  0.19234529956E+03  0.91696937747E+02 0.  0.
    9000005    2    3    3    0    0  0.14764179047E+02 -0.39616698638E+02  0.12169634850E+03  0.12884121026E+03  0.16101015393E+01 0.  0.
         22    1    3    3    0    0 -0.14764179047E+02  0.39616698638E+02  0.47384655363E+02  0.63504089299E+02  0.00000000000E+00 0. -1.
         22    1    4    4    0    0  0.18638819819E+01 -0.40015017634E+01  0.13793066699E+02  0.14482222252E+02  0.00000000000E+00 0.  1.
         22    1    4    4    0    0  0.12900297065E+02 -0.35615196874E+02  0.10790328181E+03  0.11435898800E+03  0.00000000000E+00 0.  1.
<mgrwt>
<rscale>  0 0.91696938E+02</rscale>
<asrwt>0</asrwt>
<pdfrwt beam="2">  1        3 0.17895613E-02 0.91696938E+02</pdfrwt>
<pdfrwt beam="1">  1       -3 0.27802022E-01 0.91696938E+02</pdfrwt>
<totfact> 0.28457288E+04</totfact>
</mgrwt>
</event>
<event>
 7    1  0.1312339E-009  0.8724457E+02  0.7818608E-02  0.1309665E+00
          3   -1    0    0  501    0  0.00000000000E+00  0.00000000000E+00  0.35209726775E+02  0.35209871635E+02  0.10100000000E+00 0. -1.
         -3   -1    0    0    0  501 -0.00000000000E+00 -0.00000000000E+00 -0.54044533924E+02  0.54044628300E+02  0.10100000000E+00 0.  1.
         23    2    1    2    0    0 -0.35527136788E-14  0.00000000000E+00 -0.18834807149E+02  0.89254499935E+02  0.87244574607E+02 0.  0.
    9000005    2    3    3    0    0 -0.29454810654E+02 -0.23058802418E+02 -0.30862622231E+02  0.49961210746E+02  0.12013612640E+02 0.  0.
         22    1    3    3    0    0  0.29454810654E+02  0.23058802418E+02  0.12027815082E+02  0.39293289189E+02  0.00000000000E+00 0. -1.
         22    1    4    4    0    0 -0.18766592358E+01 -0.57270201611E+01 -0.17516834213E+01  0.62760660147E+01  0.00000000000E+00 0.  1.
         22    1    4    4    0    0 -0.27578151418E+02 -0.17331782257E+02 -0.29110938810E+02  0.43685144732E+02  0.00000000000E+00 0.  1.
<mgrwt>
<rscale>  0 0.87244575E+02</rscale>
<asrwt>0</asrwt>
<pdfrwt beam="1">  1        3 0.54168995E-02 0.87244575E+02</pdfrwt>
<pdfrwt beam="2">  1       -3 0.83145621E-02 0.87244575E+02</pdfrwt>
<totfact> 0.39998451E+04</totfact>
</mgrwt>
</event>
<event>
 7    1  0.1312339E-009  0.9037962E+02  0.7818608E-02  0.1301935E+00
          3   -1    0    0  501    0  0.00000000000E+00  0.00000000000E+00  0.40270111576E+03  0.40270112843E+03  0.10100000000E+00 0. -1.
         -3   -1    0    0    0  501 -0.00000000000E+00 -0.00000000000E+00 -0.50705375703E+01  0.50715433797E+01  0.10100000000E+00 0.  1.
         23    2    1    2    0    0  0.00000000000E+00  0.00000000000E+00  0.39763057819E+03  0.40777267181E+03  0.90379616949E+02 0.  0.
    9000005    2    3    3    0    0 -0.13122428577E+02 -0.21349532961E+02  0.36840661648E+03  0.36927539103E+03  0.35886852166E+01 0.  0.
         22    1    3    3    0    0  0.13122428577E+02  0.21349532961E+02  0.29223961709E+02  0.38497280779E+02  0.00000000000E+00 0.  1.
         22    1    4    4    0    0 -0.22547684542E+01 -0.42951227020E+01  0.93653822910E+02  0.93779371961E+02  0.00000000000E+00 0.  1.
         22    1    4    4    0    0 -0.10867660123E+02 -0.17054410259E+02  0.27475279357E+03  0.27549601907E+03  0.00000000000E+00 0.  1.
<mgrwt>
<rscale>  0 0.90379617E+02</rscale>
<asrwt>0</asrwt>
<pdfrwt beam="1">  1        3 0.61954109E-01 0.90379617E+02</pdfrwt>
<pdfrwt beam="2">  1       -3 0.78016088E-03 0.90379617E+02</pdfrwt>
<totfact> 0.20865890E+04</totfact>
</mgrwt>
</event>
<event>
 7    1  0.1312339E-009  0.9437695E+02  0.7818608E-02  0.1292586E+00
          3   -1    0    0  501    0  0.00000000000E+00  0.00000000000E+00  0.44776821245E+02  0.44776935155E+02  0.10100000000E+00 0. -1.
         -3   -1    0    0    0  501 -0.00000000000E+00 -0.00000000000E+00 -0.49729789052E+02  0.49729891616E+02  0.10100000000E+00 0.  1.
         23    2    1    2    0    0 -0.35527136788E-14  0.00000000000E+00 -0.49529678064E+01  0.94506826771E+02  0.94376948542E+02 0.  0.
    9000005    2    3    3    0    0  0.26730227146E+02  0.36634606241E+01 -0.40529755633E+02  0.49856700017E+02  0.10728627959E+02 0.  0.
         22    1    3    3    0    0 -0.26730227146E+02 -0.36634606241E+01  0.35576787827E+02  0.44650126753E+02  0.00000000000E+00 0. -1.
         22    1    4    4    0    0  0.24599627202E+02  0.39319099958E+01 -0.29461928887E+02  0.38582467889E+02  0.00000000000E+00 0. -1.
         22    1    4    4    0    0  0.21305999443E+01 -0.26844937176E+00 -0.11067826747E+02  0.11274232128E+02  0.00000000000E+00 0. -1.
<mgrwt>
<rscale>  0 0.94376949E+02</rscale>
<asrwt>0</asrwt>
<pdfrwt beam="1">  1        3 0.68887584E-02 0.94376949E+02</pdfrwt>
<pdfrwt beam="2">  1       -3 0.76507534E-02 0.94376949E+02</pdfrwt>
<totfact> 0.31927198E+04</totfact>
</mgrwt>
</event>
<event>
 7    1  0.1312339E-009  0.9193845E+02  0.7818608E-02  0.1298224E+00
         -3   -1    0    0    0  501 -0.00000000000E+00  0.00000000000E+00  0.71551639665E+03  0.71551640378E+03  0.10100000000E+00 0.  1.
          3   -1    0    0  501    0  0.00000000000E+00 -0.00000000000E+00 -0.29524780681E+01  0.29542050949E+01  0.10100000000E+00 0. -1.
         23    2    1    2    0    0  0.00000000000E+00  0.00000000000E+00  0.71256391858E+03  0.71847060887E+03  0.91938445440E+02 0.  0.
    9000005    2    3    3    0    0 -0.32220522776E+02  0.28835097874E+02  0.46275713916E+03  0.46494930404E+03  0.12808611547E+02 0.  0.
         22    1    3    3    0    0  0.32220522776E+02 -0.28835097874E+02  0.24980677942E+03  0.25352130483E+03  0.00000000000E+00 0. -1.
         22    1    4    4    0    0 -0.30853905745E+02  0.21496087634E+02  0.39195039405E+03  0.39375011959E+03  0.00000000000E+00 0. -1.
         22    1    4    4    0    0 -0.13666170312E+01  0.73390102403E+01  0.70806745111E+02  0.71199184452E+02  0.00000000000E+00 0. -1.
<mgrwt>
<rscale>  0 0.91938445E+02</rscale>
<asrwt>0</asrwt>
<pdfrwt beam="2">  1        3 0.45436015E-03 0.91938445E+02</pdfrwt>
<pdfrwt beam="1">  1       -3 0.11007973E+00 0.91938445E+02</pdfrwt>
<totfact> 0.13290266E+04</totfact>
</mgrwt>
</event>
<event>
 7    1  0.1312339E-009  0.9217616E+02  0.7818608E-02  0.1297666E+00
         -3   -1    0    0    0  501 -0.00000000000E+00  0.00000000000E+00  0.20403801086E+03  0.20403803586E+03  0.10100000000E+00 0.  1.
          3   -1    0    0  501    0  0.00000000000E+00 -0.00000000000E+00 -0.10410099339E+02  0.10410589285E+02  0.10100000000E+00 0. -1.
         23    2    1    2    0    0  0.00000000000E+00 -0.71054273576E-14  0.19362791152E+03  0.21444862514E+03  0.92176161265E+02 0.  0.
    9000005    2    3    3    0    0  0.64334359050E+01 -0.44752902095E+02  0.95511631454E+02  0.10641614967E+03  0.12558416429E+02 0.  0.
         22    1    3    3    0    0 -0.64334359050E+01  0.44752902095E+02  0.98116280065E+02  0.10803247547E+03  0.00000000000E+00 0. -1.
         22    1    4    4    0    0  0.90694769078E+01 -0.24602346700E+02  0.60428425220E+02  0.65872038446E+02  0.00000000000E+00 0. -1.
         22    1    4    4    0    0 -0.26360410028E+01 -0.20150555395E+02  0.35083206235E+02  0.40544111220E+02  0.00000000000E+00 0. -1.
<mgrwt>
<rscale>  0 0.92176161E+02</rscale>
<asrwt>0</asrwt>
<pdfrwt beam="2">  1        3 0.16015933E-02 0.92176161E+02</pdfrwt>
<pdfrwt beam="1">  1       -3 0.31390504E-01 0.92176161E+02</pdfrwt>
<totfact> 0.26960683E+04</totfact>
</mgrwt>
</event>
<event>
 7    1  0.1312339E-009  0.9083353E+02  0.7818608E-02  0.1300846E+00
         -3   -1    0    0    0  501 -0.00000000000E+00  0.00000000000E+00  0.69768258564E+02  0.69768331670E+02  0.10100000000E+00 0.  1.
          3   -1    0    0  501    0  0.00000000000E+00 -0.00000000000E+00 -0.29564592536E+02  0.29564765056E+02  0.10100000000E+00 0. -1.
         23    2    1    2    0    0  0.00000000000E+00 -0.35527136788E-14  0.40203666028E+02  0.99333096726E+02  0.90833525436E+02 0.  0.
    9000005    2    3    3    0    0 -0.31749757984E+02 -0.29590835656E+02  0.12639578211E+02  0.47918666611E+02  0.15898898880E+02 0.  0.
         22    1    3    3    0    0  0.31749757984E+02  0.29590835656E+02  0.27564087817E+02  0.51414430115E+02  0.00000000000E+00 0.  1.
         22    1    4    4    0    0 -0.18923846596E+02 -0.22883108788E+02  0.14976418665E+02  0.33257206043E+02  0.00000000000E+00 0.  1.
         22    1    4    4    0    0 -0.12825911388E+02 -0.67077268683E+01 -0.23368404542E+01  0.14661460568E+02  0.00000000000E+00 0.  1.
<mgrwt>
<rscale>  0 0.90833525E+02</rscale>
<asrwt>0</asrwt>
<pdfrwt beam="2">  1        3 0.45484178E-02 0.90833525E+02</pdfrwt>
<pdfrwt beam="1">  1       -3 0.10733597E-01 0.90833525E+02</pdfrwt>
<totfact> 0.35080063E+04</totfact>
</mgrwt>
</event>
<event>
 7    1  0.1312339E-009  0.9493690E+02  0.7818608E-02  0.1291318E+00
         -3   -1    0    0    0  501 -0.00000000000E+00  0.00000000000E+00  0.18606712875E+02  0.18606986994E+02  0.10100000000E+00 0.  1.
          3   -1    0    0  501    0  0.00000000000E+00 -0.00000000000E+00 -0.12109777021E+03  0.12109781233E+03  0.10100000000E+00 0. -1.
         23    2    1    2    0    0  0.35527136788E-14 -0.35527136788E-14 -0.10249105734E+03  0.13970479933E+03  0.94936895464E+02 0.  0.
    9000005    2    3    3    0    0 -0.31410972149E+02  0.25943760315E+02 -0.15729591953E+02  0.43854500701E+02  0.40086529067E+01 0.  0.
         22    1    3    3    0    0  0.31410972149E+02 -0.25943760315E+02 -0.86761465387E+02  0.95850298626E+02  0.00000000000E+00 0. -1.
         22    1    4    4    0    0 -0.30349634508E+02  0.24771084919E+02 -0.15867560934E+02  0.42266848154E+02  0.00000000000E+00 0. -1.
         22    1    4    4    0    0 -0.10613376404E+01  0.11726753961E+01  0.13796898119E+00  0.15876525474E+01  0.00000000000E+00 0. -1.
<mgrwt>
<rscale>  0 0.94936895E+02</rscale>
<asrwt>0</asrwt>
<pdfrwt beam="2">  1        3 0.18630450E-01 0.94936895E+02</pdfrwt>
<pdfrwt beam="1">  1       -3 0.28625956E-02 0.94936895E+02</pdfrwt>
<totfact> 0.28622547E+04</totfact>
</mgrwt>
</event>
<event>
 7    1  0.1312339E-009  0.9118118E+02  0.7818608E-02  0.1300016E+00
          3   -1    0    0  501    0  0.00000000000E+00  0.00000000000E+00  0.41169656918E+03  0.41169658157E+03  0.10100000000E+00 0. -1.
         -3   -1    0    0    0  501 -0.00000000000E+00 -0.00000000000E+00 -0.50481085475E+01  0.50491188249E+01  0.10100000000E+00 0.  1.
         23    2    1    2    0    0  0.00000000000E+00  0.00000000000E+00  0.40664846063E+03  0.41674570039E+03  0.91181183706E+02 0.  0.
    9000005    2    3    3    0    0  0.58070054231E+01  0.44931574766E+02  0.20856843528E+03  0.21355056224E+03  0.71051191319E+01 0.  0.
         22    1    3    3    0    0 -0.58070054231E+01 -0.44931574766E+02  0.19808002536E+03  0.20319513815E+03  0.00000000000E+00 0. -1.
         22    1    4    4    0    0  0.92499046625E+00  0.32348063225E+02  0.14678535663E+03  0.15031032474E+03  0.00000000000E+00 0.  1.
         22    1    4    4    0    0  0.48820149568E+01  0.12583511541E+02  0.61783078645E+02  0.63240237505E+02  0.00000000000E+00 0.  1.
<mgrwt>
<rscale>  0 0.91181184E+02</rscale>
<asrwt>0</asrwt>
<pdfrwt beam="1">  1        3 0.63338037E-01 0.91181184E+02</pdfrwt>
<pdfrwt beam="2">  1       -3 0.77671045E-03 0.91181184E+02</pdfrwt>
<totfact> 0.20116416E+04</totfact>
</mgrwt>
</event>
<event>
 7    1  0.1312339E-009  0.1043561E+03  0.7818608E-02  0.1271393E+00
         -3   -1    0    0    0  501 -0.00000000000E+00  0.00000000000E+00  0.80614332655E+01  0.80620659445E+01  0.10100000000E+00 0.  1.
          3   -1    0    0  501    0  0.00000000000E+00 -0.00000000000E+00 -0.33771141988E+03  0.33771143499E+03  0.10100000000E+00 0. -1.
         23    2    1    2    0    0  0.00000000000E+00  0.44408920985E-15 -0.32964998662E+03  0.34577350093E+03  0.10435612234E+03 0.  0.
    9000005    2    3    3    0    0 -0.50354834431E+02  0.21914405042E+01 -0.20469122181E+03  0.21103262122E+03  0.97907697548E+01 0.  0.
         22    1    3    3    0    0  0.50354834431E+02 -0.21914405042E+01 -0.12495876481E+03  0.13474087971E+03  0.00000000000E+00 0.  1.
         22    1    4    4    0    0 -0.21554379814E+02  0.45970136374E+01 -0.10188021207E+03  0.10423675665E+03  0.00000000000E+00 0. -1.
         22    1    4    4    0    0 -0.28800454616E+02 -0.24055731332E+01 -0.10281100974E+03  0.10679586458E+03  0.00000000000E+00 0. -1.
<mgrwt>
<rscale>  0 0.10435612E+03</rscale>
<asrwt>0</asrwt>
<pdfrwt beam="2">  1        3 0.51955642E-01 0.10435612E+03</pdfrwt>
<pdfrwt beam="1">  1       -3 0.12402706E-02 0.10435612E+03</pdfrwt>
<totfact> 0.15526775E+04</totfact>
</mgrwt>
</event>
<event>
 7    1  0.1312339E-009  0.1258639E+03  0.7818608E-02  0.1233725E+00
          3   -1    0    0  501    0  0.00000000000E+00  0.00000000000E+00  0.87826530907E+03  0.87826531487E+03  0.10100000000E+00 0. -1.
         -3   -1    0    0    0  501 -0.00000000000E+00 -0.00000000000E+00 -0.45088098575E+01  0.45099409454E+01  0.10100000000E+00 0.  1.
         23    2    1    2    0    0  0.00000000000E+00  0.00000000000E+00  0.87375649921E+03  0.88277525582E+03  0.12586394391E+03 0.  0.
    9000005    2    3    3    0    0  0.60569195749E+02 -0.12564935449E+02  0.51340769617E+03  0.51715555596E+03  0.59917854811E+01 0.  0.
         22    1    3    3    0    0 -0.60569195749E+02  0.12564935449E+02  0.36034880304E+03  0.36561969986E+03  0.00000000000E+00 0.  1.
         22    1    4    4    0    0  0.29953061870E+02 -0.88221006056E+01  0.27130638378E+03  0.27309736223E+03  0.00000000000E+00 0. -1.
         22    1    4    4    0    0  0.30616133878E+02 -0.37428348431E+01  0.24210131239E+03  0.24405819373E+03  0.00000000000E+00 0. -1.
<mgrwt>
<rscale>  0 0.12586394E+03</rscale>
<asrwt>0</asrwt>
<pdfrwt beam="1">  1        3 0.13511777E+00 0.12586394E+03</pdfrwt>
<pdfrwt beam="2">  1       -3 0.69375082E-03 0.12586394E+03</pdfrwt>
<totfact> 0.47385166E+03</totfact>
</mgrwt>
</event>
<event>
 7    1  0.1312339E-009  0.9164468E+02  0.7818608E-02  0.1298917E+00
         -3   -1    0    0    0  501 -0.00000000000E+00  0.00000000000E+00  0.12634935893E+02  0.12635339569E+02  0.10100000000E+00 0.  1.
          3   -1    0    0  501    0  0.00000000000E+00 -0.00000000000E+00 -0.16617795562E+03  0.16617798631E+03  0.10100000000E+00 0. -1.
         23    2    1    2    0    0  0.00000000000E+00  0.00000000000E+00 -0.15354301972E+03  0.17881332588E+03  0.91644675819E+02 0.  0.
    9000005    2    3    3    0    0 -0.46157042354E+01 -0.44537929812E+02 -0.93651254824E+02  0.10403394757E+03  0.68973037699E+01 0.  0.
         22    1    3    3    0    0  0.46157042354E+01  0.44537929812E+02 -0.59891764900E+02  0.74779378309E+02  0.00000000000E+00 0.  1.
         22    1    4    4    0    0  0.15287361545E+01 -0.15234429352E+02 -0.29344487112E+02  0.33098697796E+02  0.00000000000E+00 0. -1.
         22    1    4    4    0    0 -0.61444403900E+01 -0.29303500460E+02 -0.64306767713E+02  0.70935249774E+02  0.00000000000E+00 0. -1.
<mgrwt>
<rscale>  0 0.91644676E+02</rscale>
<asrwt>0</asrwt>
<pdfrwt beam="2">  1        3 0.25565871E-01 0.91644676E+02</pdfrwt>
<pdfrwt beam="1">  1       -3 0.19438698E-02 0.91644676E+02</pdfrwt>
<totfact> 0.29223985E+04</totfact>
</mgrwt>
</event>
<event>
 7    1  0.1312339E-009  0.9007091E+02  0.7818608E-02  0.1302680E+00
         -3   -1    0    0    0  501 -0.00000000000E+00  0.00000000000E+00  0.60464657419E+02  0.60464741774E+02  0.10100000000E+00 0.  1.
          3   -1    0    0  501    0  0.00000000000E+00 -0.00000000000E+00 -0.33543245920E+02  0.33543397977E+02  0.10100000000E+00 0. -1.
         23    2    1    2    0    0  0.00000000000E+00 -0.17763568394E-14  0.26921411499E+02  0.94008139751E+02  0.90070905083E+02 0.  0.
    9000005    2    3    3    0    0 -0.34441982229E+02 -0.10663319773E+02 -0.14165054152E+02  0.39345042618E+02  0.68867329731E+01 0.  0.
         22    1    3    3    0    0  0.34441982229E+02  0.10663319773E+02  0.41086465651E+02  0.54663097133E+02  0.00000000000E+00 0.  1.
         22    1    4    4    0    0 -0.24451209406E+02 -0.62163443986E+01 -0.12901746054E+02  0.28336542314E+02  0.00000000000E+00 0. -1.
         22    1    4    4    0    0 -0.99907728239E+01 -0.44469753749E+01 -0.12633080979E+01  0.11008500304E+02  0.00000000000E+00 0. -1.
<mgrwt>
<rscale>  0 0.90070905E+02</rscale>
<asrwt>0</asrwt>
<pdfrwt beam="2">  1        3 0.51605176E-02 0.90070905E+02</pdfrwt>
<pdfrwt beam="1">  1       -3 0.93022732E-02 0.90070905E+02</pdfrwt>
<totfact> 0.36307235E+04</totfact>
</mgrwt>
</event>
<event>
 7    1  0.1312339E-009  0.8980499E+02  0.7818608E-02  0.1303325E+00
         -3   -1    0    0    0  501 -0.00000000000E+00  0.00000000000E+00  0.22676823086E+02  0.22677048006E+02  0.10100000000E+00 0.  1.
          3   -1    0    0  501    0  0.00000000000E+00 -0.00000000000E+00 -0.88910961465E+02  0.88911018831E+02  0.10100000000E+00 0. -1.
         23    2    1    2    0    0  0.71054273576E-14  0.00000000000E+00 -0.66234138379E+02  0.11158806684E+03  0.89804986352E+02 0.  0.
    9000005    2    3    3    0    0  0.39846536423E+02 -0.19798472561E+02 -0.38754767965E+02  0.59292352109E+02  0.58245169700E+01 0.  0.
         22    1    3    3    0    0 -0.39846536423E+02  0.19798472561E+02 -0.27479370413E+02  0.52295714728E+02  0.00000000000E+00 0.  1.
         22    1    4    4    0    0  0.27990460734E+02 -0.15485412141E+02 -0.24768895975E+02  0.40456916456E+02  0.00000000000E+00 0.  1.
         22    1    4    4    0    0  0.11856075689E+02 -0.43130604197E+01 -0.13985871990E+02  0.18835435653E+02  0.00000000000E+00 0.  1.
<mgrwt>
<rscale>  0 0.89804986E+02</rscale>
<asrwt>0</asrwt>
<pdfrwt beam="2">  1        3 0.13678631E-01 0.89804986E+02</pdfrwt>
<pdfrwt beam="1">  1       -3 0.34887638E-02 0.89804986E+02</pdfrwt>
<totfact> 0.35251650E+04</totfact>
</mgrwt>
</event>
<event>
 7    1  0.1312339E-009  0.8951286E+02  0.7818608E-02  0.1304036E+00
          3   -1    0    0  501    0  0.00000000000E+00  0.00000000000E+00  0.29001330500E+02  0.29001506371E+02  0.10100000000E+00 0. -1.
         -3   -1    0    0    0  501 -0.00000000000E+00 -0.00000000000E+00 -0.69070132417E+02  0.69070206262E+02  0.10100000000E+00 0.  1.
         23    2    1    2    0    0 -0.88817841970E-15  0.00000000000E+00 -0.40068801917E+02  0.98071712633E+02  0.89512859030E+02 0.  0.
    9000005    2    3    3    0    0  0.77235998964E+01 -0.11563461760E+02 -0.65837606245E+02  0.68790337670E+02  0.14288195039E+02 0.  0.
         22    1    3    3    0    0 -0.77235998964E+01  0.11563461760E+02  0.25768804328E+02  0.29281374963E+02  0.00000000000E+00 0. -1.
         22    1    4    4    0    0  0.75545556013E+01 -0.79612144355E+01 -0.63613757919E+02  0.64553562583E+02  0.00000000000E+00 0. -1.
         22    1    4    4    0    0  0.16904429512E+00 -0.36022473245E+01 -0.22238483263E+01  0.42367750871E+01  0.00000000000E+00 0. -1.
<mgrwt>
<rscale>  0 0.89512859E+02</rscale>
<asrwt>0</asrwt>
<pdfrwt beam="1">  1        3 0.44617624E-02 0.89512859E+02</pdfrwt>
<pdfrwt beam="2">  1       -3 0.10626193E-01 0.89512859E+02</pdfrwt>
<totfact> 0.36601641E+04</totfact>
</mgrwt>
</event>
<event>
 7    1  0.1312339E-009  0.7596073E+02  0.7818608E-02  0.1340922E+00
         -3   -1    0    0    0  501 -0.00000000000E+00  0.00000000000E+00  0.60942304987E+01  0.60950673804E+01  0.10100000000E+00 0.  1.
          3   -1    0    0  501    0  0.00000000000E+00 -0.00000000000E+00 -0.23668353204E+03  0.23668355359E+03  0.10100000000E+00 0. -1.
         23    2    1    2    0    0  0.00000000000E+00  0.00000000000E+00 -0.23058930154E+03  0.24277862097E+03  0.75960732059E+02 0.  0.
    9000005    2    3    3    0    0 -0.18967753500E+02  0.89365349737E+01 -0.21599617001E+03  0.21723264638E+03  0.97999929121E+01 0.  0.
         22    1    3    3    0    0  0.18967753500E+02 -0.89365349737E+01 -0.14593131528E+02  0.25545974594E+02  0.00000000000E+00 0.  1.
         22    1    4    4    0    0 -0.11466027913E+02  0.70627053155E+01 -0.90273793073E+02  0.91272719463E+02  0.00000000000E+00 0.  1.
         22    1    4    4    0    0 -0.75017255870E+01  0.18738296582E+01 -0.12572237694E+03  0.12595992691E+03  0.00000000000E+00 0.  1.
<mgrwt>
<rscale>  0 0.75960732E+02</rscale>
<asrwt>0</asrwt>
<pdfrwt beam="2">  1        3 0.36412910E-01 0.75960732E+02</pdfrwt>
<pdfrwt beam="1">  1       -3 0.93764014E-03 0.75960732E+02</pdfrwt>
<totfact> 0.42957885E+04</totfact>
</mgrwt>
</event>
<event>
 7    1  0.1312339E-009  0.9046949E+02  0.7818608E-02  0.1301719E+00
          3   -1    0    0  501    0  0.00000000000E+00  0.00000000000E+00  0.77410840263E+01  0.77417428853E+01  0.10100000000E+00 0. -1.
         -3   -1    0    0    0  501 -0.00000000000E+00 -0.00000000000E+00 -0.26431569598E+03  0.26431571528E+03  0.10100000000E+00 0.  1.
         23    2    1    2    0    0  0.35527136788E-14  0.35527136788E-14 -0.25657461195E+03  0.27205745816E+03  0.90469492331E+02 0.  0.
    9000005    2    3    3    0    0  0.30363445827E+02  0.30328060461E+02 -0.99455139044E+02  0.10918247893E+03  0.13702515403E+02 0.  0.
         22    1    3    3    0    0 -0.30363445827E+02 -0.30328060461E+02 -0.15711947291E+03  0.16287497924E+03  0.00000000000E+00 0.  1.
         22    1    4    4    0    0  0.24138483637E+02  0.23411212978E+02 -0.61388903633E+02  0.69995348236E+02  0.00000000000E+00 0.  1.
         22    1    4    4    0    0  0.62249621902E+01  0.69168474828E+01 -0.38066235410E+02  0.39187130690E+02  0.00000000000E+00 0.  1.
<mgrwt>
<rscale>  0 0.90469492E+02</rscale>
<asrwt>0</asrwt>
<pdfrwt beam="1">  1        3 0.11909884E-02 0.90469492E+02</pdfrwt>
<pdfrwt beam="2">  1       -3 0.40663998E-01 0.90469492E+02</pdfrwt>
<totfact> 0.25679488E+04</totfact>
</mgrwt>
</event>
<event>
 7    1  0.1312339E-009  0.9179032E+02  0.7818608E-02  0.1298573E+00
         -3   -1    0    0    0  501 -0.00000000000E+00  0.00000000000E+00  0.19153136052E+02  0.19153402351E+02  0.10100000000E+00 0.  1.
          3   -1    0    0  501    0  0.00000000000E+00 -0.00000000000E+00 -0.10997391188E+03  0.10997395826E+03  0.10100000000E+00 0. -1.
         23    2    1    2    0    0  0.00000000000E+00  0.00000000000E+00 -0.90820775833E+02  0.12912736062E+03  0.91790315048E+02 0.  0.
    9000005    2    3    3    0    0 -0.12278308015E+02  0.16870517476E+02  0.92441998825E+01  0.26910089215E+02  0.14259258833E+02 0.  0.
         22    1    3    3    0    0  0.12278308015E+02 -0.16870517476E+02 -0.10006497572E+03  0.10221727140E+03  0.00000000000E+00 0. -1.
         22    1    4    4    0    0 -0.14248629953E+02  0.17493397684E+02  0.65091194727E+01  0.23482143309E+02  0.00000000000E+00 0. -1.
         22    1    4    4    0    0  0.19703219378E+01 -0.62288020746E+00  0.27350804097E+01  0.34279459067E+01  0.00000000000E+00 0. -1.
<mgrwt>
<rscale>  0 0.91790315E+02</rscale>
<asrwt>0</asrwt>
<pdfrwt beam="2">  1        3 0.16919087E-01 0.91790315E+02</pdfrwt>
<pdfrwt beam="1">  1       -3 0.29466604E-02 0.91790315E+02</pdfrwt>
<totfact> 0.32043784E+04</totfact>
</mgrwt>
</event>
<event>
 7    1  0.1312339E-009  0.9128128E+02  0.7818608E-02  0.1299778E+00
          3   -1    0    0  501    0  0.00000000000E+00  0.00000000000E+00  0.26122466901E+03  0.26122468853E+03  0.10100000000E+00 0. -1.
         -3   -1    0    0    0  501 -0.00000000000E+00 -0.00000000000E+00 -0.79738999177E+01  0.79745395414E+01  0.10100000000E+00 0.  1.
         23    2    1    2    0    0  0.00000000000E+00  0.00000000000E+00  0.25325076909E+03  0.26919922808E+03  0.91281281494E+02 0.  0.
    9000005    2    3    3    0    0 -0.10717820691E+02  0.11708529186E+02  0.25277328010E+03  0.25331875794E+03  0.49092418107E+01 0.  0.
         22    1    3    3    0    0  0.10717820691E+02 -0.11708529186E+02  0.47748899277E+00  0.15880470138E+02  0.00000000000E+00 0.  1.
         22    1    4    4    0    0 -0.43195876133E+01  0.66353236151E+01  0.15635683217E+03  0.15655716312E+03  0.00000000000E+00 0. -1.
         22    1    4    4    0    0 -0.63982330781E+01  0.50732055709E+01  0.96416447928E+02  0.96761594821E+02  0.00000000000E+00 0. -1.
<mgrwt>
<rscale>  0 0.91281281E+02</rscale>
<asrwt>0</asrwt>
<pdfrwt beam="1">  1        3 0.40188466E-01 0.91281281E+02</pdfrwt>
<pdfrwt beam="2">  1       -3 0.12268044E-02 0.91281281E+02</pdfrwt>
<totfact> 0.25196214E+04</totfact>
</mgrwt>
</event>
<event>
 7    1  0.1312339E-009  0.9388944E+02  0.7818608E-02  0.1293697E+00
         -3   -1    0    0    0  501 -0.00000000000E+00  0.00000000000E+00  0.13766477038E+03  0.13766480743E+03  0.10100000000E+00 0.  1.
          3   -1    0    0  501    0  0.00000000000E+00 -0.00000000000E+00 -0.16008304805E+02  0.16008623417E+02  0.10100000000E+00 0. -1.
         23    2    1    2    0    0  0.71054273576E-14 -0.44408920985E-15  0.12165646557E+03  0.15367343084E+03  0.93889444198E+02 0.  0.
    9000005    2    3    3    0    0 -0.37549196434E+02  0.37694281919E+01  0.10637886916E+03  0.11296034089E+03  0.44072744770E+01 0.  0.
         22    1    3    3    0    0  0.37549196434E+02 -0.37694281919E+01  0.15277596416E+02  0.40713089958E+02  0.00000000000E+00 0. -1.
         22    1    4    4    0    0 -0.14370147461E+02 -0.22289358452E+00  0.36399067213E+02  0.39133654488E+02  0.00000000000E+00 0. -1.
         22    1    4    4    0    0 -0.23179048972E+02  0.39923217764E+01  0.69979801943E+02  0.73826686397E+02  0.00000000000E+00 0. -1.
<mgrwt>
<rscale>  0 0.93889444E+02</rscale>
<asrwt>0</asrwt>
<pdfrwt beam="2">  1        3 0.24628434E-02 0.93889444E+02</pdfrwt>
<pdfrwt beam="1">  1       -3 0.21179224E-01 0.93889444E+02</pdfrwt>
<totfact> 0.28705663E+04</totfact>
</mgrwt>
</event>
<event>
 7    1  0.1312339E-009  0.8918207E+02  0.7818608E-02  0.1304845E+00
          3   -1    0    0  501    0  0.00000000000E+00  0.00000000000E+00  0.22771369323E+02  0.22771593309E+02  0.10100000000E+00 0. -1.
         -3   -1    0    0    0  501 -0.00000000000E+00 -0.00000000000E+00 -0.87317748828E+02  0.87317807241E+02  0.10100000000E+00 0.  1.
         23    2    1    2    0    0  0.00000000000E+00 -0.33306690739E-15 -0.64546379505E+02  0.11008940055E+03  0.89182066618E+02 0.  0.
    9000005    2    3    3    0    0 -0.25499489968E+02 -0.67479238751E+00  0.11034467409E+02  0.30320084685E+02  0.12118940997E+02 0.  0.
         22    1    3    3    0    0  0.25499489968E+02  0.67479238751E+00 -0.75580846914E+02  0.79769315865E+02  0.00000000000E+00 0.  1.
         22    1    4    4    0    0 -0.20062570497E+02 -0.56771523999E+01  0.79706920791E+01  0.22321933754E+02  0.00000000000E+00 0.  1.
         22    1    4    4    0    0 -0.54369194714E+01  0.50023600124E+01  0.30637753302E+01  0.79981509305E+01  0.00000000000E+00 0.  1.
<mgrwt>
<rscale>  0 0.89182067E+02</rscale>
<asrwt>0</asrwt>
<pdfrwt beam="1">  1        3 0.35033094E-02 0.89182067E+02</pdfrwt>
<pdfrwt beam="2">  1       -3 0.13433521E-01 0.89182067E+02</pdfrwt>
<totfact> 0.36037595E+04</totfact>
</mgrwt>
</event>
<event>
 7    1  0.1312339E-009  0.9097776E+02  0.7818608E-02  0.1300501E+00
         -3   -1    0    0    0  501 -0.00000000000E+00  0.00000000000E+00  0.58384925903E+02  0.58385013263E+02  0.10100000000E+00 0.  1.
          3   -1    0    0  501    0  0.00000000000E+00 -0.00000000000E+00 -0.35441125554E+02  0.35441269468E+02  0.10100000000E+00 0. -1.
         23    2    1    2    0    0 -0.17763568394E-14  0.00000000000E+00  0.22943800350E+02  0.93826282731E+02  0.90977762979E+02 0.  0.
    9000005    2    3    3    0    0  0.14510034643E+02  0.32479340677E+02  0.38689498565E+02  0.54924153118E+02  0.15947934673E+02 0.  0.
         22    1    3    3    0    0 -0.14510034643E+02 -0.32479340677E+02 -0.15745698216E+02  0.38902129613E+02  0.00000000000E+00 0. -1.
         22    1    4    4    0    0 -0.21705882884E+01  0.13681928279E+02  0.13771112496E+02  0.19533308842E+02  0.00000000000E+00 0.  1.
         22    1    4    4    0    0  0.16680622931E+02  0.18797412398E+02  0.24918386069E+02  0.35390844276E+02  0.00000000000E+00 0.  1.
<mgrwt>
<rscale>  0 0.90977763E+02</rscale>
<asrwt>0</asrwt>
<pdfrwt beam="2">  1        3 0.54524987E-02 0.90977763E+02</pdfrwt>
<pdfrwt beam="1">  1       -3 0.89823141E-02 0.90977763E+02</pdfrwt>
<totfact> 0.35346735E+04</totfact>
</mgrwt>
</event>
<event>
 7    1  0.1312339E-009  0.8930034E+02  0.7818608E-02  0.1304555E+00
         -3   -1    0    0    0  501 -0.00000000000E+00  0.00000000000E+00  0.21840306795E+01  0.21863647932E+01  0.10100000000E+00 0.  1.
          3   -1    0    0  501    0  0.00000000000E+00 -0.00000000000E+00 -0.91233518122E+03  0.91233518681E+03  0.10100000000E+00 0. -1.
         23    2    1    2    0    0 -0.71054273576E-14  0.00000000000E+00 -0.91015115054E+03  0.91452155161E+03  0.89300344443E+02 0.  0.
    9000005    2    3    3    0    0  0.32765004709E+02  0.15272453241E+02 -0.72163278939E+03  0.72256852127E+03  0.66777131664E+01 0.  0.
         22    1    3    3    0    0 -0.32765004709E+02 -0.15272453241E+02 -0.18851836116E+03  0.19195303033E+03  0.00000000000E+00 0.  1.
         22    1    4    4    0    0  0.32068089791E+02  0.15288292527E+02 -0.71736839991E+03  0.71824753077E+03  0.00000000000E+00 0.  1.
         22    1    4    4    0    0  0.69691491782E+00 -0.15839285927E-01 -0.42643894763E+01  0.43209904988E+01  0.00000000000E+00 0.  1.
<mgrwt>
<rscale>  0 0.89300344E+02</rscale>
<asrwt>0</asrwt>
<pdfrwt beam="2">  1        3 0.14035914E+00 0.89300344E+02</pdfrwt>
<pdfrwt beam="1">  1       -3 0.33618542E-03 0.89300344E+02</pdfrwt>
<totfact> 0.11577550E+04</totfact>
</mgrwt>
</event>
<event>
 7    1  0.1312339E-009  0.9350904E+02  0.7818608E-02  0.1294570E+00
         -3   -1    0    0    0  501 -0.00000000000E+00  0.00000000000E+00  0.18506156455E+03  0.18506159212E+03  0.10100000000E+00 0.  1.
          3   -1    0    0  501    0  0.00000000000E+00 -0.00000000000E+00 -0.11811960021E+02  0.11812391821E+02  0.10100000000E+00 0. -1.
         23    2    1    2    0    0  0.88817841970E-15  0.35527136788E-14  0.17324960453E+03  0.19687398394E+03  0.93509037424E+02 0.  0.
    9000005    2    3    3    0    0  0.73049263184E+01  0.18848688175E+02  0.17522284805E+03  0.17656318178E+03  0.79294189609E+01 0.  0.
         22    1    3    3    0    0 -0.73049263184E+01 -0.18848688175E+02 -0.19732435174E+01  0.20310802161E+02  0.00000000000E+00 0. -1.
         22    1    4    4    0    0  0.20140125300E+01  0.10198527747E+02  0.11727654668E+03  0.11773637762E+03  0.00000000000E+00 0. -1.
         22    1    4    4    0    0  0.52909137884E+01  0.86501604282E+01  0.57946301371E+02  0.58826804151E+02  0.00000000000E+00 0. -1.
<mgrwt>
<rscale>  0 0.93509037E+02</rscale>
<asrwt>0</asrwt>
<pdfrwt beam="2">  1        3 0.18172600E-02 0.93509037E+02</pdfrwt>
<pdfrwt beam="1">  1       -3 0.28471044E-01 0.93509037E+02</pdfrwt>
<totfact> 0.26766393E+04</totfact>
</mgrwt>
</event>
<event>
 7    1  0.1312339E-009  0.9523285E+02  0.7818608E-02  0.1290653E+00
         -3   -1    0    0    0  501 -0.00000000000E+00  0.00000000000E+00  0.20954869728E+03  0.20954872162E+03  0.10100000000E+00 0.  1.
          3   -1    0    0  501    0  0.00000000000E+00 -0.00000000000E+00 -0.10819773681E+02  0.10820245076E+02  0.10100000000E+00 0. -1.
         23    2    1    2    0    0  0.88817841970E-15  0.00000000000E+00  0.19872892360E+03  0.22036896670E+03  0.95232853616E+02 0.  0.
    9000005    2    3    3    0    0 -0.47861812134E+01  0.13015885003E+02  0.20461163636E+03  0.20530486691E+03  0.95836241031E+01 0.  0.
         22    1    3    3    0    0  0.47861812134E+01 -0.13015885003E+02 -0.58827127572E+01  0.15064099787E+02  0.00000000000E+00 0. -1.
         22    1    4    4    0    0 -0.35613186314E+01  0.12573829406E+02  0.20160789447E+03  0.20203100576E+03  0.00000000000E+00 0.  1.
         22    1    4    4    0    0 -0.12248625820E+01  0.44205559732E+00  0.30037418935E+01  0.32738611544E+01  0.00000000000E+00 0.  1.
<mgrwt>
<rscale>  0 0.95232854E+02</rscale>
<asrwt>0</asrwt>
<pdfrwt beam="2">  1        3 0.16646189E-02 0.95232854E+02</pdfrwt>
<pdfrwt beam="1">  1       -3 0.32238296E-01 0.95232854E+02</pdfrwt>
<totfact> 0.24424574E+04</totfact>
</mgrwt>
</event>
<event>
 7    1  0.1312339E-009  0.9022120E+02  0.7818608E-02  0.1302317E+00
         -3   -1    0    0    0  501 -0.00000000000E+00  0.00000000000E+00  0.17836839412E+03  0.17836842272E+03  0.10100000000E+00 0.  1.
          3   -1    0    0  501    0  0.00000000000E+00 -0.00000000000E+00 -0.11408529469E+02  0.11408976539E+02  0.10100000000E+00 0. -1.
         23    2    1    2    0    0  0.00000000000E+00  0.00000000000E+00  0.16695986465E+03  0.18977739925E+03  0.90221199634E+02 0.  0.
    9000005    2    3    3    0    0 -0.93582042508E+01 -0.34245343762E+02  0.31930454525E+02  0.50159129837E+02  0.15364401179E+02 0.  0.
         22    1    3    3    0    0  0.93582042508E+01  0.34245343762E+02  0.13502941013E+03  0.13961826942E+03  0.00000000000E+00 0.  1.
         22    1    4    4    0    0 -0.94694340347E+01 -0.81152118696E+01  0.11864046890E+02  0.17212857207E+02  0.00000000000E+00 0. -1.
         22    1    4    4    0    0  0.11122978387E+00 -0.26130131893E+02  0.20066407635E+02  0.32946272629E+02  0.00000000000E+00 0. -1.
<mgrwt>
<rscale>  0 0.90221200E+02</rscale>
<asrwt>0</asrwt>
<pdfrwt beam="2">  1        3 0.17551951E-02 0.90221200E+02</pdfrwt>
<pdfrwt beam="1">  1       -3 0.27441327E-01 0.90221200E+02</pdfrwt>
<totfact> 0.29871456E+04</totfact>
</mgrwt>
</event>
<event>
 6    1  0.1312339E-009  0.1299442E+03  0.7818608E-02  0.1227539E+00
          3   -1    0    0  501    0  0.00000000000E+00  0.00000000000E+00  0.56039057303E+03  0.56039058214E+03  0.10100000000E+00 0. -1.
         -3   -1    0    0    0  501 -0.00000000000E+00 -0.00000000000E+00 -0.75325697602E+01  0.75332468559E+01  0.10100000000E+00 0.  1.
    9000005    2    1    2    0    0 -0.38701107453E+02 -0.51301984831E+01  0.50299172342E+03  0.50459342144E+03  0.94737781694E+01 0.  0.
         22    1    1    2    0    0  0.38701107453E+02  0.51301984831E+01  0.49866279849E+02  0.63330407551E+02  0.00000000000E+00 0.  1.
         22    1    3    3    0    0 -0.72815615607E+01 -0.22734394602E+00  0.55982325234E+02  0.56454349369E+02  0.00000000000E+00 0.  1.
         22    1    3    3    0    0 -0.31419545893E+02 -0.49028545371E+01  0.44700939819E+03  0.44813907207E+03  0.00000000000E+00 0.  1.
<mgrwt>
<rscale>  0 0.12994423E+03</rscale>
<asrwt>0</asrwt>
<pdfrwt beam="1">  1        3 0.86214022E-01 0.12994423E+03</pdfrwt>
<pdfrwt beam="2">  1       -3 0.11589092E-02 0.12994423E+03</pdfrwt>
<totfact> 0.62493092E+03</totfact>
</mgrwt>
</event>
<event>
 7    1  0.1312339E-009  0.9015823E+02  0.7818608E-02  0.1302469E+00
         -3   -1    0    0    0  501 -0.00000000000E+00  0.00000000000E+00  0.23124453665E+02  0.23124674231E+02  0.10100000000E+00 0.  1.
          3   -1    0    0  501    0  0.00000000000E+00 -0.00000000000E+00 -0.87877157801E+02  0.87877215842E+02  0.10100000000E+00 0. -1.
         23    2    1    2    0    0  0.00000000000E+00  0.00000000000E+00 -0.64752704136E+02  0.11100189007E+03  0.90158232608E+02 0.  0.
    9000005    2    3    3    0    0  0.32008273133E+02 -0.18105625251E+02 -0.48901983177E+00  0.36960250876E+02  0.36712109328E+01 0.  0.
         22    1    3    3    0    0 -0.32008273133E+02  0.18105625251E+02 -0.64263684304E+02  0.74041639197E+02  0.00000000000E+00 0. -1.
         22    1    4    4    0    0  0.26625871713E+02 -0.13524708477E+02  0.14172746121E+00  0.29864274151E+02  0.00000000000E+00 0.  1.
         22    1    4    4    0    0  0.53824014202E+01 -0.45809167742E+01 -0.63074729298E+00  0.70959767254E+01  0.00000000000E+00 0.  1.
<mgrwt>
<rscale>  0 0.90158233E+02</rscale>
<asrwt>0</asrwt>
<pdfrwt beam="2">  1        3 0.13519584E-01 0.90158233E+02</pdfrwt>
<pdfrwt beam="1">  1       -3 0.35576297E-02 0.90158233E+02</pdfrwt>
<totfact> 0.34921655E+04</totfact>
</mgrwt>
</event>
<event>
 7    1  0.1312339E-009  0.8998162E+02  0.7818608E-02  0.1302896E+00
          3   -1    0    0  501    0  0.00000000000E+00  0.00000000000E+00  0.14898717609E+03  0.14898721033E+03  0.10100000000E+00 0. -1.
         -3   -1    0    0    0  501 -0.00000000000E+00 -0.00000000000E+00 -0.13585999832E+02  0.13586375250E+02  0.10100000000E+00 0.  1.
         23    2    1    2    0    0  0.00000000000E+00  0.00000000000E+00  0.13540117626E+03  0.16257358558E+03  0.89981621427E+02 0.  0.
    9000005    2    3    3    0    0  0.40697790434E+02 -0.37950862976E+01  0.10098571128E+03  0.10914010304E+03  0.65372304870E+01 0.  0.
         22    1    3    3    0    0 -0.40697790434E+02  0.37950862976E+01  0.34415464980E+02  0.53433482537E+02  0.00000000000E+00 0.  1.
         22    1    4    4    0    0  0.27790137240E+02 -0.30642551580E+00  0.62586976241E+02  0.68480035188E+02  0.00000000000E+00 0. -1.
         22    1    4    4    0    0  0.12907653195E+02 -0.34886607818E+01  0.38398735040E+02  0.40660067852E+02  0.00000000000E+00 0. -1.
<mgrwt>
<rscale>  0 0.89981621E+02</rscale>
<asrwt>0</asrwt>
<pdfrwt beam="1">  1        3 0.22921136E-01 0.89981621E+02</pdfrwt>
<pdfrwt beam="2">  1       -3 0.20901853E-02 0.89981621E+02</pdfrwt>
<totfact> 0.31663291E+04</totfact>
</mgrwt>
</event>
<event>
 7    1  0.1312339E-009  0.9328213E+02  0.7818608E-02  0.1295093E+00
         -3   -1    0    0    0  501 -0.00000000000E+00  0.00000000000E+00  0.17641189544E+03  0.17641192435E+03  0.10100000000E+00 0.  1.
          3   -1    0    0  501    0  0.00000000000E+00 -0.00000000000E+00 -0.12331067906E+02  0.12331481529E+02  0.10100000000E+00 0. -1.
         23    2    1    2    0    0  0.00000000000E+00  0.00000000000E+00  0.16408082754E+03  0.18874340588E+03  0.93282127440E+02 0.  0.
    9000005    2    3    3    0    0 -0.14606988916E+02  0.21338958369E+02  0.16045261413E+03  0.16263058907E+03  0.59120090221E+01 0.  0.
         22    1    3    3    0    0  0.14606988916E+02 -0.21338958369E+02  0.36282134069E+01  0.26112816814E+02  0.00000000000E+00 0. -1.
         22    1    4    4    0    0 -0.11515961790E+02  0.11756546095E+02  0.98834543206E+02  0.10019531268E+03  0.00000000000E+00 0.  1.
         22    1    4    4    0    0 -0.30910271257E+01  0.95824122741E+01  0.61618070924E+02  0.62435276391E+02  0.00000000000E+00 0.  1.
<mgrwt>
<rscale>  0 0.93282127E+02</rscale>
<asrwt>0</asrwt>
<pdfrwt beam="2">  1        3 0.18971214E-02 0.93282127E+02</pdfrwt>
<pdfrwt beam="1">  1       -3 0.27140326E-01 0.93282127E+02</pdfrwt>
<totfact> 0.27347153E+04</totfact>
</mgrwt>
</event>
<event>
 7    1  0.1312339E-009  0.8885212E+02  0.7818608E-02  0.1305655E+00
          3   -1    0    0  501    0  0.00000000000E+00  0.00000000000E+00  0.46619811130E+02  0.46619920536E+02  0.10100000000E+00 0. -1.
         -3   -1    0    0    0  501 -0.00000000000E+00 -0.00000000000E+00 -0.42335321032E+02  0.42335441510E+02  0.10100000000E+00 0.  1.
         23    2    1    2    0    0  0.00000000000E+00  0.00000000000E+00  0.42844900975E+01  0.88955362046E+02  0.88852121986E+02 0.  0.
    9000005    2    3    3    0    0 -0.29542872170E+02 -0.14792660517E+02  0.30134104110E+02  0.47005312633E+02  0.14485547417E+02 0.  0.
         22    1    3    3    0    0  0.29542872170E+02  0.14792660517E+02 -0.25849614012E+02  0.41950049414E+02  0.00000000000E+00 0.  1.
         22    1    4    4    0    0 -0.75531728748E+01 -0.15333237075E+01  0.39910193853E+00  0.77175633736E+01  0.00000000000E+00 0. -1.
         22    1    4    4    0    0 -0.21989699295E+02 -0.13259336810E+02  0.29735002171E+02  0.39287749259E+02  0.00000000000E+00 0. -1.
<mgrwt>
<rscale>  0 0.88852122E+02</rscale>
<asrwt>0</asrwt>
<pdfrwt beam="1">  1        3 0.71722963E-02 0.88852122E+02</pdfrwt>
<pdfrwt beam="2">  1       -3 0.65131440E-02 0.88852122E+02</pdfrwt>
<totfact> 0.38092134E+04</totfact>
</mgrwt>
</event>
<event>
 7    1  0.1312339E-009  0.9001820E+02  0.7818608E-02  0.1302808E+00
          3   -1    0    0  501    0  0.00000000000E+00  0.00000000000E+00  0.72569186261E+02  0.72569256546E+02  0.10100000000E+00 0. -1.
         -3   -1    0    0    0  501 -0.00000000000E+00 -0.00000000000E+00 -0.27915517149E+02  0.27915699860E+02  0.10100000000E+00 0.  1.
         23    2    1    2    0    0  0.35527136788E-14  0.00000000000E+00  0.44653669112E+02  0.10048495641E+03  0.90018199819E+02 0.  0.
    9000005    2    3    3    0    0 -0.19496188371E+02 -0.18560013690E+02  0.62111008534E+02  0.68401718276E+02  0.98204996228E+01 0.  0.
         22    1    3    3    0    0  0.19496188371E+02  0.18560013690E+02 -0.17457339422E+02  0.32083238130E+02  0.00000000000E+00 0.  1.
         22    1    4    4    0    0 -0.20223630872E+02 -0.15424037471E+02  0.55114436840E+02  0.60700060344E+02  0.00000000000E+00 0. -1.
         22    1    4    4    0    0  0.72744250069E+00 -0.31359762190E+01  0.69965716941E+01  0.77016579324E+01  0.00000000000E+00 0. -1.
<mgrwt>
<rscale>  0 0.90018200E+02</rscale>
<asrwt>0</asrwt>
<pdfrwt beam="1">  1        3 0.11164509E-01 0.90018200E+02</pdfrwt>
<pdfrwt beam="2">  1       -3 0.42947145E-02 0.90018200E+02</pdfrwt>
<totfact> 0.35859421E+04</totfact>
</mgrwt>
</event>
<event>
 7    1  0.1312339E-009  0.9607401E+02  0.7818608E-02  0.1288775E+00
         -3   -1    0    0    0  501 -0.00000000000E+00  0.00000000000E+00  0.99245605714E+02  0.99245657106E+02  0.10100000000E+00 0.  1.
          3   -1    0    0  501    0  0.00000000000E+00 -0.00000000000E+00 -0.23250774401E+02  0.23250993769E+02  0.10100000000E+00 0. -1.
         23    2    1    2    0    0  0.00000000000E+00  0.00000000000E+00  0.75994831313E+02  0.12249665088E+03  0.96074008396E+02 0.  0.
    9000005    2    3    3    0    0 -0.23084599590E+02  0.22343609392E+02 -0.50230161975E+01  0.35341460358E+02  0.13843861803E+02 0.  0.
         22    1    3    3    0    0  0.23084599590E+02 -0.22343609392E+02  0.81017847511E+02  0.87155190517E+02  0.00000000000E+00 0.  1.
         22    1    4    4    0    0 -0.11592296607E+02  0.19883394817E+02 -0.14670271324E+01  0.23062586557E+02  0.00000000000E+00 0. -1.
         22    1    4    4    0    0 -0.11492302982E+02  0.24602145752E+01 -0.35559890651E+01  0.12278873801E+02  0.00000000000E+00 0. -1.
<mgrwt>
<rscale>  0 0.96074008E+02</rscale>
<asrwt>0</asrwt>
<pdfrwt beam="2">  1        3 0.35770630E-02 0.96074008E+02</pdfrwt>
<pdfrwt beam="1">  1       -3 0.15268576E-01 0.96074008E+02</pdfrwt>
<totfact> 0.28679366E+04</totfact>
</mgrwt>
</event>
<event>
 7    1  0.1312339E-009  0.9342332E+02  0.7818608E-02  0.1294767E+00
         -3   -1    0    0    0  501 -0.00000000000E+00  0.00000000000E+00  0.16668358352E+02  0.16668664348E+02  0.10100000000E+00 0.  1.
          3   -1    0    0  501    0  0.00000000000E+00 -0.00000000000E+00 -0.13090393903E+03  0.13090397799E+03  0.10100000000E+00 0. -1.
         23    2    1    2    0    0  0.00000000000E+00 -0.71054273576E-14 -0.11423558067E+03  0.14757264234E+03  0.93423320829E+02 0.  0.
    9000005    2    3    3    0    0  0.95342829712E+01 -0.44884378494E+02 -0.67378325342E+02  0.81989775965E+02  0.87735199451E+01 0.  0.
         22    1    3    3    0    0 -0.95342829712E+01  0.44884378494E+02 -0.46857255331E+02  0.65582866374E+02  0.00000000000E+00 0. -1.
         22    1    4    4    0    0  0.58925725852E+01 -0.40521138642E+02 -0.60706933013E+02  0.73225793299E+02  0.00000000000E+00 0. -1.
         22    1    4    4    0    0  0.36417103859E+01 -0.43632398524E+01 -0.66713923294E+01  0.87639826653E+01  0.00000000000E+00 0. -1.
<mgrwt>
<rscale>  0 0.93423321E+02</rscale>
<asrwt>0</asrwt>
<pdfrwt beam="2">  1        3 0.20139093E-01 0.93423321E+02</pdfrwt>
<pdfrwt beam="1">  1       -3 0.25643895E-02 0.93423321E+02</pdfrwt>
<totfact> 0.29443575E+04</totfact>
</mgrwt>
</event>
<event>
 7    1  0.1312339E-009  0.9170562E+02  0.7818608E-02  0.1298773E+00
          3   -1    0    0  501    0  0.00000000000E+00  0.00000000000E+00  0.47184015544E+02  0.47184123642E+02  0.10100000000E+00 0. -1.
         -3   -1    0    0    0  501 -0.00000000000E+00 -0.00000000000E+00 -0.44558946207E+02  0.44559060673E+02  0.10100000000E+00 0.  1.
         23    2    1    2    0    0  0.35527136788E-14 -0.35527136788E-14  0.26250693371E+01  0.91743184314E+02  0.91705620761E+02 0.  0.
    9000005    2    3    3    0    0 -0.17670795376E+02  0.31368442433E+02  0.27622407568E+02  0.47912794075E+02  0.15375377924E+02 0.  0.
         22    1    3    3    0    0  0.17670795376E+02 -0.31368442433E+02 -0.24997338231E+02  0.43830390239E+02  0.00000000000E+00 0.  1.
         22    1    4    4    0    0 -0.98031874542E+01  0.29441896374E+02  0.22482691275E+02  0.38319696676E+02  0.00000000000E+00 0. -1.
         22    1    4    4    0    0 -0.78676079223E+01  0.19265460590E+01  0.51397162930E+01  0.95930973991E+01  0.00000000000E+00 0. -1.
<mgrwt>
<rscale>  0 0.91705621E+02</rscale>
<asrwt>0</asrwt>
<pdfrwt beam="1">  1        3 0.72590964E-02 0.91705621E+02</pdfrwt>
<pdfrwt beam="2">  1       -3 0.68552396E-02 0.91705621E+02</pdfrwt>
<totfact> 0.34742124E+04</totfact>
</mgrwt>
</event>
<event>
 7    1  0.1312339E-009  0.9146433E+02  0.7818608E-02  0.1299344E+00
          3   -1    0    0  501    0  0.00000000000E+00  0.00000000000E+00  0.25970543559E+03  0.25970545523E+03  0.10100000000E+00 0. -1.
         -3   -1    0    0    0  501 -0.00000000000E+00 -0.00000000000E+00 -0.80527515221E+01  0.80533848832E+01  0.10100000000E+00 0.  1.
         23    2    1    2    0    0  0.00000000000E+00  0.00000000000E+00  0.25165268407E+03  0.26775884012E+03  0.91464326708E+02 0.  0.
    9000005    2    3    3    0    0  0.12370352377E+02 -0.37919290130E+02  0.19043858049E+03  0.19469677979E+03  0.70060645017E+01 0.  0.
         22    1    3    3    0    0 -0.12370352377E+02  0.37919290130E+02  0.61214103586E+02  0.73062060331E+02  0.00000000000E+00 0.  1.
         22    1    4    4    0    0  0.82535320700E+01 -0.27779348818E+02  0.15164127506E+03  0.15438552171E+03  0.00000000000E+00 0.  1.
         22    1    4    4    0    0  0.41168203075E+01 -0.10139941312E+02  0.38797305428E+02  0.40311258077E+02  0.00000000000E+00 0.  1.
<mgrwt>
<rscale>  0 0.91464327E+02</rscale>
<asrwt>0</asrwt>
<pdfrwt beam="1">  1        3 0.39954735E-01 0.91464327E+02</pdfrwt>
<pdfrwt beam="2">  1       -3 0.12389350E-02 0.91464327E+02</pdfrwt>
<totfact> 0.25120917E+04</totfact>
</mgrwt>
</event>
<event>
 7    1  0.1312339E-009  0.9340799E+02  0.7818608E-02  0.1294802E+00
          3   -1    0    0  501    0  0.00000000000E+00  0.00000000000E+00  0.65685086277E+03  0.65685087054E+03  0.10100000000E+00 0. -1.
         -3   -1    0    0    0  501 -0.00000000000E+00 -0.00000000000E+00 -0.33200134049E+01  0.33215493386E+01  0.10100000000E+00 0.  1.
         23    2    1    2    0    0  0.00000000000E+00  0.00000000000E+00  0.65353084937E+03  0.66017241988E+03  0.93407991574E+02 0.  0.
    9000005    2    3    3    0    0  0.16058415754E+02  0.22360796203E+02  0.59260111642E+03  0.59331204087E+03  0.92312913252E+01 0.  0.
         22    1    3    3    0    0 -0.16058415754E+02 -0.22360796203E+02  0.60929732949E+02  0.66860379004E+02  0.00000000000E+00 0.  1.
         22    1    4    4    0    0  0.73838836553E-01 -0.84598592514E+00  0.15164478718E+02  0.15188237526E+02  0.00000000000E+00 0.  1.
         22    1    4    4    0    0  0.15984576917E+02  0.23206782128E+02  0.57743663770E+03  0.57812380335E+03  0.00000000000E+00 0.  1.
<mgrwt>
<rscale>  0 0.93407992E+02</rscale>
<asrwt>0</asrwt>
<pdfrwt beam="1">  1        3 0.10105407E+00 0.93407992E+02</pdfrwt>
<pdfrwt beam="2">  1       -3 0.51089015E-03 0.93407992E+02</pdfrwt>
<totfact> 0.13690545E+04</totfact>
</mgrwt>
</event>
<event>
 7    1  0.1312339E-009  0.9770203E+02  0.7818608E-02  0.1285204E+00
         -3   -1    0    0    0  501 -0.00000000000E+00  0.00000000000E+00  0.82515240474E+02  0.82515302287E+02  0.10100000000E+00 0. -1.
          3   -1    0    0  501    0  0.00000000000E+00 -0.00000000000E+00 -0.28920819256E+02  0.28920995616E+02  0.10100000000E+00 0.  1.
         23    2    1    2    0    0  0.00000000000E+00  0.17763568394E-14  0.53594421218E+02  0.11143629790E+03  0.97702029174E+02 0.  0.
    9000005    2    3    3    0    0  0.29457590384E+02 -0.12032203799E+02 -0.14457874284E+02  0.36312144113E+02  0.98497777539E+01 0.  0.
         22    1    3    3    0    0 -0.29457590384E+02  0.12032203799E+02  0.68052295502E+02  0.75124153790E+02  0.00000000000E+00 0.  1.
         22    1    4    4    0    0  0.35462507217E+01 -0.40020790740E+01 -0.56781753898E+01  0.77996286356E+01  0.00000000000E+00 0.  1.
         22    1    4    4    0    0  0.25911339662E+02 -0.80301247250E+01 -0.87796988944E+01  0.28512515478E+02  0.00000000000E+00 0.  1.
<mgrwt>
<rscale>  0 0.97702029E+02</rscale>
<asrwt>0</asrwt>
<pdfrwt beam="2">  1        3 0.44493752E-02 0.97702029E+02</pdfrwt>
<pdfrwt beam="1">  1       -3 0.12694671E-01 0.97702029E+02</pdfrwt>
<totfact> 0.28018705E+04</totfact>
</mgrwt>
</event>
<event>
 7    1  0.1312339E-009  0.9123404E+02  0.7818608E-02  0.1299891E+00
         -3   -1    0    0    0  501 -0.00000000000E+00  0.00000000000E+00  0.58545016511E+01  0.58553727963E+01  0.10100000000E+00 0.  1.
          3   -1    0    0  501    0  0.00000000000E+00 -0.00000000000E+00 -0.35541067579E+03  0.35541069014E+03  0.10100000000E+00 0. -1.
         23    2    1    2    0    0  0.00000000000E+00  0.00000000000E+00 -0.34955617414E+03  0.36126606294E+03  0.91234036147E+02 0.  0.
    9000005    2    3    3    0    0 -0.27128651801E+02  0.34651677603E+02 -0.21187726894E+03  0.21672477664E+03  0.11872203029E+02 0.  0.
         22    1    3    3    0    0  0.27128651801E+02 -0.34651677603E+02 -0.13767890520E+03  0.14454128631E+03  0.00000000000E+00 0.  1.
         22    1    4    4    0    0 -0.25774534026E+01  0.10487779702E+02 -0.62565334622E+02  0.63490612578E+02  0.00000000000E+00 0.  1.
         22    1    4    4    0    0 -0.24551198398E+02  0.24163897901E+02 -0.14931193432E+03  0.15323416406E+03  0.00000000000E+00 0.  1.
<mgrwt>
<rscale>  0 0.91234036E+02</rscale>
<asrwt>0</asrwt>
<pdfrwt beam="2">  1        3 0.54678617E-01 0.91234036E+02</pdfrwt>
<pdfrwt beam="1">  1       -3 0.90076096E-03 0.91234036E+02</pdfrwt>
<totfact> 0.21802461E+04</totfact>
</mgrwt>
</event>
<event>
 7    1  0.1312339E-009  0.8949302E+02  0.7818608E-02  0.1304084E+00
         -3   -1    0    0    0  501 -0.00000000000E+00  0.00000000000E+00  0.94342011259E+02  0.94342065323E+02  0.10100000000E+00 0.  1.
          3   -1    0    0  501    0  0.00000000000E+00 -0.00000000000E+00 -0.21223131819E+02  0.21223372146E+02  0.10100000000E+00 0. -1.
         23    2    1    2    0    0  0.00000000000E+00  0.00000000000E+00  0.73118879439E+02  0.11556543747E+03  0.89493015408E+02 0.  0.
    9000005    2    3    3    0    0 -0.33514251910E+02 -0.26796595114E+02  0.23285558010E+02  0.49803575303E+02  0.98446081826E+01 0.  0.
         22    1    3    3    0    0  0.33514251910E+02  0.26796595114E+02  0.49833321429E+02  0.65761862166E+02  0.00000000000E+00 0. -1.
         22    1    4    4    0    0 -0.24364057193E+02 -0.13632341525E+02  0.16172509893E+02  0.32264502082E+02  0.00000000000E+00 0.  1.
         22    1    4    4    0    0 -0.91501947171E+01 -0.13164253589E+02  0.71130481169E+01  0.17539073220E+02  0.00000000000E+00 0.  1.
<mgrwt>
<rscale>  0 0.89493015E+02</rscale>
<asrwt>0</asrwt>
<pdfrwt beam="2">  1        3 0.32651199E-02 0.89493015E+02</pdfrwt>
<pdfrwt beam="1">  1       -3 0.14514178E-01 0.89493015E+02</pdfrwt>
<totfact> 0.35292780E+04</totfact>
</mgrwt>
</event>
<event>
 7    1  0.1312339E-009  0.9155850E+02  0.7818608E-02  0.1299121E+00
         -3   -1    0    0    0  501 -0.00000000000E+00  0.00000000000E+00  0.16808532084E+03  0.16808535118E+03  0.10100000000E+00 0.  1.
          3   -1    0    0  501    0  0.00000000000E+00 -0.00000000000E+00 -0.12468073281E+02  0.12468482359E+02  0.10100000000E+00 0. -1.
         23    2    1    2    0    0  0.00000000000E+00  0.71054273576E-14  0.15561724756E+03  0.18055383354E+03  0.91558500805E+02 0.  0.
    9000005    2    3    3    0    0  0.23160830793E+02 -0.34990471163E+02  0.11017655828E+03  0.11870229034E+03  0.13805889358E+02 0.  0.
         22    1    3    3    0    0 -0.23160830793E+02  0.34990471163E+02  0.45440689274E+02  0.61851543206E+02  0.00000000000E+00 0. -1.
         22    1    4    4    0    0  0.15399869945E+01 -0.98843387955E-01  0.54204428047E+00  0.16355861214E+01  0.00000000000E+00 0. -1.
         22    1    4    4    0    0  0.21620843798E+02 -0.34891627775E+02  0.10963451400E+03  0.11706670422E+03  0.00000000000E+00 0. -1.
<mgrwt>
<rscale>  0 0.91558501E+02</rscale>
<asrwt>0</asrwt>
<pdfrwt beam="2">  1        3 0.19181991E-02 0.91558501E+02</pdfrwt>
<pdfrwt beam="1">  1       -3 0.25859312E-01 0.91558501E+02</pdfrwt>
<totfact> 0.29203403E+04</totfact>
</mgrwt>
</event>
<event>
 7    1  0.1312339E-009  0.9174653E+02  0.7818608E-02  0.1298677E+00
         -3   -1    0    0    0  501 -0.00000000000E+00  0.00000000000E+00  0.39548834672E+02  0.39548963639E+02  0.10100000000E+00 0.  1.
          3   -1    0    0  501    0  0.00000000000E+00 -0.00000000000E+00 -0.53208795683E+02  0.53208891541E+02  0.10100000000E+00 0. -1.
         23    2    1    2    0    0  0.00000000000E+00  0.00000000000E+00 -0.13659961010E+02  0.92757855180E+02  0.91746526707E+02 0.  0.
    9000005    2    3    3    0    0 -0.32459765497E+02 -0.22932928603E+02  0.16304099998E+02  0.42984362812E+02  0.15087011400E+01 0.  0.
         22    1    3    3    0    0  0.32459765497E+02  0.22932928603E+02 -0.29964061009E+02  0.49773492369E+02  0.00000000000E+00 0. -1.
         22    1    4    4    0    0 -0.84157085138E+01 -0.54974743966E+01  0.47148646051E+01  0.11102987110E+02  0.00000000000E+00 0.  1.
         22    1    4    4    0    0 -0.24044056983E+02 -0.17435454207E+02  0.11589235393E+02  0.31881375701E+02  0.00000000000E+00 0.  1.
<mgrwt>
<rscale>  0 0.91746527E+02</rscale>
<asrwt>0</asrwt>
<pdfrwt beam="2">  1        3 0.81859858E-02 0.91746527E+02</pdfrwt>
<pdfrwt beam="1">  1       -3 0.60844534E-02 0.91746527E+02</pdfrwt>
<totfact> 0.34623995E+04</totfact>
</mgrwt>
</event>
<event>
 7    1  0.1312339E-009  0.9337487E+02  0.7818608E-02  0.1294879E+00
          3   -1    0    0  501    0  0.00000000000E+00  0.00000000000E+00  0.14110578252E+02  0.14110939714E+02  0.10100000000E+00 0. -1.
         -3   -1    0    0    0  501 -0.00000000000E+00 -0.00000000000E+00 -0.15447159377E+03  0.15447162679E+03  0.10100000000E+00 0.  1.
         23    2    1    2    0    0  0.71054273576E-14 -0.35527136788E-14 -0.14036101552E+03  0.16858256651E+03  0.93374873771E+02 0.  0.
    9000005    2    3    3    0    0 -0.33651069924E+02  0.20001846664E+02 -0.11525813385E+03  0.12207855544E+03  0.92880516104E+01 0.  0.
         22    1    3    3    0    0  0.33651069924E+02 -0.20001846664E+02 -0.25102881671E+02  0.46504011066E+02  0.00000000000E+00 0. -1.
         22    1    4    4    0    0 -0.34224662893E+02  0.19715593181E+02 -0.11424234578E+03  0.12087739960E+03  0.00000000000E+00 0.  1.
         22    1    4    4    0    0  0.57359296850E+00  0.28625348339E+00 -0.10157880695E+01  0.12011558402E+01  0.00000000000E+00 0.  1.
<mgrwt>
<rscale>  0 0.93374874E+02</rscale>
<asrwt>0</asrwt>
<pdfrwt beam="1">  1        3 0.21708886E-02 0.93374874E+02</pdfrwt>
<pdfrwt beam="2">  1       -3 0.23764890E-01 0.93374874E+02</pdfrwt>
<totfact> 0.28317991E+04</totfact>
</mgrwt>
</event>
<event>
 7    1  0.1312339E-009  0.9176369E+02  0.7818608E-02  0.1298636E+00
         -3   -1    0    0    0  501 -0.00000000000E+00  0.00000000000E+00  0.11118644362E+02  0.11119103087E+02  0.10100000000E+00 0.  1.
          3   -1    0    0  501    0  0.00000000000E+00 -0.00000000000E+00 -0.18933017768E+03  0.18933020462E+03  0.10100000000E+00 0. -1.
         23    2    1    2    0    0  0.00000000000E+00  0.00000000000E+00 -0.17821153332E+03  0.20044930771E+03  0.91763687549E+02 0.  0.
    9000005    2    3    3    0    0  0.24270854927E+02 -0.19485986957E+02 -0.16273472885E+03  0.16568856026E+03  0.11527963664E+01 0.  0.
         22    1    3    3    0    0 -0.24270854927E+02  0.19485986957E+02 -0.15476804463E+02  0.34760747445E+02  0.00000000000E+00 0.  1.
         22    1    4    4    0    0  0.21262282125E+02 -0.17530999777E+02 -0.14440557839E+03  0.14701153583E+03  0.00000000000E+00 0.  1.
         22    1    4    4    0    0  0.30085728017E+01 -0.19549871799E+01 -0.18329150461E+02  0.18677024436E+02  0.00000000000E+00 0.  1.
<mgrwt>
<rscale>  0 0.91763688E+02</rscale>
<asrwt>0</asrwt>
<pdfrwt beam="2">  1        3 0.29127755E-01 0.91763688E+02</pdfrwt>
<pdfrwt beam="1">  1       -3 0.17105982E-02 0.91763688E+02</pdfrwt>
<totfact> 0.27985800E+04</totfact>
</mgrwt>
</event>
<event>
 7    1  0.1312339E-009  0.9069366E+02  0.7818608E-02  0.1301181E+00
         -3   -1    0    0    0  501 -0.00000000000E+00  0.00000000000E+00  0.63156406683E+01  0.63164482149E+01  0.10100000000E+00 0.  1.
          3   -1    0    0  501    0  0.00000000000E+00 -0.00000000000E+00 -0.32557242704E+03  0.32557244271E+03  0.10100000000E+00 0. -1.
         23    2    1    2    0    0  0.00000000000E+00  0.00000000000E+00 -0.31925678637E+03  0.33188889092E+03  0.90693661699E+02 0.  0.
    9000005    2    3    3    0    0  0.42342484543E+02  0.12318880286E+02 -0.16581699812E+03  0.17223799231E+03  0.15033573112E+02 0.  0.
         22    1    3    3    0    0 -0.42342484543E+02 -0.12318880286E+02 -0.15343978825E+03  0.15965089861E+03  0.00000000000E+00 0. -1.
         22    1    4    4    0    0  0.26494265173E+02  0.81863900822E+01 -0.12893075484E+03  0.13187912122E+03  0.00000000000E+00 0. -1.
         22    1    4    4    0    0  0.15848219370E+02  0.41324902038E+01 -0.36886243283E+02  0.40358871095E+02  0.00000000000E+00 0. -1.
<mgrwt>
<rscale>  0 0.90693662E+02</rscale>
<asrwt>0</asrwt>
<pdfrwt beam="2">  1        3 0.50088116E-01 0.90693662E+02</pdfrwt>
<pdfrwt beam="1">  1       -3 0.97170060E-03 0.90693662E+02</pdfrwt>
<totfact> 0.23175219E+04</totfact>
</mgrwt>
</event>
<event>
 7    1  0.1312339E-009  0.9246684E+02  0.7818608E-02  0.1296985E+00
          3   -1    0    0  501    0  0.00000000000E+00  0.00000000000E+00  0.12757069922E+03  0.12757073920E+03  0.10100000000E+00 0. -1.
         -3   -1    0    0    0  501 -0.00000000000E+00 -0.00000000000E+00 -0.16755449050E+02  0.16755753456E+02  0.10100000000E+00 0.  1.
         23    2    1    2    0    0  0.00000000000E+00  0.00000000000E+00  0.11081525017E+03  0.14432649265E+03  0.92466841691E+02 0.  0.
    9000005    2    3    3    0    0 -0.39170347641E+02  0.13420115250E+02  0.84946781504E+02  0.95504435153E+02  0.13810351855E+02 0.  0.
         22    1    3    3    0    0  0.39170347641E+02 -0.13420115250E+02  0.25868468661E+02  0.48822057500E+02  0.00000000000E+00 0.  1.
         22    1    4    4    0    0 -0.28278950511E+02  0.13685139876E+02  0.51479683950E+02  0.60308705467E+02  0.00000000000E+00 0.  1.
         22    1    4    4    0    0 -0.10891397130E+02 -0.26502462574E+00  0.33467097554E+02  0.35195729687E+02  0.00000000000E+00 0.  1.
<mgrwt>
<rscale>  0 0.92466842E+02</rscale>
<asrwt>0</asrwt>
<pdfrwt beam="1">  1        3 0.19626287E-01 0.92466842E+02</pdfrwt>
<pdfrwt beam="2">  1       -3 0.25777880E-02 0.92466842E+02</pdfrwt>
<totfact> 0.30472622E+04</totfact>
</mgrwt>
</event>
<event>
 7    1  0.1312339E-009  0.9097370E+02  0.7818608E-02  0.1300511E+00
         -3   -1    0    0    0  501 -0.00000000000E+00  0.00000000000E+00  0.83062809665E+01  0.83068949972E+01  0.10100000000E+00 0.  1.
          3   -1    0    0  501    0  0.00000000000E+00 -0.00000000000E+00 -0.24908523603E+03  0.24908525651E+03  0.10100000000E+00 0. -1.
         23    2    1    2    0    0 -0.71054273576E-14 -0.83266726847E-16 -0.24077895506E+03  0.25739215150E+03  0.90973701994E+02 0.  0.
    9000005    2    3    3    0    0  0.44903656441E+02  0.10289107978E+00 -0.10315441142E+03  0.11262729402E+03  0.52655308607E+01 0.  0.
         22    1    3    3    0    0 -0.44903656441E+02 -0.10289107978E+00 -0.13762454364E+03  0.14476485748E+03  0.00000000000E+00 0. -1.
         22    1    4    4    0    0  0.15837043521E+02  0.14677041750E+01 -0.31435560547E+02  0.35230108855E+02  0.00000000000E+00 0. -1.
         22    1    4    4    0    0  0.29066612920E+02 -0.13648130953E+01 -0.71718850870E+02  0.77397185165E+02  0.00000000000E+00 0. -1.
<mgrwt>
<rscale>  0 0.90973702E+02</rscale>
<asrwt>0</asrwt>
<pdfrwt beam="2">  1        3 0.38320849E-01 0.90973702E+02</pdfrwt>
<pdfrwt beam="1">  1       -3 0.12779384E-02 0.90973702E+02</pdfrwt>
<totfact> 0.25934128E+04</totfact>
</mgrwt>
</event>
<event>
 7    1  0.1312339E-009  0.9075891E+02  0.7818608E-02  0.1301024E+00
         -3   -1    0    0    0  501 -0.00000000000E+00  0.00000000000E+00  0.23926819053E+03  0.23926821184E+03  0.10100000000E+00 0.  1.
          3   -1    0    0  501    0  0.00000000000E+00 -0.00000000000E+00 -0.86063206000E+01  0.86069132254E+01  0.10100000000E+00 0. -1.
         23    2    1    2    0    0 -0.35527136788E-14 -0.17763568394E-14  0.23066186993E+03  0.24787512507E+03  0.90758908048E+02 0.  0.
    9000005    2    3    3    0    0  0.21852659400E+02  0.80656493864E+01  0.22121076434E+03  0.22273716931E+03  0.11621140701E+02 0.  0.
         22    1    3    3    0    0 -0.21852659400E+02 -0.80656493864E+01  0.94511055904E+01  0.25137955759E+02  0.00000000000E+00 0. -1.
         22    1    4    4    0    0  0.22290342428E+02  0.88707714102E+01  0.21939974875E+03  0.22070749807E+03  0.00000000000E+00 0. -1.
         22    1    4    4    0    0 -0.43768302829E+00 -0.80512202385E+00  0.18110155881E+01  0.20296712460E+01  0.00000000000E+00 0. -1.
<mgrwt>
<rscale>  0 0.90758908E+02</rscale>
<asrwt>0</asrwt>
<pdfrwt beam="2">  1        3 0.13240966E-02 0.90758908E+02</pdfrwt>
<pdfrwt beam="1">  1       -3 0.36810538E-01 0.90758908E+02</pdfrwt>
<totfact> 0.26519799E+04</totfact>
</mgrwt>
</event>
<event>
 7    1  0.1312339E-009  0.9089781E+02  0.7818608E-02  0.1300692E+00
          3   -1    0    0  501    0  0.00000000000E+00  0.00000000000E+00  0.10298005904E+03  0.10298010857E+03  0.10100000000E+00 0. -1.
         -3   -1    0    0    0  501 -0.00000000000E+00 -0.00000000000E+00 -0.20058099403E+02  0.20058353688E+02  0.10100000000E+00 0.  1.
         23    2    1    2    0    0 -0.11102230246E-15  0.00000000000E+00  0.82921959635E+02  0.12303846226E+03  0.90897809679E+02 0.  0.
    9000005    2    3    3    0    0 -0.59048436074E+00  0.29493621587E+02  0.87135395536E+02  0.93239545695E+02  0.15192542251E+02 0.  0.
         22    1    3    3    0    0  0.59048436074E+00 -0.29493621587E+02 -0.42134359008E+01  0.29798916561E+02  0.00000000000E+00 0.  1.
         22    1    4    4    0    0 -0.29512266064E+00  0.29956035158E+02  0.87561770699E+02  0.92544663961E+02  0.00000000000E+00 0. -1.
         22    1    4    4    0    0 -0.29536170010E+00 -0.46241357096E+00 -0.42637516267E+00  0.69488173370E+00  0.00000000000E+00 0. -1.
<mgrwt>
<rscale>  0 0.90897810E+02</rscale>
<asrwt>0</asrwt>
<pdfrwt beam="1">  1        3 0.15843109E-01 0.90897810E+02</pdfrwt>
<pdfrwt beam="2">  1       -3 0.30858848E-02 0.90897810E+02</pdfrwt>
<totfact> 0.33315808E+04</totfact>
</mgrwt>
</event>
<event>
 7    1  0.1312339E-009  0.9032219E+02  0.7818608E-02  0.1302073E+00
         -3   -1    0    0    0  501 -0.00000000000E+00  0.00000000000E+00  0.14396250685E+03  0.14396254228E+03  0.10100000000E+00 0.  1.
          3   -1    0    0  501    0  0.00000000000E+00 -0.00000000000E+00 -0.14166834777E+02  0.14167194803E+02  0.10100000000E+00 0. -1.
         23    2    1    2    0    0  0.00000000000E+00  0.00000000000E+00  0.12979567207E+03  0.15812973708E+03  0.90322185872E+02 0.  0.
    9000005    2    3    3    0    0  0.27313921205E+02 -0.66303112264E+01  0.12614568598E+03  0.12978659475E+03  0.11908600515E+02 0.  0.
         22    1    3    3    0    0 -0.27313921205E+02  0.66303112264E+01  0.36499860850E+01  0.28343142327E+02  0.00000000000E+00 0. -1.
         22    1    4    4    0    0  0.15194050487E+02  0.20535617481E+01  0.72766076993E+02  0.74363823510E+02  0.00000000000E+00 0. -1.
         22    1    4    4    0    0  0.12119870718E+02 -0.86838729745E+01  0.53379608991E+02  0.55422771241E+02  0.00000000000E+00 0. -1.
<mgrwt>
<rscale>  0 0.90322186E+02</rscale>
<asrwt>0</asrwt>
<pdfrwt beam="2">  1        3 0.21795436E-02 0.90322186E+02</pdfrwt>
<pdfrwt beam="1">  1       -3 0.22148107E-01 0.90322186E+02</pdfrwt>
<totfact> 0.31612009E+04</totfact>
</mgrwt>
</event>
<event>
 7    1  0.1312339E-009  0.8926740E+02  0.7818608E-02  0.1304636E+00
          3   -1    0    0  501    0  0.00000000000E+00  0.00000000000E+00  0.58764504272E+01  0.58773183191E+01  0.10100000000E+00 0. -1.
         -3   -1    0    0    0  501 -0.00000000000E+00 -0.00000000000E+00 -0.33898269017E+03  0.33898270521E+03  0.10100000000E+00 0.  1.
         23    2    1    2    0    0  0.00000000000E+00  0.00000000000E+00 -0.33310623974E+03  0.34486002353E+03  0.89267400977E+02 0.  0.
    9000005    2    3    3    0    0 -0.28356003754E+02 -0.25248193217E+02 -0.25524966287E+03  0.25823912091E+03  0.96705202701E+01 0.  0.
         22    1    3    3    0    0  0.28356003754E+02  0.25248193217E+02 -0.77856576865E+02  0.86620902620E+02  0.00000000000E+00 0. -1.
         22    1    4    4    0    0 -0.28724726966E+02 -0.23781483414E+02 -0.25032460408E+03  0.25308709232E+03  0.00000000000E+00 0. -1.
         22    1    4    4    0    0  0.36872321237E+00 -0.14667098033E+01 -0.49250587931E+01  0.51520285878E+01  0.00000000000E+00 0. -1.
<mgrwt>
<rscale>  0 0.89267401E+02</rscale>
<asrwt>0</asrwt>
<pdfrwt beam="1">  1        3 0.90413748E-03 0.89267401E+02</pdfrwt>
<pdfrwt beam="2">  1       -3 0.52151236E-01 0.89267401E+02</pdfrwt>
<totfact> 0.23685152E+04</totfact>
</mgrwt>
</event>
<event>
 7    1  0.1312339E-009  0.9918717E+02  0.7818608E-02  0.1282015E+00
         -3   -1    0    0    0  501 -0.00000000000E+00  0.00000000000E+00  0.17886611081E+03  0.17886613932E+03  0.10100000000E+00 0.  1.
          3   -1    0    0  501    0  0.00000000000E+00 -0.00000000000E+00 -0.13750425017E+02  0.13750795946E+02  0.10100000000E+00 0. -1.
         23    2    1    2    0    0  0.00000000000E+00  0.00000000000E+00  0.16511568579E+03  0.19261693527E+03  0.99187166801E+02 0.  0.
    9000005    2    3    3    0    0 -0.12268257370E+02 -0.22193370372E+02  0.16487596848E+03  0.16725725680E+03  0.12159323383E+02 0.  0.
         22    1    3    3    0    0  0.12268257370E+02  0.22193370372E+02  0.23971731231E+00  0.25359678463E+02  0.00000000000E+00 0. -1.
         22    1    4    4    0    0 -0.13784297225E+02 -0.16932412575E+02  0.14525265288E+03  0.14688446689E+03  0.00000000000E+00 0. -1.
         22    1    4    4    0    0  0.15160398547E+01 -0.52609577961E+01  0.19623315598E+02  0.20372789913E+02  0.00000000000E+00 0. -1.
<mgrwt>
<rscale>  0 0.99187167E+02</rscale>
<asrwt>0</asrwt>
<pdfrwt beam="2">  1        3 0.21154809E-02 0.99187167E+02</pdfrwt>
<pdfrwt beam="1">  1       -3 0.27517892E-01 0.99187167E+02</pdfrwt>
<totfact> 0.22979719E+04</totfact>
</mgrwt>
</event>
<event>
 7    1  0.1312339E-009  0.8804378E+02  0.7818608E-02  0.1307659E+00
         -3   -1    0    0    0  501 -0.00000000000E+00  0.00000000000E+00  0.28212559004E+02  0.28212739792E+02  0.10100000000E+00 0.  1.
          3   -1    0    0  501    0  0.00000000000E+00 -0.00000000000E+00 -0.68689777187E+02  0.68689851441E+02  0.10100000000E+00 0. -1.
         23    2    1    2    0    0  0.00000000000E+00  0.35527136788E-14 -0.40477218183E+02  0.96902591233E+02  0.88043778860E+02 0.  0.
    9000005    2    3    3    0    0  0.92318086205E+01 -0.26108103855E+02 -0.56938446522E+02  0.64687200257E+02  0.13250954959E+02 0.  0.
         22    1    3    3    0    0 -0.92318086205E+01  0.26108103855E+02  0.16461228340E+02  0.32215390977E+02  0.00000000000E+00 0.  1.
         22    1    4    4    0    0  0.64855002049E+01 -0.17014674554E+02 -0.22405304674E+02  0.28871413901E+02  0.00000000000E+00 0.  1.
         22    1    4    4    0    0  0.27463084156E+01 -0.90934293010E+01 -0.34533141848E+02  0.35815786356E+02  0.00000000000E+00 0.  1.
<mgrwt>
<rscale>  0 0.88043779E+02</rscale>
<asrwt>0</asrwt>
<pdfrwt beam="2">  1        3 0.10567678E-01 0.88043779E+02</pdfrwt>
<pdfrwt beam="1">  1       -3 0.43404133E-02 0.88043779E+02</pdfrwt>
<totfact> 0.38375527E+04</totfact>
</mgrwt>
</event>
<event>
 7    1  0.1312339E-009  0.9164670E+02  0.7818608E-02  0.1298912E+00
         -3   -1    0    0    0  501 -0.00000000000E+00  0.00000000000E+00  0.68679209692E+02  0.68679283958E+02  0.10100000000E+00 0.  1.
          3   -1    0    0  501    0  0.00000000000E+00 -0.00000000000E+00 -0.30573550829E+02  0.30573717656E+02  0.10100000000E+00 0. -1.
         23    2    1    2    0    0  0.00000000000E+00  0.00000000000E+00  0.38105658863E+02  0.99253001614E+02  0.91646697114E+02 0.  0.
    9000005    2    3    3    0    0  0.27877100861E+02  0.32314166268E+02  0.33682528880E+02  0.56347265717E+02  0.14804171978E+02 0.  0.
         22    1    3    3    0    0 -0.27877100861E+02 -0.32314166268E+02  0.44231299827E+01  0.42905735897E+02  0.00000000000E+00 0. -1.
         22    1    4    4    0    0  0.23989035278E+02  0.17329010845E+02  0.20336634851E+02  0.35907480384E+02  0.00000000000E+00 0. -1.
         22    1    4    4    0    0  0.38880655833E+01  0.14985155422E+02  0.13345894030E+02  0.20439785333E+02  0.00000000000E+00 0. -1.
<mgrwt>
<rscale>  0 0.91646697E+02</rscale>
<asrwt>0</asrwt>
<pdfrwt beam="2">  1        3 0.47036417E-02 0.91646697E+02</pdfrwt>
<pdfrwt beam="1">  1       -3 0.10566051E-01 0.91646697E+02</pdfrwt>
<totfact> 0.34244260E+04</totfact>
</mgrwt>
</event>
<event>
 7    1  0.1312339E-009  0.8990519E+02  0.7818608E-02  0.1303081E+00
          3   -1    0    0  501    0  0.00000000000E+00  0.00000000000E+00  0.52481676112E+01  0.52491393842E+01  0.10100000000E+00 0. -1.
         -3   -1    0    0    0  501 -0.00000000000E+00 -0.00000000000E+00 -0.38499978238E+03  0.38499979563E+03  0.10100000000E+00 0.  1.
         23    2    1    2    0    0  0.35527136788E-14  0.35527136788E-14 -0.37975161477E+03  0.39024893501E+03  0.89905185383E+02 0.  0.
    9000005    2    3    3    0    0 -0.25560681111E+02 -0.20200743326E+02 -0.32426764499E+03  0.32590696308E+03  0.21034606842E+01 0.  0.
         22    1    3    3    0    0  0.25560681111E+02  0.20200743326E+02 -0.55483969780E+02  0.64341971934E+02  0.00000000000E+00 0. -1.
         22    1    4    4    0    0 -0.20489105788E+02 -0.17159891941E+02 -0.26265989151E+03  0.26401606761E+03  0.00000000000E+00 0. -1.
         22    1    4    4    0    0 -0.50715753231E+01 -0.30408513849E+01 -0.61607753482E+02  0.61890895473E+02  0.00000000000E+00 0. -1.
<mgrwt>
<rscale>  0 0.89905185E+02</rscale>
<asrwt>0</asrwt>
<pdfrwt beam="1">  1        3 0.80748647E-03 0.89905185E+02</pdfrwt>
<pdfrwt beam="2">  1       -3 0.59230789E-01 0.89905185E+02</pdfrwt>
<totfact> 0.21697267E+04</totfact>
</mgrwt>
</event>
<event>
 7    1  0.1312339E-009  0.9434691E+02  0.7818608E-02  0.1292654E+00
          3   -1    0    0  501    0  0.00000000000E+00  0.00000000000E+00  0.28890572250E+02  0.28890748795E+02  0.10100000000E+00 0. -1.
         -3   -1    0    0    0  501 -0.00000000000E+00 -0.00000000000E+00 -0.77025883333E+02  0.77025949551E+02  0.10100000000E+00 0.  1.
         23    2    1    2    0    0  0.17763568394E-14  0.00000000000E+00 -0.48135311083E+02  0.10591669835E+03  0.94346906761E+02 0.  0.
    9000005    2    3    3    0    0 -0.11374135536E+02 -0.36936533522E+02  0.31805900755E+01  0.41674965963E+02  0.15264605037E+02 0.  0.
         22    1    3    3    0    0  0.11374135536E+02  0.36936533522E+02 -0.51315901159E+02  0.64241732383E+02  0.00000000000E+00 0.  1.
         22    1    4    4    0    0 -0.60585720842E+01 -0.18036205285E+02  0.92071980585E+01  0.21137253674E+02  0.00000000000E+00 0.  1.
         22    1    4    4    0    0 -0.53155634520E+01 -0.18900328237E+02 -0.60266079830E+01  0.20537712289E+02  0.00000000000E+00 0.  1.
<mgrwt>
<rscale>  0 0.94346907E+02</rscale>
<asrwt>0</asrwt>
<pdfrwt beam="1">  1        3 0.44447221E-02 0.94346907E+02</pdfrwt>
<pdfrwt beam="2">  1       -3 0.11850155E-01 0.94346907E+02</pdfrwt>
<totfact> 0.31189512E+04</totfact>
</mgrwt>
</event>
<event>
 7    1  0.1312339E-009  0.9170843E+02  0.7818608E-02  0.1298766E+00
          3   -1    0    0  501    0  0.00000000000E+00  0.00000000000E+00  0.76864764006E+02  0.76864830363E+02  0.10100000000E+00 0. -1.
         -3   -1    0    0    0  501 -0.00000000000E+00 -0.00000000000E+00 -0.27354483863E+02  0.27354670322E+02  0.10100000000E+00 0.  1.
         23    2    1    2    0    0  0.00000000000E+00 -0.71054273576E-14  0.49510280143E+02  0.10421950068E+03  0.91708431908E+02 0.  0.
    9000005    2    3    3    0    0 -0.86467901414E+01 -0.44194400089E+02  0.33278755949E+02  0.56351198473E+02  0.63300863254E+01 0.  0.
         22    1    3    3    0    0  0.86467901414E+01  0.44194400089E+02  0.16231524193E+02  0.47868302211E+02  0.00000000000E+00 0.  1.
         22    1    4    4    0    0 -0.82191600888E+01 -0.43954147658E+02  0.33437815106E+02  0.55835554693E+02  0.00000000000E+00 0.  1.
         22    1    4    4    0    0 -0.42763005262E+00 -0.24025243100E+00 -0.15905915630E+00  0.51564377986E+00  0.00000000000E+00 0.  1.
<mgrwt>
<rscale>  0 0.91708432E+02</rscale>
<asrwt>0</asrwt>
<pdfrwt beam="1">  1        3 0.11825368E-01 0.91708432E+02</pdfrwt>
<pdfrwt beam="2">  1       -3 0.42084016E-02 0.91708432E+02</pdfrwt>
<totfact> 0.33820988E+04</totfact>
</mgrwt>
</event>
<event>
 7    1  0.1312339E-009  0.9091498E+02  0.7818608E-02  0.1300651E+00
          3   -1    0    0  501    0  0.00000000000E+00  0.00000000000E+00  0.76941850797E+02  0.76941917087E+02  0.10100000000E+00 0. -1.
         -3   -1    0    0    0  501 -0.00000000000E+00 -0.00000000000E+00 -0.26856254609E+02  0.26856444527E+02  0.10100000000E+00 0.  1.
         23    2    1    2    0    0  0.11102230246E-15  0.00000000000E+00  0.50085596188E+02  0.10379836161E+03  0.90914976369E+02 0.  0.
    9000005    2    3    3    0    0  0.81764664816E+00  0.43909455653E+02  0.14331785583E+02  0.47167594229E+02  0.95222384752E+01 0.  0.
         22    1    3    3    0    0 -0.81764664816E+00 -0.43909455653E+02  0.35753810605E+02  0.56630767385E+02  0.00000000000E+00 0. -1.
         22    1    4    4    0    0  0.10759812948E+01  0.21125587753E+02  0.19689298298E+01  0.21244408166E+02  0.00000000000E+00 0.  1.
         22    1    4    4    0    0 -0.25833464663E+00  0.22783867900E+02  0.12362855753E+02  0.25923186063E+02  0.00000000000E+00 0.  1.
<mgrwt>
<rscale>  0 0.90914976E+02</rscale>
<asrwt>0</asrwt>
<pdfrwt beam="1">  1        3 0.11837227E-01 0.90914976E+02</pdfrwt>
<pdfrwt beam="2">  1       -3 0.41317512E-02 0.90914976E+02</pdfrwt>
<totfact> 0.34661967E+04</totfact>
</mgrwt>
</event>
<event>
 7    1  0.1312339E-009  0.1033794E+03  0.7818608E-02  0.1273346E+00
          3   -1    0    0  501    0  0.00000000000E+00  0.00000000000E+00  0.11460211696E+02  0.11460656748E+02  0.10100000000E+00 0. -1.
         -3   -1    0    0    0  501 -0.00000000000E+00 -0.00000000000E+00 -0.23313426807E+03  0.23313428995E+03  0.10100000000E+00 0.  1.
         23    2    1    2    0    0  0.00000000000E+00  0.35527136788E-14 -0.22167405637E+03  0.24459494670E+03  0.10337940162E+03 0.  0.
    9000005    2    3    3    0    0 -0.49892487161E+01 -0.22438079742E+02 -0.21995583354E+03  0.22154473379E+03  0.13158280214E+02 0.  0.
         22    1    3    3    0    0  0.49892487161E+01  0.22438079742E+02 -0.17182228371E+01  0.23050212905E+02  0.00000000000E+00 0. -1.
         22    1    4    4    0    0 -0.15472002742E+01 -0.20485693607E+02 -0.20649062085E+03  0.20751008161E+03  0.00000000000E+00 0. -1.
         22    1    4    4    0    0 -0.34420484419E+01 -0.19523861351E+01 -0.13465212687E+02  0.14034652180E+02  0.00000000000E+00 0. -1.
<mgrwt>
<rscale>  0 0.10337940E+03</rscale>
<asrwt>0</asrwt>
<pdfrwt beam="1">  1        3 0.17631456E-02 0.10337940E+03</pdfrwt>
<pdfrwt beam="2">  1       -3 0.35866843E-01 0.10337940E+03</pdfrwt>
<totfact> 0.18734869E+04</totfact>
</mgrwt>
</event>
<event>
 7    1  0.1312339E-009  0.9099228E+02  0.7818608E-02  0.1300466E+00
          3   -1    0    0  501    0  0.00000000000E+00  0.00000000000E+00  0.18104347872E+02  0.18104629597E+02  0.10100000000E+00 0. -1.
         -3   -1    0    0    0  501 -0.00000000000E+00 -0.00000000000E+00 -0.11433038617E+03  0.11433043078E+03  0.10100000000E+00 0.  1.
         23    2    1    2    0    0  0.00000000000E+00 -0.71054273576E-14 -0.96226038297E+02  0.13243506038E+03  0.90992278634E+02 0.  0.
    9000005    2    3    3    0    0 -0.17449272159E+01  0.38796865937E+02 -0.80626858831E+02  0.90583226756E+02  0.14013886938E+02 0.  0.
         22    1    3    3    0    0  0.17449272159E+01 -0.38796865937E+02 -0.15599179466E+02  0.41851833622E+02  0.00000000000E+00 0. -1.
         22    1    4    4    0    0  0.37132934970E+01  0.31706286597E+01 -0.14085054879E+02  0.14907387620E+02  0.00000000000E+00 0. -1.
         22    1    4    4    0    0 -0.54582207129E+01  0.35626237277E+02 -0.66541803952E+02  0.75675839137E+02  0.00000000000E+00 0. -1.
<mgrwt>
<rscale>  0 0.90992279E+02</rscale>
<asrwt>0</asrwt>
<pdfrwt beam="1">  1        3 0.27853095E-02 0.90992279E+02</pdfrwt>
<pdfrwt beam="2">  1       -3 0.17589315E-01 0.90992279E+02</pdfrwt>
<totfact> 0.32596749E+04</totfact>
</mgrwt>
</event>
<event>
 7    1  0.1522848E-009  0.9218700E+02  0.7818608E-02  0.1297640E+00
         -3   -1    0    0    0  501 -0.00000000000E+00  0.00000000000E+00  0.11644746435E+03  0.11644750815E+03  0.10100000000E+00 0.  1.
          3   -1    0    0  501    0  0.00000000000E+00 -0.00000000000E+00 -0.18245044171E+02  0.18245323724E+02  0.10100000000E+00 0. -1.
         23    2    1    2    0    0  0.00000000000E+00  0.00000000000E+00  0.98202420181E+02  0.13469283188E+03  0.92187003583E+02 0.  0.
    9000005    2    3    3    0    0  0.29511024808E+01  0.44594833253E+02  0.48824162034E+02  0.68092377401E+02  0.15980140901E+02 0.  0.
         22    1    3    3    0    0 -0.29511024808E+01 -0.44594833253E+02  0.49378258148E+02  0.66600454476E+02  0.00000000000E+00 0. -1.
         22    1    4    4    0    0  0.40394753848E+01  0.29447034879E+02  0.41973959336E+02  0.51432076440E+02  0.00000000000E+00 0.  1.
         22    1    4    4    0    0 -0.10883729041E+01  0.15147798373E+02  0.68502026978E+01  0.16660300962E+02  0.00000000000E+00 0.  1.
<mgrwt>
<rscale>  0 0.92187004E+02</rscale>
<asrwt>0</asrwt>
<pdfrwt beam="2">  1        3 0.28069546E-02 0.92187004E+02</pdfrwt>
<pdfrwt beam="1">  1       -3 0.17915020E-01 0.92187004E+02</pdfrwt>
<totfact> 0.31319344E+04</totfact>
</mgrwt>
</event>
<event>
 7    1  0.1312339E-009  0.8663418E+02  0.7818608E-02  0.1311213E+00
          3   -1    0    0  501    0  0.00000000000E+00  0.00000000000E+00  0.64344500923E+02  0.64344580192E+02  0.10100000000E+00 0. -1.
         -3   -1    0    0    0  501 -0.00000000000E+00 -0.00000000000E+00 -0.29161128939E+02  0.29161303846E+02  0.10100000000E+00 0.  1.
         23    2    1    2    0    0  0.22204460493E-15  0.00000000000E+00  0.35183371984E+02  0.93505884038E+02  0.86634177352E+02 0.  0.
    9000005    2    3    3    0    0 -0.16650293659E+01 -0.41124676037E+02  0.30968277958E+01  0.41318168818E+02  0.18945791506E+01 0.  0.
         22    1    3    3    0    0  0.16650293659E+01  0.41124676037E+02  0.32086544188E+02  0.52187715220E+02  0.00000000000E+00 0. -1.
         22    1    4    4    0    0  0.19644231234E+00 -0.11503455791E+02  0.33055083545E+00  0.11509880476E+02  0.00000000000E+00 0. -1.
         22    1    4    4    0    0 -0.18614716783E+01 -0.29621220246E+02  0.27662769604E+01  0.29808288342E+02  0.00000000000E+00 0. -1.
<mgrwt>
<rscale>  0 0.86634177E+02</rscale>
<asrwt>0</asrwt>
<pdfrwt beam="1">  1        3 0.98991734E-02 0.86634177E+02</pdfrwt>
<pdfrwt beam="2">  1       -3 0.44863471E-02 0.86634177E+02</pdfrwt>
<totfact> 0.40385755E+04</totfact>
</mgrwt>
</event>
<event>
 7    1  0.1312339E-009  0.9592407E+02  0.7818608E-02  0.1289108E+00
          3   -1    0    0  501    0  0.00000000000E+00  0.00000000000E+00  0.13267503697E+03  0.13267507542E+03  0.10100000000E+00 0. -1.
         -3   -1    0    0    0  501 -0.00000000000E+00 -0.00000000000E+00 -0.17338090808E+02  0.17338384985E+02  0.10100000000E+00 0.  1.
         23    2    1    2    0    0  0.00000000000E+00  0.00000000000E+00  0.11533694616E+03  0.15001346040E+03  0.95924069716E+02 0.  0.
    9000005    2    3    3    0    0  0.46423289197E+02  0.81368857888E+01  0.68269009092E+02  0.83404741824E+02  0.86233790401E+01 0.  0.
         22    1    3    3    0    0 -0.46423289197E+02 -0.81368857888E+01  0.47067937071E+02  0.66608718576E+02  0.00000000000E+00 0.  1.
         22    1    4    4    0    0  0.19549887765E+02  0.74040230810E+01  0.26899218734E+02  0.34067369108E+02  0.00000000000E+00 0.  1.
         22    1    4    4    0    0  0.26873401432E+02  0.73286270778E+00  0.41369790358E+02  0.49337372717E+02  0.00000000000E+00 0.  1.
<mgrwt>
<rscale>  0 0.95924070E+02</rscale>
<asrwt>0</asrwt>
<pdfrwt beam="1">  1        3 0.20411569E-01 0.95924070E+02</pdfrwt>
<pdfrwt beam="2">  1       -3 0.26674243E-02 0.95924070E+02</pdfrwt>
<totfact> 0.27269605E+04</totfact>
</mgrwt>
</event>
<event>
 7    1  0.1312339E-009  0.8962387E+02  0.7818608E-02  0.1303765E+00
          3   -1    0    0  501    0  0.00000000000E+00  0.00000000000E+00  0.99822777856E+02  0.99822828952E+02  0.10100000000E+00 0. -1.
         -3   -1    0    0    0  501 -0.00000000000E+00 -0.00000000000E+00 -0.20116563480E+02  0.20116817026E+02  0.10100000000E+00 0.  1.
         23    2    1    2    0    0  0.00000000000E+00  0.00000000000E+00  0.79706214376E+02  0.11993964598E+03  0.89623869963E+02 0.  0.
    9000005    2    3    3    0    0 -0.11366209030E+02  0.37418618938E+02  0.68032631409E+02  0.79127683391E+02  0.10168952326E+02 0.  0.
         22    1    3    3    0    0  0.11366209030E+02 -0.37418618938E+02  0.11673582967E+02  0.40811962587E+02  0.00000000000E+00 0. -1.
         22    1    4    4    0    0 -0.31545288032E+01  0.72386684806E+01  0.22847954824E+02  0.24173920100E+02  0.00000000000E+00 0. -1.
         22    1    4    4    0    0 -0.82116802266E+01  0.30179950457E+02  0.45184676585E+02  0.54953763291E+02  0.00000000000E+00 0. -1.
<mgrwt>
<rscale>  0 0.89623870E+02</rscale>
<asrwt>0</asrwt>
<pdfrwt beam="1">  1        3 0.15357374E-01 0.89623870E+02</pdfrwt>
<pdfrwt beam="2">  1       -3 0.30948794E-02 0.89623870E+02</pdfrwt>
<totfact> 0.34834589E+04</totfact>
</mgrwt>
</event>
<event>
 7    1  0.1312339E-009  0.9267336E+02  0.7818608E-02  0.1296504E+00
         -3   -1    0    0    0  501 -0.00000000000E+00  0.00000000000E+00  0.54989849109E+02  0.54989941862E+02  0.10100000000E+00 0.  1.
          3   -1    0    0  501    0  0.00000000000E+00 -0.00000000000E+00 -0.39044974733E+02  0.39045105364E+02  0.10100000000E+00 0. -1.
         23    2    1    2    0    0  0.00000000000E+00  0.00000000000E+00  0.15944874376E+02  0.94035047226E+02  0.92673356948E+02 0.  0.
    9000005    2    3    3    0    0  0.45116729686E+02 -0.26917185812E+01  0.96988147432E+00  0.46421865660E+02  0.10549137160E+02 0.  0.
         22    1    3    3    0    0 -0.45116729686E+02  0.26917185812E+01  0.14974992902E+02  0.47613181566E+02  0.00000000000E+00 0.  1.
         22    1    4    4    0    0  0.23813601170E+02  0.26566414131E+01 -0.28420429254E+01  0.24129288267E+02  0.00000000000E+00 0. -1.
         22    1    4    4    0    0  0.21303128516E+02 -0.53483599943E+01  0.38119243997E+01  0.22292577393E+02  0.00000000000E+00 0. -1.
<mgrwt>
<rscale>  0 0.92673357E+02</rscale>
<asrwt>0</asrwt>
<pdfrwt beam="2">  1        3 0.60069364E-02 0.92673357E+02</pdfrwt>
<pdfrwt beam="1">  1       -3 0.84599939E-02 0.92673357E+02</pdfrwt>
<totfact> 0.33593760E+04</totfact>
</mgrwt>
</event>
<event>
 7    1  0.1312339E-009  0.8006962E+02  0.7818608E-02  0.1328854E+00
         -3   -1    0    0    0  501 -0.00000000000E+00  0.00000000000E+00  0.17509299849E+03  0.17509302762E+03  0.10100000000E+00 0.  1.
          3   -1    0    0  501    0  0.00000000000E+00 -0.00000000000E+00 -0.91536047676E+01  0.91541619628E+01  0.10100000000E+00 0. -1.
         23    2    1    2    0    0  0.00000000000E+00  0.00000000000E+00  0.16593939372E+03  0.18424718958E+03  0.80069622705E+02 0.  0.
    9000005    2    3    3    0    0 -0.20139213716E+02 -0.27803431731E+02  0.12762720635E+03  0.13280360450E+03  0.13018249574E+02 0.  0.
         22    1    3    3    0    0  0.20139213716E+02  0.27803431731E+02  0.38312187373E+02  0.51443585085E+02  0.00000000000E+00 0. -1.
         22    1    4    4    0    0 -0.10616218459E+02 -0.67166288482E+01  0.60801516322E+02  0.62085759917E+02  0.00000000000E+00 0. -1.
         22    1    4    4    0    0 -0.95229952568E+01 -0.21086802883E+02  0.66825690025E+02  0.70717844578E+02  0.00000000000E+00 0. -1.
<mgrwt>
<rscale>  0 0.80069623E+02</rscale>
<asrwt>0</asrwt>
<pdfrwt beam="2">  1        3 0.14082920E-02 0.80069623E+02</pdfrwt>
<pdfrwt beam="1">  1       -3 0.26937429E-01 0.80069623E+02</pdfrwt>
<totfact> 0.41535866E+04</totfact>
</mgrwt>
</event>
<event>
 7    1  0.1312339E-009  0.8875857E+02  0.7818608E-02  0.1305886E+00
          3   -1    0    0  501    0  0.00000000000E+00  0.00000000000E+00  0.62835126603E+02  0.62835207776E+02  0.10100000000E+00 0. -1.
         -3   -1    0    0    0  501 -0.00000000000E+00 -0.00000000000E+00 -0.31344082815E+02  0.31344245541E+02  0.10100000000E+00 0.  1.
         23    2    1    2    0    0  0.00000000000E+00  0.00000000000E+00  0.31491043788E+02  0.94179453317E+02  0.88758569097E+02 0.  0.
    9000005    2    3    3    0    0 -0.39842946146E+02  0.15645187089E+02  0.26211678804E+02  0.51050531104E+02  0.93205355873E+01 0.  0.
         22    1    3    3    0    0  0.39842946146E+02 -0.15645187089E+02  0.52793649840E+01  0.43128922213E+02  0.00000000000E+00 0.  1.
         22    1    4    4    0    0 -0.21810997241E+02  0.10317358068E+02  0.96233793150E+01  0.25976468344E+02  0.00000000000E+00 0. -1.
         22    1    4    4    0    0 -0.18031948904E+02  0.53278290213E+01  0.16588299489E+02  0.25074062760E+02  0.00000000000E+00 0. -1.
<mgrwt>
<rscale>  0 0.88758569E+02</rscale>
<asrwt>0</asrwt>
<pdfrwt beam="1">  1        3 0.96669613E-02 0.88758569E+02</pdfrwt>
<pdfrwt beam="2">  1       -3 0.48221853E-02 0.88758569E+02</pdfrwt>
<totfact> 0.37766610E+04</totfact>
</mgrwt>
</event>
<event>
 7    1  0.1312339E-009  0.9203460E+02  0.7818608E-02  0.1297998E+00
          3   -1    0    0  501    0  0.00000000000E+00  0.00000000000E+00  0.88369835746E+02  0.88369893463E+02  0.10100000000E+00 0. -1.
         -3   -1    0    0    0  501 -0.00000000000E+00 -0.00000000000E+00 -0.23962663982E+02  0.23962876833E+02  0.10100000000E+00 0.  1.
         23    2    1    2    0    0  0.35527136788E-14  0.00000000000E+00  0.64407171764E+02  0.11233277030E+03  0.92034599515E+02 0.  0.
    9000005    2    3    3    0    0 -0.30141359821E+02 -0.24817333035E+02  0.60597688952E+02  0.73103779102E+02  0.12152408071E+02 0.  0.
         22    1    3    3    0    0  0.30141359821E+02  0.24817333035E+02  0.38094828118E+01  0.39228991194E+02  0.00000000000E+00 0.  1.
         22    1    4    4    0    0 -0.10399124102E+02 -0.10118230453E+02  0.12832668877E+02  0.19370022202E+02  0.00000000000E+00 0.  1.
         22    1    4    4    0    0 -0.19742235718E+02 -0.14699102582E+02  0.47765020075E+02  0.53733756900E+02  0.00000000000E+00 0.  1.
<mgrwt>
<rscale>  0 0.92034600E+02</rscale>
<asrwt>0</asrwt>
<pdfrwt beam="1">  1        3 0.13595380E-01 0.92034600E+02</pdfrwt>
<pdfrwt beam="2">  1       -3 0.36865845E-02 0.92034600E+02</pdfrwt>
<totfact> 0.32928561E+04</totfact>
</mgrwt>
</event>
<event>
 7    1  0.1312339E-009  0.9436300E+02  0.7818608E-02  0.1292617E+00
         -3   -1    0    0    0  501 -0.00000000000E+00  0.00000000000E+00  0.22115700410E+03  0.22115702716E+03  0.10100000000E+00 0.  1.
          3   -1    0    0  501    0  0.00000000000E+00 -0.00000000000E+00 -0.10065396105E+02  0.10065902829E+02  0.10100000000E+00 0. -1.
         23    2    1    2    0    0  0.00000000000E+00  0.35527136788E-14  0.21109160799E+03  0.23122292999E+03  0.94363003279E+02 0.  0.
    9000005    2    3    3    0    0  0.36529736072E+02 -0.22872547303E+02  0.60277591509E+02  0.74371272026E+02  0.63342740007E+01 0.  0.
         22    1    3    3    0    0 -0.36529736072E+02  0.22872547303E+02  0.15081401649E+03  0.15685165796E+03  0.00000000000E+00 0.  1.
         22    1    4    4    0    0  0.12212154365E+02 -0.60783956824E+01  0.23714277611E+02  0.27357824674E+02  0.00000000000E+00 0.  1.
         22    1    4    4    0    0  0.24317581707E+02 -0.16794151621E+02  0.36563313898E+02  0.47013447352E+02  0.00000000000E+00 0.  1.
<mgrwt>
<rscale>  0 0.94363003E+02</rscale>
<asrwt>0</asrwt>
<pdfrwt beam="2">  1        3 0.15485633E-02 0.94363003E+02</pdfrwt>
<pdfrwt beam="1">  1       -3 0.34024194E-01 0.94363003E+02</pdfrwt>
<totfact> 0.24568496E+04</totfact>
</mgrwt>
</event>
<event>
 7    1  0.1312339E-009  0.9066408E+02  0.7818608E-02  0.1301251E+00
         -3   -1    0    0    0  501 -0.00000000000E+00  0.00000000000E+00  0.24329946002E+02  0.24330155640E+02  0.10100000000E+00 0.  1.
          3   -1    0    0  501    0  0.00000000000E+00 -0.00000000000E+00 -0.84462949878E+02  0.84463010266E+02  0.10100000000E+00 0. -1.
         23    2    1    2    0    0 -0.88817841970E-15  0.00000000000E+00 -0.60133003876E+02  0.10879316591E+03  0.90664076638E+02 0.  0.
    9000005    2    3    3    0    0  0.66852173082E+01  0.40902245525E+02 -0.11414628365E+02  0.44830943212E+02  0.12721395723E+02 0.  0.
         22    1    3    3    0    0 -0.66852173082E+01 -0.40902245525E+02 -0.48718375511E+02  0.63962222693E+02  0.00000000000E+00 0. -1.
         22    1    4    4    0    0  0.47968964803E+01  0.38353591932E+02 -0.68226383958E+01  0.39249925154E+02  0.00000000000E+00 0.  1.
         22    1    4    4    0    0  0.18883208279E+01  0.25486535930E+01 -0.45919899692E+01  0.55810180580E+01  0.00000000000E+00 0.  1.
<mgrwt>
<rscale>  0 0.90664077E+02</rscale>
<asrwt>0</asrwt>
<pdfrwt beam="2">  1        3 0.12994321E-01 0.90664077E+02</pdfrwt>
<pdfrwt beam="1">  1       -3 0.37430894E-02 0.90664077E+02</pdfrwt>
<totfact> 0.34556237E+04</totfact>
</mgrwt>
</event>
<event>
 7    1  0.1312339E-009  0.9225523E+02  0.7818608E-02  0.1297480E+00
          3   -1    0    0  501    0  0.00000000000E+00  0.00000000000E+00  0.64039147979E+02  0.64039227625E+02  0.10100000000E+00 0. -1.
         -3   -1    0    0    0  501 -0.00000000000E+00 -0.00000000000E+00 -0.33225697377E+02  0.33225850887E+02  0.10100000000E+00 0.  1.
         23    2    1    2    0    0  0.00000000000E+00  0.00000000000E+00  0.30813450602E+02  0.97265078512E+02  0.92255226193E+02 0.  0.
    9000005    2    3    3    0    0 -0.19213878002E+02 -0.34173812259E+02 -0.89566619688E+01  0.41419896034E+02  0.99178345242E+01 0.  0.
         22    1    3    3    0    0  0.19213878002E+02  0.34173812259E+02  0.39770112571E+02  0.55845182479E+02  0.00000000000E+00 0. -1.
         22    1    4    4    0    0 -0.72955966085E+01 -0.21816974505E+02 -0.74737116521E+01  0.24188064666E+02  0.00000000000E+00 0.  1.
         22    1    4    4    0    0 -0.11918281393E+02 -0.12356837754E+02 -0.14829503167E+01  0.17231831368E+02  0.00000000000E+00 0.  1.
<mgrwt>
<rscale>  0 0.92255226E+02</rscale>
<asrwt>0</asrwt>
<pdfrwt beam="1">  1        3 0.98521945E-02 0.92255226E+02</pdfrwt>
<pdfrwt beam="2">  1       -3 0.51116637E-02 0.92255226E+02</pdfrwt>
<totfact> 0.33773905E+04</totfact>
</mgrwt>
</event>
<event>
 7    1  0.1312339E-009  0.8926884E+02  0.7818608E-02  0.1304632E+00
         -3   -1    0    0    0  501 -0.00000000000E+00  0.00000000000E+00  0.15594031645E+02  0.15594358722E+02  0.10100000000E+00 0.  1.
          3   -1    0    0  501    0  0.00000000000E+00 -0.00000000000E+00 -0.12775432557E+03  0.12775436549E+03  0.10100000000E+00 0. -1.
         23    2    1    2    0    0  0.00000000000E+00  0.35527136788E-14 -0.11216029393E+03  0.14334872422E+03  0.89268836674E+02 0.  0.
    9000005    2    3    3    0    0 -0.36285584847E+02  0.25581934917E+02 -0.49818788329E+02  0.66814141304E+02  0.33374759539E+01 0.  0.
         22    1    3    3    0    0  0.36285584847E+02 -0.25581934917E+02 -0.62341505596E+02  0.76534582913E+02  0.00000000000E+00 0. -1.
         22    1    4    4    0    0 -0.15043625483E+02  0.10895253468E+02 -0.18418998556E+02  0.26158683522E+02  0.00000000000E+00 0. -1.
         22    1    4    4    0    0 -0.21241959364E+02  0.14686681449E+02 -0.31399789774E+02  0.40655457782E+02  0.00000000000E+00 0. -1.
<mgrwt>
<rscale>  0 0.89268837E+02</rscale>
<asrwt>0</asrwt>
<pdfrwt beam="2">  1        3 0.19654539E-01 0.89268837E+02</pdfrwt>
<pdfrwt beam="1">  1       -3 0.23991101E-02 0.89268837E+02</pdfrwt>
<totfact> 0.33584428E+04</totfact>
</mgrwt>
</event>
<event>
 7    1  0.1312339E-009  0.9119610E+02  0.7818608E-02  0.1299981E+00
          3   -1    0    0  501    0  0.00000000000E+00  0.00000000000E+00  0.20276079332E+03  0.20276081847E+03  0.10100000000E+00 0. -1.
         -3   -1    0    0    0  501 -0.00000000000E+00 -0.00000000000E+00 -0.10254084477E+02  0.10254581877E+02  0.10100000000E+00 0.  1.
         23    2    1    2    0    0  0.35527136788E-14  0.00000000000E+00  0.19250670884E+03  0.21301540035E+03  0.91196095517E+02 0.  0.
    9000005    2    3    3    0    0  0.15313542109E+02  0.76198482113E+01  0.19469517302E+03  0.19577138591E+03  0.11298605393E+02 0.  0.
         22    1    3    3    0    0 -0.15313542109E+02 -0.76198482113E+01 -0.21884641780E+01  0.17244014444E+02  0.00000000000E+00 0.  1.
         22    1    4    4    0    0 -0.11656539801E+01  0.27310282995E+01  0.43749503846E+02  0.43850157942E+02  0.00000000000E+00 0. -1.
         22    1    4    4    0    0  0.16479196089E+02  0.48888199117E+01  0.15094566917E+03  0.15192122796E+03  0.00000000000E+00 0. -1.
<mgrwt>
<rscale>  0 0.91196096E+02</rscale>
<asrwt>0</asrwt>
<pdfrwt beam="1">  1        3 0.31194007E-01 0.91196096E+02</pdfrwt>
<pdfrwt beam="2">  1       -3 0.15775917E-02 0.91196096E+02</pdfrwt>
<totfact> 0.27823526E+04</totfact>
</mgrwt>
</event>
<event>
 7    1  0.1312339E-009  0.8643036E+02  0.7818608E-02  0.1311734E+00
         -3   -1    0    0    0  501 -0.00000000000E+00  0.00000000000E+00  0.67173894438E+01  0.67181486988E+01  0.10100000000E+00 0.  1.
          3   -1    0    0  501    0  0.00000000000E+00 -0.00000000000E+00 -0.27800101363E+03  0.27800103197E+03  0.10100000000E+00 0. -1.
         23    2    1    2    0    0  0.00000000000E+00  0.00000000000E+00 -0.27128362418E+03  0.28471918067E+03  0.86430359787E+02 0.  0.
    9000005    2    3    3    0    0  0.16441056819E+02  0.39757075691E+02 -0.12509698972E+03  0.13233327085E+03  0.34502637608E+01 0.  0.
         22    1    3    3    0    0 -0.16441056819E+02 -0.39757075691E+02 -0.14618663447E+03  0.15238590982E+03  0.00000000000E+00 0.  1.
         22    1    4    4    0    0  0.10568312316E+02  0.21072261455E+02 -0.68700094608E+02  0.72632172122E+02  0.00000000000E+00 0.  1.
         22    1    4    4    0    0  0.58727445028E+01  0.18684814236E+02 -0.56396895109E+02  0.59701098725E+02  0.00000000000E+00 0.  1.
<mgrwt>
<rscale>  0 0.86430360E+02</rscale>
<asrwt>0</asrwt>
<pdfrwt beam="2">  1        3 0.42769438E-01 0.86430360E+02</pdfrwt>
<pdfrwt beam="1">  1       -3 0.10335046E-02 0.86430360E+02</pdfrwt>
<totfact> 0.28420823E+04</totfact>
</mgrwt>
</event>
<event>
 7    1  0.1312339E-009  0.9106562E+02  0.7818608E-02  0.1300291E+00
         -3   -1    0    0    0  501 -0.00000000000E+00  0.00000000000E+00  0.27537178341E+02  0.27537363563E+02  0.10100000000E+00 0.  1.
          3   -1    0    0  501    0  0.00000000000E+00 -0.00000000000E+00 -0.75288173164E+02  0.75288240910E+02  0.10100000000E+00 0. -1.
         23    2    1    2    0    0  0.35527136788E-14  0.00000000000E+00 -0.47750994823E+02  0.10282560447E+03  0.91065621552E+02 0.  0.
    9000005    2    3    3    0    0  0.29924089999E+02 -0.55730217147E+01  0.12680939066E+02  0.35160780768E+02  0.12205103659E+02 0.  0.
         22    1    3    3    0    0 -0.29924089999E+02  0.55730217147E+01 -0.60431933890E+02  0.67664823704E+02  0.00000000000E+00 0. -1.
         22    1    4    4    0    0  0.39462085692E+01 -0.53858045475E+01  0.39320883089E+01  0.77485980128E+01  0.00000000000E+00 0. -1.
         22    1    4    4    0    0  0.25977881430E+02 -0.18721716725E+00  0.87488507576E+01  0.27412182756E+02  0.00000000000E+00 0. -1.
<mgrwt>
<rscale>  0 0.91065622E+02</rscale>
<asrwt>0</asrwt>
<pdfrwt beam="2">  1        3 0.11582815E-01 0.91065622E+02</pdfrwt>
<pdfrwt beam="1">  1       -3 0.42365085E-02 0.91065622E+02</pdfrwt>
<totfact> 0.34577854E+04</totfact>
</mgrwt>
</event>
<event>
 7    1  0.1312339E-009  0.1180591E+03  0.7818608E-02  0.1246334E+00
         -3   -1    0    0    0  501 -0.00000000000E+00  0.00000000000E+00  0.46038635300E+02  0.46038746087E+02  0.10100000000E+00 0.  1.
          3   -1    0    0  501    0  0.00000000000E+00 -0.00000000000E+00 -0.75685920225E+02  0.75685987615E+02  0.10100000000E+00 0. -1.
         23    2    1    2    0    0  0.00000000000E+00  0.00000000000E+00 -0.29647284925E+02  0.12172473370E+03  0.11805909237E+03 0.  0.
    9000005    2    3    3    0    0 -0.31098732906E+02 -0.12540033797E+02  0.34439428225E+02  0.49395690861E+02  0.11378770724E+02 0.  0.
         22    1    3    3    0    0  0.31098732906E+02  0.12540033797E+02 -0.64086713150E+02  0.72329042841E+02  0.00000000000E+00 0. -1.
         22    1    4    4    0    0 -0.15826109134E+02 -0.17010554185E+01  0.20971212396E+02  0.26327762329E+02  0.00000000000E+00 0. -1.
         22    1    4    4    0    0 -0.15272623772E+02 -0.10838978378E+02  0.13468215828E+02  0.23067928532E+02  0.00000000000E+00 0. -1.
<mgrwt>
<rscale>  0 0.11805909E+03</rscale>
<asrwt>0</asrwt>
<pdfrwt beam="2">  1        3 0.11644001E-01 0.11805909E+03</pdfrwt>
<pdfrwt beam="1">  1       -3 0.70828807E-02 0.11805909E+03</pdfrwt>
<totfact> 0.16235111E+04</totfact>
</mgrwt>
</event>
<event>
 7    1  0.1312339E-009  0.8371311E+02  0.7818608E-02  0.1318833E+00
          3   -1    0    0  501    0  0.00000000000E+00  0.00000000000E+00  0.18346057863E+01  0.18373838442E+01  0.10100000000E+00 0. -1.
         -3   -1    0    0    0  501 -0.00000000000E+00 -0.00000000000E+00 -0.95423267522E+03  0.95423268056E+03  0.10100000000E+00 0.  1.
         23    2    1    2    0    0  0.00000000000E+00  0.35527136788E-14 -0.95239806943E+03  0.95607006441E+03  0.83713113660E+02 0.  0.
    9000005    2    3    3    0    0  0.12448726704E+02 -0.23516128307E+02 -0.84119528966E+03  0.84172830775E+03  0.13749532002E+02 0.  0.
         22    1    3    3    0    0 -0.12448726704E+02  0.23516128307E+02 -0.11120277977E+03  0.11434175666E+03  0.00000000000E+00 0. -1.
         22    1    4    4    0    0  0.93715295817E+01 -0.12153277649E+02 -0.28870573151E+03  0.28911334651E+03  0.00000000000E+00 0.  1.
         22    1    4    4    0    0  0.30771971220E+01 -0.11362850658E+02 -0.55248955815E+03  0.55261496123E+03  0.00000000000E+00 0.  1.
<mgrwt>
<rscale>  0 0.83713114E+02</rscale>
<asrwt>0</asrwt>
<pdfrwt beam="1">  1        3 0.28246191E-03 0.83713114E+02</pdfrwt>
<pdfrwt beam="2">  1       -3 0.14680484E+00 0.83713114E+02</pdfrwt>
<totfact> 0.13092306E+04</totfact>
</mgrwt>
</event>
<event>
 7    1  0.1312339E-009  0.8842754E+02  0.7818608E-02  0.1306705E+00
          3   -1    0    0  501    0  0.00000000000E+00  0.00000000000E+00  0.23872797670E+03  0.23872799807E+03  0.10100000000E+00 0. -1.
         -3   -1    0    0    0  501 -0.00000000000E+00 -0.00000000000E+00 -0.81883073610E+01  0.81889302377E+01  0.10100000000E+00 0.  1.
         23    2    1    2    0    0 -0.35527136788E-14  0.00000000000E+00  0.23053966934E+03  0.24691692831E+03  0.88427542903E+02 0.  0.
    9000005    2    3    3    0    0  0.28387582961E+02 -0.31336822165E+02  0.13716741585E+03  0.14441703069E+03  0.15922546649E+02 0.  0.
         22    1    3    3    0    0 -0.28387582961E+02  0.31336822165E+02  0.93372253494E+02  0.10249989762E+03  0.00000000000E+00 0. -1.
         22    1    4    4    0    0  0.18543300891E+02 -0.20412574345E+02  0.62477451826E+02  0.68293185502E+02  0.00000000000E+00 0.  1.
         22    1    4    4    0    0  0.98442820696E+01 -0.10924247820E+02  0.74689964023E+02  0.76123845184E+02  0.00000000000E+00 0.  1.
<mgrwt>
<rscale>  0 0.88427543E+02</rscale>
<asrwt>0</asrwt>
<pdfrwt beam="1">  1        3 0.36727428E-01 0.88427543E+02</pdfrwt>
<pdfrwt beam="2">  1       -3 0.12597892E-02 0.88427543E+02</pdfrwt>
<totfact> 0.28487195E+04</totfact>
</mgrwt>
</event>
<event>
 7    1  0.1312339E-009  0.9147390E+02  0.7818608E-02  0.1299321E+00
         -3   -1    0    0    0  501 -0.00000000000E+00  0.00000000000E+00  0.46306525640E+02  0.46306635786E+02  0.10100000000E+00 0.  1.
          3   -1    0    0  501    0  0.00000000000E+00 -0.00000000000E+00 -0.45174155811E+02  0.45174268719E+02  0.10100000000E+00 0. -1.
         23    2    1    2    0    0 -0.44408920985E-15  0.00000000000E+00  0.11323698286E+01  0.91480904505E+02  0.91473895881E+02 0.  0.
    9000005    2    3    3    0    0  0.25972442396E+01 -0.24327787991E+02  0.38724945975E+02  0.46627936626E+02  0.87152789442E+01 0.  0.
         22    1    3    3    0    0 -0.25972442396E+01  0.24327787991E+02 -0.37592576147E+02  0.44852967878E+02  0.00000000000E+00 0. -1.
         22    1    4    4    0    0  0.56819931584E+01 -0.18781027517E+02  0.28932878728E+02  0.34958883167E+02  0.00000000000E+00 0. -1.
         22    1    4    4    0    0 -0.30847489187E+01 -0.55467604744E+01  0.97920672476E+01  0.11669053459E+02  0.00000000000E+00 0. -1.
<mgrwt>
<rscale>  0 0.91473896E+02</rscale>
<asrwt>0</asrwt>
<pdfrwt beam="2">  1        3 0.69498873E-02 0.91473896E+02</pdfrwt>
<pdfrwt beam="1">  1       -3 0.71240980E-02 0.91473896E+02</pdfrwt>
<totfact> 0.35002986E+04</totfact>
</mgrwt>
</event>
<event>
 7    1  0.1460436E-009  0.9224763E+02  0.7818608E-02  0.1297498E+00
         -3   -1    0    0    0  501 -0.00000000000E+00  0.00000000000E+00  0.64150499950E+02  0.64150579459E+02  0.10100000000E+00 0.  1.
          3   -1    0    0  501    0  0.00000000000E+00 -0.00000000000E+00 -0.33162560399E+02  0.33162714202E+02  0.10100000000E+00 0. -1.
         23    2    1    2    0    0  0.00000000000E+00 -0.33306690739E-15  0.30987939551E+02  0.97313293660E+02  0.92247627208E+02 0.  0.
    9000005    2    3    3    0    0  0.24217931711E+02 -0.16364432509E+00 -0.23799450542E+02  0.37411765224E+02  0.15706410641E+02 0.  0.
         22    1    3    3    0    0 -0.24217931711E+02  0.16364432509E+00  0.54787390093E+02  0.59901528437E+02  0.00000000000E+00 0.  1.
         22    1    4    4    0    0  0.98739074121E+00  0.22063394659E+01 -0.99999654375E+01  0.10287963018E+02  0.00000000000E+00 0.  1.
         22    1    4    4    0    0  0.23230540970E+02 -0.23699837910E+01 -0.13799485105E+02  0.27123802205E+02  0.00000000000E+00 0.  1.
<mgrwt>
<rscale>  0 0.92247627E+02</rscale>
<asrwt>0</asrwt>
<pdfrwt beam="2">  1        3 0.51019503E-02 0.92247627E+02</pdfrwt>
<pdfrwt beam="1">  1       -3 0.98693256E-02 0.92247627E+02</pdfrwt>
<totfact> 0.33779010E+04</totfact>
</mgrwt>
</event>
<event>
 7    1  0.1312339E-009  0.9118809E+02  0.7818608E-02  0.1300000E+00
         -3   -1    0    0    0  501 -0.00000000000E+00  0.00000000000E+00  0.11088256340E+02  0.11088716322E+02  0.10100000000E+00 0.  1.
          3   -1    0    0  501    0  0.00000000000E+00 -0.00000000000E+00 -0.18747477776E+03  0.18747480497E+03  0.10100000000E+00 0. -1.
         23    2    1    2    0    0  0.00000000000E+00 -0.88817841970E-15 -0.17638652142E+03  0.19856352129E+03  0.91188086106E+02 0.  0.
    9000005    2    3    3    0    0 -0.12509438752E+02 -0.60271650349E+01 -0.18227950452E+03  0.18347909137E+03  0.15682679218E+02 0.  0.
         22    1    3    3    0    0  0.12509438752E+02  0.60271650349E+01  0.58929830935E+01  0.15084429919E+02  0.00000000000E+00 0.  1.
         22    1    4    4    0    0 -0.80227515426E+01  0.16983711502E+01 -0.35792578156E+02  0.36719989896E+02  0.00000000000E+00 0.  1.
         22    1    4    4    0    0 -0.44866872093E+01 -0.77255361851E+01 -0.14648692636E+03  0.14675910148E+03  0.00000000000E+00 0.  1.
<mgrwt>
<rscale>  0 0.91188086E+02</rscale>
<asrwt>0</asrwt>
<pdfrwt beam="2">  1        3 0.28842309E-01 0.91188086E+02</pdfrwt>
<pdfrwt beam="1">  1       -3 0.17059232E-02 0.91188086E+02</pdfrwt>
<totfact> 0.28563458E+04</totfact>
</mgrwt>
</event>
<event>
 7    1  0.1312339E-009  0.9095493E+02  0.7818608E-02  0.1300556E+00
          3   -1    0    0  501    0  0.00000000000E+00  0.00000000000E+00  0.14929927553E+03  0.14929930969E+03  0.10100000000E+00 0. -1.
         -3   -1    0    0    0  501 -0.00000000000E+00 -0.00000000000E+00 -0.13852491698E+02  0.13852859894E+02  0.10100000000E+00 0.  1.
         23    2    1    2    0    0 -0.71054273576E-14  0.00000000000E+00  0.13544678383E+03  0.16315216959E+03  0.90954929446E+02 0.  0.
    9000005    2    3    3    0    0 -0.32110737151E+02  0.12863520848E+02  0.19678426699E+02  0.42326335751E+02  0.14412099494E+02 0.  0.
         22    1    3    3    0    0  0.32110737151E+02 -0.12863520848E+02  0.11576835713E+03  0.12082583383E+03  0.00000000000E+00 0. -1.
         22    1    4    4    0    0 -0.10766042232E+02  0.90198414007E+01  0.14166623096E+02  0.19948895061E+02  0.00000000000E+00 0.  1.
         22    1    4    4    0    0 -0.21344694919E+02  0.38436794471E+01  0.55118036035E+01  0.22377440690E+02  0.00000000000E+00 0.  1.
<mgrwt>
<rscale>  0 0.90954929E+02</rscale>
<asrwt>0</asrwt>
<pdfrwt beam="1">  1        3 0.22969153E-01 0.90954929E+02</pdfrwt>
<pdfrwt beam="2">  1       -3 0.21311833E-02 0.90954929E+02</pdfrwt>
<totfact> 0.30723253E+04</totfact>
</mgrwt>
</event>
<event>
 7    1  0.1312339E-009  0.9171976E+02  0.7818608E-02  0.1298740E+00
         -3   -1    0    0    0  501 -0.00000000000E+00  0.00000000000E+00  0.19409183052E+03  0.19409185680E+03  0.10100000000E+00 0.  1.
          3   -1    0    0  501    0  0.00000000000E+00 -0.00000000000E+00 -0.10835477433E+02  0.10835948145E+02  0.10100000000E+00 0. -1.
         23    2    1    2    0    0 -0.17763568394E-14 -0.71054273576E-14  0.18325635308E+03  0.20492780494E+03  0.91719759550E+02 0.  0.
    9000005    2    3    3    0    0  0.13207726779E+02 -0.41274197569E+02  0.11768117751E+03  0.12632686930E+03  0.15218900611E+02 0.  0.
         22    1    3    3    0    0 -0.13207726779E+02  0.41274197569E+02  0.65575175573E+02  0.78600935638E+02  0.00000000000E+00 0. -1.
         22    1    4    4    0    0  0.11427615172E+02 -0.35452881410E+02  0.11188012702E+03  0.11791802241E+03  0.00000000000E+00 0.  1.
         22    1    4    4    0    0  0.17801116067E+01 -0.58213161593E+01  0.58010504944E+01  0.84088468887E+01  0.00000000000E+00 0.  1.
<mgrwt>
<rscale>  0 0.91719760E+02</rscale>
<asrwt>0</asrwt>
<pdfrwt beam="2">  1        3 0.16670347E-02 0.91719760E+02</pdfrwt>
<pdfrwt beam="1">  1       -3 0.29860322E-01 0.91719760E+02</pdfrwt>
<totfact> 0.27794763E+04</totfact>
</mgrwt>
</event>
<event>
 7    1  0.1312339E-009  0.9112435E+02  0.7818608E-02  0.1300152E+00
          3   -1    0    0  501    0  0.00000000000E+00  0.00000000000E+00  0.11467544219E+03  0.11467548667E+03  0.10100000000E+00 0. -1.
         -3   -1    0    0    0  501 -0.00000000000E+00 -0.00000000000E+00 -0.18102306495E+02  0.18102588252E+02  0.10100000000E+00 0.  1.
         23    2    1    2    0    0  0.00000000000E+00 -0.55511151231E-16  0.96573135694E+02  0.13277807492E+03  0.91124347138E+02 0.  0.
    9000005    2    3    3    0    0 -0.32142770161E+02 -0.48590464295E+00  0.46092195515E+01  0.35357565532E+02  0.13982802242E+02 0.  0.
         22    1    3    3    0    0  0.32142770161E+02  0.48590464295E+00  0.91963916142E+02  0.97420509386E+02  0.00000000000E+00 0. -1.
         22    1    4    4    0    0 -0.25406561525E+02  0.38177285060E+01  0.76477937474E+01  0.26805916673E+02  0.00000000000E+00 0.  1.
         22    1    4    4    0    0 -0.67362086359E+01 -0.43036331490E+01 -0.30385741959E+01  0.85516488592E+01  0.00000000000E+00 0.  1.
<mgrwt>
<rscale>  0 0.91124347E+02</rscale>
<asrwt>0</asrwt>
<pdfrwt beam="1">  1        3 0.17642401E-01 0.91124347E+02</pdfrwt>
<pdfrwt beam="2">  1       -3 0.27849953E-02 0.91124347E+02</pdfrwt>
<totfact> 0.32444738E+04</totfact>
</mgrwt>
</event>
<event>
 7    1  0.1312339E-009  0.8816461E+02  0.7818608E-02  0.1307358E+00
          3   -1    0    0  501    0  0.00000000000E+00  0.00000000000E+00  0.25808073096E+01  0.25827828730E+01  0.10100000000E+00 0. -1.
         -3   -1    0    0    0  501 -0.00000000000E+00 -0.00000000000E+00 -0.75267178208E+03  0.75267178885E+03  0.10100000000E+00 0.  1.
         23    2    1    2    0    0  0.22204460493E-15  0.00000000000E+00 -0.75009097477E+03  0.75525457173E+03  0.88164605633E+02 0.  0.
    9000005    2    3    3    0    0  0.18389697051E+01  0.29808752003E+02 -0.64997270335E+03  0.65077676653E+03  0.12407306686E+02 0.  0.
         22    1    3    3    0    0 -0.18389697051E+01 -0.29808752003E+02 -0.10011827142E+03  0.10447780519E+03  0.00000000000E+00 0.  1.
         22    1    4    4    0    0  0.60588069721E+01  0.14415609643E+02 -0.25250896186E+03  0.25299267729E+03  0.00000000000E+00 0.  1.
         22    1    4    4    0    0 -0.42198372671E+01  0.15393142360E+02 -0.39746374149E+03  0.39778408924E+03  0.00000000000E+00 0.  1.
<mgrwt>
<rscale>  0 0.88164606E+02</rscale>
<asrwt>0</asrwt>
<pdfrwt beam="1">  1        3 0.39720037E-03 0.88164606E+02</pdfrwt>
<pdfrwt beam="2">  1       -3 0.11579564E+00 0.88164606E+02</pdfrwt>
<totfact> 0.14234916E+04</totfact>
</mgrwt>
</event>
<event>
 7    1  0.1453433E-009  0.9044150E+02  0.7818608E-02  0.1301786E+00
         -3   -1    0    0    0  501 -0.00000000000E+00  0.00000000000E+00  0.83762675148E+01  0.83768764154E+01  0.10100000000E+00 0.  1.
          3   -1    0    0  501    0  0.00000000000E+00 -0.00000000000E+00 -0.24412268045E+03  0.24412270134E+03  0.10100000000E+00 0. -1.
         23    2    1    2    0    0  0.00000000000E+00 -0.27755575616E-16 -0.23574641294E+03  0.25249957776E+03  0.90441503506E+02 0.  0.
    9000005    2    3    3    0    0 -0.27086686231E+02 -0.21011836001E+00 -0.21830684015E+03  0.22028356590E+03  0.11542973304E+02 0.  0.
         22    1    3    3    0    0  0.27086686231E+02  0.21011836001E+00 -0.17439572790E+02  0.32216011854E+02  0.00000000000E+00 0.  1.
         22    1    4    4    0    0 -0.16998440495E+02  0.54886130424E+00 -0.91018266742E+02  0.92593591078E+02  0.00000000000E+00 0. -1.
         22    1    4    4    0    0 -0.10088245735E+02 -0.75897966425E+00 -0.12728857340E+03  0.12768997483E+03  0.00000000000E+00 0. -1.
<mgrwt>
<rscale>  0 0.90441504E+02</rscale>
<asrwt>0</asrwt>
<pdfrwt beam="2">  1        3 0.37557379E-01 0.90441504E+02</pdfrwt>
<pdfrwt beam="1">  1       -3 0.12887052E-02 0.90441504E+02</pdfrwt>
<totfact> 0.26564693E+04</totfact>
</mgrwt>
</event>
<event>
 7    1  0.1312339E-009  0.8979101E+02  0.7818608E-02  0.1303359E+00
          3   -1    0    0  501    0  0.00000000000E+00  0.00000000000E+00  0.42376686526E+03  0.42376687729E+03  0.10100000000E+00 0. -1.
         -3   -1    0    0    0  501 -0.00000000000E+00 -0.00000000000E+00 -0.47558552809E+01  0.47569276274E+01  0.10100000000E+00 0.  1.
         23    2    1    2    0    0  0.00000000000E+00  0.00000000000E+00  0.41901100998E+03  0.42852380492E+03  0.89791006801E+02 0.  0.
    9000005    2    3    3    0    0  0.93329418952E+01  0.42093563544E+02  0.18800243742E+03  0.19352607622E+03  0.15762417585E+02 0.  0.
         22    1    3    3    0    0 -0.93329418952E+01 -0.42093563544E+02  0.23100857256E+03  0.23499772870E+03  0.00000000000E+00 0. -1.
         22    1    4    4    0    0  0.34378341269E+01  0.26739075852E+01  0.74777792809E+01  0.86536505726E+01  0.00000000000E+00 0.  1.
         22    1    4    4    0    0  0.58951077683E+01  0.39419655958E+02  0.18052465813E+03  0.18487242565E+03  0.00000000000E+00 0.  1.
<mgrwt>
<rscale>  0 0.89791007E+02</rscale>
<asrwt>0</asrwt>
<pdfrwt beam="1">  1        3 0.65194994E-01 0.89791007E+02</pdfrwt>
<pdfrwt beam="2">  1       -3 0.73175337E-03 0.89791007E+02</pdfrwt>
<totfact> 0.20606422E+04</totfact>
</mgrwt>
</event>
<event>
 7    1  0.1312339E-009  0.9030215E+02  0.7818608E-02  0.1302122E+00
         -3   -1    0    0    0  501 -0.00000000000E+00  0.00000000000E+00  0.18129371657E+02  0.18129652994E+02  0.10100000000E+00 0.  1.
          3   -1    0    0  501    0  0.00000000000E+00 -0.00000000000E+00 -0.11244725371E+03  0.11244729907E+03  0.10100000000E+00 0. -1.
         23    2    1    2    0    0  0.71054273576E-14  0.88817841970E-15 -0.94317882055E+02  0.13057695206E+03  0.90302145794E+02 0.  0.
    9000005    2    3    3    0    0 -0.42967575138E+02 -0.59304200216E+01 -0.62164727611E+02  0.76584288344E+02  0.10923253521E+02 0.  0.
         22    1    3    3    0    0  0.42967575138E+02  0.59304200216E+01 -0.32153154444E+02  0.53992663720E+02  0.00000000000E+00 0. -1.
         22    1    4    4    0    0 -0.32201505129E+02 -0.84303206574E+01 -0.42020529744E+02  0.53607202491E+02  0.00000000000E+00 0. -1.
         22    1    4    4    0    0 -0.10766070009E+02  0.24999006358E+01 -0.20144197867E+02  0.22977085853E+02  0.00000000000E+00 0. -1.
<mgrwt>
<rscale>  0 0.90302146E+02</rscale>
<asrwt>0</asrwt>
<pdfrwt beam="2">  1        3 0.17299602E-01 0.90302146E+02</pdfrwt>
<pdfrwt beam="1">  1       -3 0.27891593E-02 0.90302146E+02</pdfrwt>
<totfact> 0.33398433E+04</totfact>
</mgrwt>
</event>
<event>
 7    1  0.1312339E-009  0.8637443E+02  0.7818608E-02  0.1311877E+00
          3   -1    0    0  501    0  0.00000000000E+00  0.00000000000E+00  0.96879500896E+02  0.96879553544E+02  0.10100000000E+00 0. -1.
         -3   -1    0    0    0  501 -0.00000000000E+00 -0.00000000000E+00 -0.19251925395E+02  0.19252190328E+02  0.10100000000E+00 0.  1.
         23    2    1    2    0    0  0.00000000000E+00  0.00000000000E+00  0.77627575501E+02  0.11613174387E+03  0.86374425940E+02 0.  0.
    9000005    2    3    3    0    0  0.31686624200E+02  0.21732709351E+02  0.12463737627E+02  0.40483356080E+02  0.26841302049E+01 0.  0.
         22    1    3    3    0    0 -0.31686624200E+02 -0.21732709351E+02  0.65163837874E+02  0.75648387791E+02  0.00000000000E+00 0. -1.
         22    1    4    4    0    0  0.81247190137E+01  0.52594728389E+01  0.43484949140E+01  0.10610491111E+02  0.00000000000E+00 0.  1.
         22    1    4    4    0    0  0.23561905186E+02  0.16473236512E+02  0.81152427128E+01  0.29872864969E+02  0.00000000000E+00 0.  1.
<mgrwt>
<rscale>  0 0.86374426E+02</rscale>
<asrwt>0</asrwt>
<pdfrwt beam="1">  1        3 0.14904563E-01 0.86374426E+02</pdfrwt>
<pdfrwt beam="2">  1       -3 0.29618591E-02 0.86374426E+02</pdfrwt>
<totfact> 0.38793802E+04</totfact>
</mgrwt>
</event>
<event>
 7    1  0.1312339E-009  0.9012457E+02  0.7818608E-02  0.1302550E+00
         -3   -1    0    0    0  501 -0.00000000000E+00  0.00000000000E+00  0.10379606359E+03  0.10379611273E+03  0.10100000000E+00 0.  1.
          3   -1    0    0  501    0  0.00000000000E+00 -0.00000000000E+00 -0.19563268494E+02  0.19563529210E+02  0.10100000000E+00 0. -1.
         23    2    1    2    0    0  0.00000000000E+00 -0.35527136788E-14  0.84232795092E+02  0.12335964194E+03  0.90124566515E+02 0.  0.
    9000005    2    3    3    0    0 -0.12223525088E+02 -0.30048493287E+02  0.83510659889E+02  0.90912022706E+02  0.15447946244E+02 0.  0.
         22    1    3    3    0    0  0.12223525088E+02  0.30048493287E+02  0.72213520354E+00  0.32447619229E+02  0.00000000000E+00 0. -1.
         22    1    4    4    0    0 -0.66660495298E+01 -0.23271395847E+02  0.74533097594E+02  0.78365660324E+02  0.00000000000E+00 0.  1.
         22    1    4    4    0    0 -0.55574755583E+01 -0.67770974393E+01  0.89775622945E+01  0.12546362383E+02  0.00000000000E+00 0.  1.
<mgrwt>
<rscale>  0 0.90124567E+02</rscale>
<asrwt>0</asrwt>
<pdfrwt beam="2">  1        3 0.30097575E-02 0.90124567E+02</pdfrwt>
<pdfrwt beam="1">  1       -3 0.15968649E-01 0.90124567E+02</pdfrwt>
<totfact> 0.34074964E+04</totfact>
</mgrwt>
</event>
<event>
 7    1  0.1312339E-009  0.9360611E+02  0.7818608E-02  0.1294347E+00
         -3   -1    0    0    0  501 -0.00000000000E+00  0.00000000000E+00  0.89350248634E+01  0.89355956885E+01  0.10100000000E+00 0.  1.
          3   -1    0    0  501    0  0.00000000000E+00 -0.00000000000E+00 -0.24515331121E+03  0.24515333201E+03  0.10100000000E+00 0. -1.
         23    2    1    2    0    0  0.00000000000E+00  0.00000000000E+00 -0.23621828634E+03  0.25408892770E+03  0.93606112926E+02 0.  0.
    9000005    2    3    3    0    0 -0.22180080030E+02  0.84026424454E+01 -0.22758844570E+03  0.22884938532E+03  0.36028036268E+01 0.  0.
         22    1    3    3    0    0  0.22180080030E+02 -0.84026424454E+01 -0.86298406447E+01  0.25239542384E+02  0.00000000000E+00 0.  1.
         22    1    4    4    0    0 -0.72823141526E+01  0.31323029787E+01 -0.60960425477E+02  0.61473708979E+02  0.00000000000E+00 0.  1.
         22    1    4    4    0    0 -0.14897765878E+02  0.52703394666E+01 -0.16662802022E+03  0.16737567634E+03  0.00000000000E+00 0.  1.
<mgrwt>
<rscale>  0 0.93606113E+02</rscale>
<asrwt>0</asrwt>
<pdfrwt beam="2">  1        3 0.37715934E-01 0.93606113E+02</pdfrwt>
<pdfrwt beam="1">  1       -3 0.13746649E-02 0.93606113E+02</pdfrwt>
<totfact> 0.24148501E+04</totfact>
</mgrwt>
</event>
<event>
 7    1  0.1312339E-009  0.9939487E+02  0.7818608E-02  0.1281574E+00
          3   -1    0    0  501    0  0.00000000000E+00  0.00000000000E+00  0.14972167457E+03  0.14972170863E+03  0.10100000000E+00 0. -1.
         -3   -1    0    0    0  501 -0.00000000000E+00 -0.00000000000E+00 -0.16495983830E+02  0.16496293024E+02  0.10100000000E+00 0.  1.
         23    2    1    2    0    0  0.35527136788E-14 -0.71054273576E-14  0.13322569074E+03  0.16621800166E+03  0.99394866078E+02 0.  0.
    9000005    2    3    3    0    0 -0.21023334619E+02  0.36327755045E+02  0.10975089266E+03  0.11812691590E+03  0.12125322015E+02 0.  0.
         22    1    3    3    0    0  0.21023334619E+02 -0.36327755045E+02  0.23474798076E+02  0.48091085762E+02  0.00000000000E+00 0.  1.
         22    1    4    4    0    0 -0.20310359304E+02  0.31163134943E+02  0.10353339850E+03  0.11001280052E+03  0.00000000000E+00 0. -1.
         22    1    4    4    0    0 -0.71297531441E+00  0.51646201021E+01  0.62174941633E+01  0.81141153719E+01  0.00000000000E+00 0. -1.
<mgrwt>
<rscale>  0 0.99394866E+02</rscale>
<asrwt>0</asrwt>
<pdfrwt beam="1">  1        3 0.23034131E-01 0.99394866E+02</pdfrwt>
<pdfrwt beam="2">  1       -3 0.25378700E-02 0.99394866E+02</pdfrwt>
<totfact> 0.23991970E+04</totfact>
</mgrwt>
</event>
<event>
 7    1  0.1312339E-009  0.9165948E+02  0.7818608E-02  0.1298882E+00
          3   -1    0    0  501    0  0.00000000000E+00  0.00000000000E+00  0.28898040084E+03  0.28898041849E+03  0.10100000000E+00 0. -1.
         -3   -1    0    0    0  501 -0.00000000000E+00 -0.00000000000E+00 -0.72678238800E+01  0.72685256380E+01  0.10100000000E+00 0.  1.
         23    2    1    2    0    0  0.35527136788E-14  0.00000000000E+00  0.28171257696E+03  0.29624894413E+03  0.91659483304E+02 0.  0.
    9000005    2    3    3    0    0 -0.17132371500E+02 -0.17254846116E+02  0.26576559216E+03  0.26717052960E+03  0.12549662891E+02 0.  0.
         22    1    3    3    0    0  0.17132371500E+02  0.17254846116E+02  0.15946984799E+02  0.29078414535E+02  0.00000000000E+00 0.  1.
         22    1    4    4    0    0  0.21363259775E+00  0.12129717798E+01  0.40959693216E+01  0.42771373732E+01  0.00000000000E+00 0.  1.
         22    1    4    4    0    0 -0.17346004098E+02 -0.18467817896E+02  0.26166962284E+03  0.26289339222E+03  0.00000000000E+00 0.  1.
<mgrwt>
<rscale>  0 0.91659483E+02</rscale>
<asrwt>0</asrwt>
<pdfrwt beam="1">  1        3 0.44458574E-01 0.91659483E+02</pdfrwt>
<pdfrwt beam="2">  1       -3 0.11181822E-02 0.91659483E+02</pdfrwt>
<totfact> 0.23836276E+04</totfact>
</mgrwt>
</event>
<event>
 7    1  0.1312339E-009  0.9125992E+02  0.7818608E-02  0.1299829E+00
         -3   -1    0    0    0  501 -0.00000000000E+00  0.00000000000E+00  0.12287010618E+02  0.12287425724E+02  0.10100000000E+00 0.  1.
          3   -1    0    0  501    0  0.00000000000E+00 -0.00000000000E+00 -0.16945151965E+03  0.16945154975E+03  0.10100000000E+00 0. -1.
         23    2    1    2    0    0 -0.35527136788E-14  0.00000000000E+00 -0.15716450904E+03  0.18173897548E+03  0.91259916214E+02 0.  0.
    9000005    2    3    3    0    0 -0.27317295730E+02  0.32453281468E+02 -0.11114604182E+03  0.11915184062E+03  0.66534493664E+01 0.  0.
         22    1    3    3    0    0  0.27317295730E+02 -0.32453281468E+02 -0.46018467221E+02  0.62587134856E+02  0.00000000000E+00 0. -1.
         22    1    4    4    0    0 -0.23972781794E+02  0.27494803183E+02 -0.10085233193E+03  0.10724668445E+03  0.00000000000E+00 0. -1.
         22    1    4    4    0    0 -0.33445139359E+01  0.49584782849E+01 -0.10293709883E+02  0.11905156174E+02  0.00000000000E+00 0. -1.
<mgrwt>
<rscale>  0 0.91259916E+02</rscale>
<asrwt>0</asrwt>
<pdfrwt beam="2">  1        3 0.26069497E-01 0.91259916E+02</pdfrwt>
<pdfrwt beam="1">  1       -3 0.18903437E-02 0.91259916E+02</pdfrwt>
<totfact> 0.29398027E+04</totfact>
</mgrwt>
</event>
<event>
 7    1  0.1312339E-009  0.8498008E+02  0.7818608E-02  0.1315485E+00
         -3   -1    0    0    0  501 -0.00000000000E+00  0.00000000000E+00  0.60887422366E+02  0.60887506135E+02  0.10100000000E+00 0.  1.
          3   -1    0    0  501    0  0.00000000000E+00 -0.00000000000E+00 -0.29651312266E+02  0.29651484282E+02  0.10100000000E+00 0. -1.
         23    2    1    2    0    0  0.00000000000E+00  0.88817841970E-15  0.31236110100E+02  0.90538990417E+02  0.84980081264E+02 0.  0.
    9000005    2    3    3    0    0  0.11979444987E+02  0.75861344799E+01  0.58071520628E+02  0.60187782916E+02  0.70150670587E+01 0.  0.
         22    1    3    3    0    0 -0.11979444987E+02 -0.75861344799E+01 -0.26835410528E+02  0.30351207501E+02  0.00000000000E+00 0. -1.
         22    1    4    4    0    0  0.65113572354E+01  0.31927634560E+00  0.19591113180E+02  0.20647310383E+02  0.00000000000E+00 0. -1.
         22    1    4    4    0    0  0.54680877515E+01  0.72668581343E+01  0.38480407448E+02  0.39540472533E+02  0.00000000000E+00 0. -1.
<mgrwt>
<rscale>  0 0.84980081E+02</rscale>
<asrwt>0</asrwt>
<pdfrwt beam="2">  1        3 0.45617601E-02 0.84980081E+02</pdfrwt>
<pdfrwt beam="1">  1       -3 0.93673153E-02 0.84980081E+02</pdfrwt>
<totfact> 0.42824522E+04</totfact>
</mgrwt>
</event>
<event>
 7    1  0.1312339E-009  0.9182769E+02  0.7818608E-02  0.1298485E+00
          3   -1    0    0  501    0  0.00000000000E+00  0.00000000000E+00  0.21933509178E+02  0.21933741721E+02  0.10100000000E+00 0. -1.
         -3   -1    0    0    0  501 -0.00000000000E+00 -0.00000000000E+00 -0.96111593124E+02  0.96111646192E+02  0.10100000000E+00 0.  1.
         23    2    1    2    0    0  0.00000000000E+00  0.00000000000E+00 -0.74178083946E+02  0.11804538791E+03  0.91827694459E+02 0.  0.
    9000005    2    3    3    0    0  0.55904811028E+01 -0.27260661407E+02 -0.83350146837E+02  0.88744809813E+02  0.12409558887E+02 0.  0.
         22    1    3    3    0    0 -0.55904811028E+01  0.27260661407E+02  0.91720628910E+01  0.29300578100E+02  0.00000000000E+00 0. -1.
         22    1    4    4    0    0  0.19438910080E+01 -0.10106988333E+02 -0.50174339927E+02  0.51219081527E+02  0.00000000000E+00 0. -1.
         22    1    4    4    0    0  0.36465900947E+01 -0.17153673074E+02 -0.33175806910E+02  0.37525728286E+02  0.00000000000E+00 0. -1.
<mgrwt>
<rscale>  0 0.91827694E+02</rscale>
<asrwt>0</asrwt>
<pdfrwt beam="1">  1        3 0.33744080E-02 0.91827694E+02</pdfrwt>
<pdfrwt beam="2">  1       -3 0.14786421E-01 0.91827694E+02</pdfrwt>
<totfact> 0.32742102E+04</totfact>
</mgrwt>
</event>
<event>
 7    1  0.1312339E-009  0.9975404E+02  0.7818608E-02  0.1280814E+00
          3   -1    0    0  501    0  0.00000000000E+00  0.00000000000E+00  0.32530327005E+02  0.32530483797E+02  0.10100000000E+00 0. -1.
         -3   -1    0    0    0  501 -0.00000000000E+00 -0.00000000000E+00 -0.76473406417E+02  0.76473473113E+02  0.10100000000E+00 0.  1.
         23    2    1    2    0    0 -0.88817841970E-15  0.35527136788E-14 -0.43943079412E+02  0.10900395691E+03  0.99754039486E+02 0.  0.
    9000005    2    3    3    0    0 -0.45445143063E+01  0.26701084019E+02 -0.66846622254E+02  0.73533225697E+02  0.14320051553E+02 0.  0.
         22    1    3    3    0    0  0.45445143063E+01 -0.26701084019E+02  0.22903542843E+02  0.35470731213E+02  0.00000000000E+00 0. -1.
         22    1    4    4    0    0 -0.41942850251E+01  0.27142949499E+02 -0.53166849987E+02  0.59841838808E+02  0.00000000000E+00 0. -1.
         22    1    4    4    0    0 -0.35022928124E+00 -0.44186548002E+00 -0.13679772267E+02  0.13691386889E+02  0.00000000000E+00 0. -1.
<mgrwt>
<rscale>  0 0.99754039E+02</rscale>
<asrwt>0</asrwt>
<pdfrwt beam="1">  1        3 0.50046829E-02 0.99754039E+02</pdfrwt>
<pdfrwt beam="2">  1       -3 0.11765157E-01 0.99754039E+02</pdfrwt>
<totfact> 0.26596929E+04</totfact>
</mgrwt>
</event>
<event>
 7    1  0.2492842E-009  0.8968417E+02  0.7818608E-02  0.1303618E+00
         -3   -1    0    0    0  501 -0.00000000000E+00  0.00000000000E+00  0.35900674899E+02  0.35900816971E+02  0.10100000000E+00 0.  1.
          3   -1    0    0  501    0  0.00000000000E+00 -0.00000000000E+00 -0.56010141499E+02  0.56010232563E+02  0.10100000000E+00 0. -1.
         23    2    1    2    0    0  0.00000000000E+00  0.00000000000E+00 -0.20109466600E+02  0.91911049533E+02  0.89684170172E+02 0.  0.
    9000005    2    3    3    0    0 -0.26166542205E+02 -0.28400507627E+02  0.10610875458E+02  0.42565166417E+02  0.14419637640E+02 0.  0.
         22    1    3    3    0    0  0.26166542205E+02  0.28400507627E+02 -0.30720342058E+02  0.49345883117E+02  0.00000000000E+00 0. -1.
         22    1    4    4    0    0 -0.27148884393E+02 -0.24736693632E+02  0.11820822404E+02  0.38583646509E+02  0.00000000000E+00 0.  1.
         22    1    4    4    0    0  0.98234218765E+00 -0.36638139951E+01 -0.12099469465E+01  0.39815199080E+01  0.00000000000E+00 0.  1.
<mgrwt>
<rscale>  0 0.89684170E+02</rscale>
<asrwt>0</asrwt>
<pdfrwt beam="2">  1        3 0.86169628E-02 0.89684170E+02</pdfrwt>
<pdfrwt beam="1">  1       -3 0.55231987E-02 0.89684170E+02</pdfrwt>
<totfact> 0.36901140E+04</totfact>
</mgrwt>
</event>
<event>
 7    1  0.1312339E-009  0.9028743E+02  0.7818608E-02  0.1302157E+00
         -3   -1    0    0    0  501 -0.00000000000E+00  0.00000000000E+00  0.20378366286E+03  0.20378368789E+03  0.10100000000E+00 0.  1.
          3   -1    0    0  501    0  0.00000000000E+00 -0.00000000000E+00 -0.10000299195E+02  0.10000809217E+02  0.10100000000E+00 0. -1.
         23    2    1    2    0    0  0.00000000000E+00 -0.35527136788E-14  0.19378336366E+03  0.21378449710E+03  0.90287425310E+02 0.  0.
    9000005    2    3    3    0    0  0.29357317944E+02  0.25839756556E+02  0.14862374183E+03  0.15404391977E+03  0.10534108764E+02 0.  0.
         22    1    3    3    0    0 -0.29357317944E+02 -0.25839756556E+02  0.45159621832E+02  0.59740577330E+02  0.00000000000E+00 0. -1.
         22    1    4    4    0    0  0.16415930275E+02  0.97173444526E+01  0.56665202223E+02  0.59790088584E+02  0.00000000000E+00 0. -1.
         22    1    4    4    0    0  0.12941387669E+02  0.16122412103E+02  0.91958539607E+02  0.94253831188E+02  0.00000000000E+00 0. -1.
<mgrwt>
<rscale>  0 0.90287425E+02</rscale>
<asrwt>0</asrwt>
<pdfrwt beam="2">  1        3 0.15385489E-02 0.90287425E+02</pdfrwt>
<pdfrwt beam="1">  1       -3 0.31351370E-01 0.90287425E+02</pdfrwt>
<totfact> 0.28542372E+04</totfact>
</mgrwt>
</event>
<event>
 7    1  0.1312339E-009  0.9009803E+02  0.7818608E-02  0.1302614E+00
          3   -1    0    0  501    0  0.00000000000E+00  0.00000000000E+00  0.20365374854E+02  0.20365625302E+02  0.10100000000E+00 0. -1.
         -3   -1    0    0    0  501 -0.00000000000E+00 -0.00000000000E+00 -0.99649310246E+02  0.99649361430E+02  0.10100000000E+00 0.  1.
         23    2    1    2    0    0  0.00000000000E+00  0.00000000000E+00 -0.79283935392E+02  0.12001498673E+03  0.90098027887E+02 0.  0.
    9000005    2    3    3    0    0 -0.15105910751E+02  0.36937987769E+02 -0.65714059017E+02  0.77863533319E+02  0.12320259266E+02 0.  0.
         22    1    3    3    0    0  0.15105910751E+02 -0.36937987769E+02 -0.13569876374E+02  0.42151453413E+02  0.00000000000E+00 0. -1.
         22    1    4    4    0    0 -0.15462983214E+01  0.32591723789E+01 -0.15407858859E+02  0.15824517614E+02  0.00000000000E+00 0.  1.
         22    1    4    4    0    0 -0.13559612429E+02  0.33678815390E+02 -0.50306200159E+02  0.62039015705E+02  0.00000000000E+00 0.  1.
<mgrwt>
<rscale>  0 0.90098028E+02</rscale>
<asrwt>0</asrwt>
<pdfrwt beam="1">  1        3 0.31331578E-02 0.90098028E+02</pdfrwt>
<pdfrwt beam="2">  1       -3 0.15330686E-01 0.90098028E+02</pdfrwt>
<totfact> 0.34337117E+04</totfact>
</mgrwt>
</event>
<event>
 7    1  0.1312339E-009  0.7867218E+02  0.7818608E-02  0.1332862E+00
          3   -1    0    0  501    0  0.00000000000E+00  0.00000000000E+00  0.19925990500E+03  0.19925993059E+03  0.10100000000E+00 0. -1.
         -3   -1    0    0    0  501 -0.00000000000E+00 -0.00000000000E+00 -0.77650204207E+01  0.77656772489E+01  0.10100000000E+00 0.  1.
         23    2    1    2    0    0  0.00000000000E+00 -0.17763568394E-14  0.19149488457E+03  0.20702560784E+03  0.78672177317E+02 0.  0.
    9000005    2    3    3    0    0 -0.30954998745E+01  0.12956590017E+02  0.19307076029E+03  0.19361148362E+03  0.56243012596E+01 0.  0.
         22    1    3    3    0    0  0.30954998745E+01 -0.12956590017E+02 -0.15758757197E+01  0.13414124221E+02  0.00000000000E+00 0.  1.
         22    1    4    4    0    0 -0.35363978443E+01  0.93022218106E+01  0.16508625096E+03  0.16538593561E+03  0.00000000000E+00 0.  1.
         22    1    4    4    0    0  0.44089796979E+00  0.36543682063E+01  0.27984509335E+02  0.28225548015E+02  0.00000000000E+00 0.  1.
<mgrwt>
<rscale>  0 0.78672177E+02</rscale>
<asrwt>0</asrwt>
<pdfrwt beam="1">  1        3 0.30655419E-01 0.78672177E+02</pdfrwt>
<pdfrwt beam="2">  1       -3 0.11946712E-02 0.78672177E+02</pdfrwt>
<totfact> 0.41727905E+04</totfact>
</mgrwt>
</event>
<event>
 7    1  0.1312339E-009  0.9185099E+02  0.7818608E-02  0.1298430E+00
         -3   -1    0    0    0  501 -0.00000000000E+00  0.00000000000E+00  0.46254464817E+01  0.46265490546E+01  0.10100000000E+00 0.  1.
          3   -1    0    0  501    0  0.00000000000E+00 -0.00000000000E+00 -0.45593318047E+03  0.45593319166E+03  0.10100000000E+00 0. -1.
         23    2    1    2    0    0  0.35527136788E-14  0.00000000000E+00 -0.45130773399E+03  0.46055974072E+03  0.91850988055E+02 0.  0.
    9000005    2    3    3    0    0 -0.19594690971E+02 -0.40075938866E+02 -0.18828626095E+03  0.19378206535E+03  0.10475686128E+02 0.  0.
         22    1    3    3    0    0  0.19594690971E+02  0.40075938866E+02 -0.26302147305E+03  0.26677767536E+03  0.00000000000E+00 0.  1.
         22    1    4    4    0    0 -0.77745040860E+01 -0.99111320697E+01 -0.37654855120E+02  0.39705938684E+02  0.00000000000E+00 0. -1.
         22    1    4    4    0    0 -0.11820186885E+02 -0.30164806796E+02 -0.15063140583E+03  0.15407612667E+03  0.00000000000E+00 0. -1.
<mgrwt>
<rscale>  0 0.91850988E+02</rscale>
<asrwt>0</asrwt>
<pdfrwt beam="2">  1        3 0.70143617E-01 0.91850988E+02</pdfrwt>
<pdfrwt beam="1">  1       -3 0.71169318E-03 0.91850988E+02</pdfrwt>
<totfact> 0.18538601E+04</totfact>
</mgrwt>
</event>
<event>
 7    1  0.1312339E-009  0.9045696E+02  0.7818608E-02  0.1301749E+00
         -3   -1    0    0    0  501 -0.00000000000E+00  0.00000000000E+00  0.39244257286E+02  0.39244387254E+02  0.10100000000E+00 0.  1.
          3   -1    0    0  501    0  0.00000000000E+00 -0.00000000000E+00 -0.52124952067E+02  0.52125049918E+02  0.10100000000E+00 0. -1.
         23    2    1    2    0    0  0.00000000000E+00 -0.35527136788E-14 -0.12880694781E+02  0.91369437172E+02  0.90456960766E+02 0.  0.
    9000005    2    3    3    0    0  0.38229487963E+02 -0.21663478685E+02 -0.11654597396E+02  0.47411464363E+02  0.13461695803E+02 0.  0.
         22    1    3    3    0    0 -0.38229487963E+02  0.21663478685E+02 -0.12260973847E+01  0.43957972809E+02  0.00000000000E+00 0. -1.
         22    1    4    4    0    0  0.21517591727E+01  0.16131404403E+01 -0.21354125156E+01  0.34339883851E+01  0.00000000000E+00 0.  1.
         22    1    4    4    0    0  0.36077728791E+02 -0.23276619125E+02 -0.95191848804E+01  0.43977475978E+02  0.00000000000E+00 0.  1.
<mgrwt>
<rscale>  0 0.90456961E+02</rscale>
<asrwt>0</asrwt>
<pdfrwt beam="2">  1        3 0.80192410E-02 0.90456961E+02</pdfrwt>
<pdfrwt beam="1">  1       -3 0.60375955E-02 0.90456961E+02</pdfrwt>
<totfact> 0.36094071E+04</totfact>
</mgrwt>
</event>
<event>
 7    1  0.1312339E-009  0.9087478E+02  0.7818608E-02  0.1300747E+00
          3   -1    0    0  501    0  0.00000000000E+00  0.00000000000E+00  0.49647919694E+02  0.49648022428E+02  0.10100000000E+00 0. -1.
         -3   -1    0    0    0  501 -0.00000000000E+00 -0.00000000000E+00 -0.41583743212E+02  0.41583865868E+02  0.10100000000E+00 0.  1.
         23    2    1    2    0    0  0.00000000000E+00  0.22204460493E-15  0.80641764822E+01  0.91231888296E+02  0.90874784730E+02 0.  0.
    9000005    2    3    3    0    0 -0.15421948304E+02  0.34590628221E+00 -0.37990125436E+02  0.42662815154E+02  0.11786009739E+02 0.  0.
         22    1    3    3    0    0  0.15421948304E+02 -0.34590628221E+00  0.46054301918E+02  0.48569073142E+02  0.00000000000E+00 0. -1.
         22    1    4    4    0    0  0.56576327612E+00  0.29785856468E+01 -0.83440323876E+01  0.88777777076E+01  0.00000000000E+00 0. -1.
         22    1    4    4    0    0 -0.15987711580E+02 -0.26326793646E+01 -0.29646093049E+02  0.33785037447E+02  0.00000000000E+00 0. -1.
<mgrwt>
<rscale>  0 0.90874785E+02</rscale>
<asrwt>0</asrwt>
<pdfrwt beam="1">  1        3 0.76381588E-02 0.90874785E+02</pdfrwt>
<pdfrwt beam="2">  1       -3 0.63975163E-02 0.90874785E+02</pdfrwt>
<totfact> 0.35655327E+04</totfact>
</mgrwt>
</event>
<event>
 7    1  0.1312339E-009  0.8800165E+02  0.7818608E-02  0.1307764E+00
          3   -1    0    0  501    0  0.00000000000E+00  0.00000000000E+00  0.12747356008E+02  0.12747756124E+02  0.10100000000E+00 0. -1.
         -3   -1    0    0    0  501 -0.00000000000E+00 -0.00000000000E+00 -0.15187753210E+03  0.15187756569E+03  0.10100000000E+00 0.  1.
         23    2    1    2    0    0  0.00000000000E+00  0.00000000000E+00 -0.13913017610E+03  0.16462532181E+03  0.88001651580E+02 0.  0.
    9000005    2    3    3    0    0 -0.65570122710E+01 -0.40522573965E+02 -0.49874504622E+02  0.66382519016E+02  0.15300300944E+02 0.  0.
         22    1    3    3    0    0  0.65570122710E+01  0.40522573965E+02 -0.89255671474E+02  0.98242802794E+02  0.00000000000E+00 0. -1.
         22    1    4    4    0    0 -0.63791799450E+01 -0.22982022158E+02 -0.39087548293E+02  0.45789777362E+02  0.00000000000E+00 0.  1.
         22    1    4    4    0    0 -0.17783232594E+00 -0.17540551806E+02 -0.10786956329E+02  0.20592741655E+02  0.00000000000E+00 0.  1.
<mgrwt>
<rscale>  0 0.88001652E+02</rscale>
<asrwt>0</asrwt>
<pdfrwt beam="1">  1        3 0.19611652E-02 0.88001652E+02</pdfrwt>
<pdfrwt beam="2">  1       -3 0.23365806E-01 0.88001652E+02</pdfrwt>
<totfact> 0.33487480E+04</totfact>
</mgrwt>
</event>
<event>
 7    1  0.1312339E-009  0.9059909E+02  0.7818608E-02  0.1301407E+00
          3   -1    0    0  501    0  0.00000000000E+00  0.00000000000E+00  0.63470684718E+01  0.63478720202E+01  0.10100000000E+00 0. -1.
         -3   -1    0    0    0  501 -0.00000000000E+00 -0.00000000000E+00 -0.32328525235E+03  0.32328526812E+03  0.10100000000E+00 0.  1.
         23    2    1    2    0    0  0.00000000000E+00  0.00000000000E+00 -0.31693818387E+03  0.32963314014E+03  0.90599087651E+02 0.  0.
    9000005    2    3    3    0    0  0.42417685692E+02  0.12279685262E+02 -0.14534738668E+03  0.15245116473E+03  0.12862506881E+02 0.  0.
         22    1    3    3    0    0 -0.42417685692E+02 -0.12279685262E+02 -0.17159079720E+03  0.17718197542E+03  0.00000000000E+00 0. -1.
         22    1    4    4    0    0  0.26271324793E+02  0.10343406592E+02 -0.10960607818E+03  0.11318419033E+03  0.00000000000E+00 0. -1.
         22    1    4    4    0    0  0.16146360899E+02  0.19362786704E+01 -0.35741308498E+02  0.39266974400E+02  0.00000000000E+00 0. -1.
<mgrwt>
<rscale>  0 0.90599088E+02</rscale>
<asrwt>0</asrwt>
<pdfrwt beam="1">  1        3 0.97653535E-03 0.90599088E+02</pdfrwt>
<pdfrwt beam="2">  1       -3 0.49736243E-01 0.90599088E+02</pdfrwt>
<totfact> 0.23312008E+04</totfact>
</mgrwt>
</event>
<event>
 7    1  0.1312339E-009  0.8886296E+02  0.7818608E-02  0.1305629E+00
         -3   -1    0    0    0  501 -0.00000000000E+00  0.00000000000E+00  0.24759716380E+02  0.24759922379E+02  0.10100000000E+00 0.  1.
          3   -1    0    0  501    0  0.00000000000E+00 -0.00000000000E+00 -0.79732022378E+02  0.79732086348E+02  0.10100000000E+00 0. -1.
         23    2    1    2    0    0  0.00000000000E+00  0.00000000000E+00 -0.54972305998E+02  0.10449200873E+03  0.88862958881E+02 0.  0.
    9000005    2    3    3    0    0  0.18066797679E+02 -0.30084780740E+01 -0.74772347309E+02  0.77519768282E+02  0.91077128680E+01 0.  0.
         22    1    3    3    0    0 -0.18066797679E+02  0.30084780740E+01  0.19800041311E+02  0.26972240445E+02  0.00000000000E+00 0.  1.
         22    1    4    4    0    0  0.16482177234E+02 -0.20080261422E+00 -0.52828063368E+02  0.55339920196E+02  0.00000000000E+00 0. -1.
         22    1    4    4    0    0  0.15846204454E+01 -0.28076754598E+01 -0.21944283941E+02  0.22179848086E+02  0.00000000000E+00 0. -1.
<mgrwt>
<rscale>  0 0.88862959E+02</rscale>
<asrwt>0</asrwt>
<pdfrwt beam="2">  1        3 0.12266486E-01 0.88862959E+02</pdfrwt>
<pdfrwt beam="1">  1       -3 0.38092079E-02 0.88862959E+02</pdfrwt>
<totfact> 0.36820583E+04</totfact>
</mgrwt>
</event>
<event>
 7    1  0.1312339E-009  0.9027575E+02  0.7818608E-02  0.1302185E+00
          3   -1    0    0  501    0  0.00000000000E+00  0.00000000000E+00  0.23410129007E+02  0.23410346882E+02  0.10100000000E+00 0. -1.
         -3   -1    0    0    0  501 -0.00000000000E+00 -0.00000000000E+00 -0.87031237573E+02  0.87031296179E+02  0.10100000000E+00 0.  1.
         23    2    1    2    0    0  0.00000000000E+00 -0.35527136788E-14 -0.63621108566E+02  0.11044164306E+03  0.90275750159E+02 0.  0.
    9000005    2    3    3    0    0 -0.62209080566E+01  0.19521506521E+02  0.16009866702E+02  0.28217065616E+02  0.10958925415E+02 0.  0.
         22    1    3    3    0    0  0.62209080566E+01 -0.19521506521E+02 -0.79630975268E+02  0.82224577445E+02  0.00000000000E+00 0.  1.
         22    1    4    4    0    0 -0.19293805958E+01  0.88666304575E+01  0.13805737637E+02  0.16520836446E+02  0.00000000000E+00 0. -1.
         22    1    4    4    0    0 -0.42915274607E+01  0.10654876063E+02  0.22041290650E+01  0.11696229170E+02  0.00000000000E+00 0. -1.
<mgrwt>
<rscale>  0 0.90275750E+02</rscale>
<asrwt>0</asrwt>
<pdfrwt beam="1">  1        3 0.36015796E-02 0.90275750E+02</pdfrwt>
<pdfrwt beam="2">  1       -3 0.13389442E-01 0.90275750E+02</pdfrwt>
<totfact> 0.34841357E+04</totfact>
</mgrwt>
</event>
<event>
 7    1  0.1745123E-009  0.9922008E+02  0.7818608E-02  0.1281945E+00
         -3   -1    0    0    0  501 -0.00000000000E+00  0.00000000000E+00  0.43634479048E+02  0.43634595939E+02  0.10100000000E+00 0.  1.
          3   -1    0    0  501    0  0.00000000000E+00 -0.00000000000E+00 -0.56403687528E+02  0.56403777956E+02  0.10100000000E+00 0. -1.
         23    2    1    2    0    0 -0.35527136788E-14 -0.35527136788E-14 -0.12769208480E+02  0.10003837390E+03  0.99220076428E+02 0.  0.
    9000005    2    3    3    0    0 -0.26240505945E+02 -0.19277357858E+02  0.29517159051E+02  0.46668742482E+02  0.15701215502E+02 0.  0.
         22    1    3    3    0    0  0.26240505945E+02  0.19277357858E+02 -0.42286367531E+02  0.53369631413E+02  0.00000000000E+00 0. -1.
         22    1    4    4    0    0  0.18173753455E+01 -0.15386580318E+01  0.21496107222E+00  0.23909265877E+01  0.00000000000E+00 0. -1.
         22    1    4    4    0    0 -0.28057881290E+02 -0.17738699826E+02  0.29302197979E+02  0.44277815895E+02  0.00000000000E+00 0. -1.
<mgrwt>
<rscale>  0 0.99220076E+02</rscale>
<asrwt>0</asrwt>
<pdfrwt beam="2">  1        3 0.86775064E-02 0.99220076E+02</pdfrwt>
<pdfrwt beam="1">  1       -3 0.67130127E-02 0.99220076E+02</pdfrwt>
<totfact> 0.27503620E+04</totfact>
</mgrwt>
</event>
<event>
 7    1  0.1312339E-009  0.9233940E+02  0.7818608E-02  0.1297283E+00
         -3   -1    0    0    0  501 -0.00000000000E+00  0.00000000000E+00  0.32169098802E+02  0.32169257355E+02  0.10100000000E+00 0.  1.
          3   -1    0    0  501    0  0.00000000000E+00 -0.00000000000E+00 -0.66263260551E+02  0.66263337524E+02  0.10100000000E+00 0. -1.
         23    2    1    2    0    0  0.00000000000E+00 -0.71054273576E-14 -0.34094161749E+02  0.98432594879E+02  0.92339395002E+02 0.  0.
    9000005    2    3    3    0    0  0.13994825358E+02  0.42115122409E+02 -0.27739706955E+02  0.53600488437E+02  0.11575074361E+02 0.  0.
         22    1    3    3    0    0 -0.13994825358E+02 -0.42115122409E+02 -0.63544547942E+01  0.44832106442E+02  0.00000000000E+00 0.  1.
         22    1    4    4    0    0  0.37326327391E+01  0.62666681534E+01 -0.29315155767E+00  0.72999736127E+01  0.00000000000E+00 0.  1.
         22    1    4    4    0    0  0.10262192618E+02  0.35848454255E+02 -0.27446555397E+02  0.46300514824E+02  0.00000000000E+00 0.  1.
<mgrwt>
<rscale>  0 0.92339395E+02</rscale>
<asrwt>0</asrwt>
<pdfrwt beam="2">  1        3 0.10194366E-01 0.92339395E+02</pdfrwt>
<pdfrwt beam="1">  1       -3 0.49491103E-02 0.92339395E+02</pdfrwt>
<totfact> 0.33605478E+04</totfact>
</mgrwt>
</event>
<event>
 7    1  0.1312339E-009  0.9129116E+02  0.7818608E-02  0.1299755E+00
          3   -1    0    0  501    0  0.00000000000E+00  0.00000000000E+00  0.17924581409E+02  0.17924865960E+02  0.10100000000E+00 0. -1.
         -3   -1    0    0    0  501 -0.00000000000E+00 -0.00000000000E+00 -0.11623686248E+03  0.11623690636E+03  0.10100000000E+00 0.  1.
         23    2    1    2    0    0  0.00000000000E+00 -0.35527136788E-14 -0.98312281068E+02  0.13416177232E+03  0.91291163552E+02 0.  0.
    9000005    2    3    3    0    0 -0.35655081013E+02 -0.21347052326E+02 -0.76308400739E+02  0.87138882204E+02  0.65750531112E+01 0.  0.
         22    1    3    3    0    0  0.35655081013E+02  0.21347052326E+02 -0.22003880329E+02  0.47022890113E+02  0.00000000000E+00 0. -1.
         22    1    4    4    0    0 -0.19476076729E+02 -0.15421212719E+02 -0.45440289249E+02  0.51787558868E+02  0.00000000000E+00 0.  1.
         22    1    4    4    0    0 -0.16179004284E+02 -0.59258396074E+01 -0.30868111490E+02  0.35351323337E+02  0.00000000000E+00 0.  1.
<mgrwt>
<rscale>  0 0.91291164E+02</rscale>
<asrwt>0</asrwt>
<pdfrwt beam="1">  1        3 0.27576532E-02 0.91291164E+02</pdfrwt>
<pdfrwt beam="2">  1       -3 0.17882619E-01 0.91291164E+02</pdfrwt>
<totfact> 0.32195961E+04</totfact>
</mgrwt>
</event>
<event>
 7    1  0.1312339E-009  0.8713398E+02  0.7818608E-02  0.1309944E+00
          3   -1    0    0  501    0  0.00000000000E+00  0.00000000000E+00  0.20465608788E+02  0.20465858010E+02  0.10100000000E+00 0. -1.
         -3   -1    0    0    0  501 -0.00000000000E+00 -0.00000000000E+00 -0.92744150372E+02  0.92744205368E+02  0.10100000000E+00 0.  1.
         23    2    1    2    0    0  0.35527136788E-14  0.00000000000E+00 -0.72278541584E+02  0.11321006338E+03  0.87133982329E+02 0.  0.
    9000005    2    3    3    0    0  0.18634566743E+02 -0.36489565465E+02 -0.55145650753E+02  0.68799800895E+02  0.36924708223E+01 0.  0.
         22    1    3    3    0    0 -0.18634566743E+02  0.36489565465E+02 -0.17132890831E+02  0.44410262482E+02  0.00000000000E+00 0. -1.
         22    1    4    4    0    0  0.10000440861E+02 -0.23487246610E+02 -0.33828798705E+02  0.42379796986E+02  0.00000000000E+00 0.  1.
         22    1    4    4    0    0  0.86341258822E+01 -0.13002318854E+02 -0.21316852048E+02  0.26420003909E+02  0.00000000000E+00 0.  1.
<mgrwt>
<rscale>  0 0.87133982E+02</rscale>
<asrwt>0</asrwt>
<pdfrwt beam="1">  1        3 0.31485787E-02 0.87133982E+02</pdfrwt>
<pdfrwt beam="2">  1       -3 0.14268354E-01 0.87133982E+02</pdfrwt>
<totfact> 0.38122721E+04</totfact>
</mgrwt>
</event>
<event>
 7    1  0.1312339E-009  0.8794802E+02  0.7818608E-02  0.1307898E+00
          3   -1    0    0  501    0  0.00000000000E+00  0.00000000000E+00  0.83633096676E+01  0.83639195116E+01  0.10100000000E+00 0. -1.
         -3   -1    0    0    0  501 -0.00000000000E+00 -0.00000000000E+00 -0.23120488663E+03  0.23120490869E+03  0.10100000000E+00 0.  1.
         23    2    1    2    0    0 -0.71054273576E-14  0.00000000000E+00 -0.22284157696E+03  0.23956882820E+03  0.87948024554E+02 0.  0.
    9000005    2    3    3    0    0  0.39092294358E+02  0.12920392622E+02 -0.14575106185E+03  0.15217265240E+03  0.14764825974E+02 0.  0.
         22    1    3    3    0    0 -0.39092294358E+02 -0.12920392622E+02 -0.77090515115E+02  0.87396175800E+02  0.00000000000E+00 0. -1.
         22    1    4    4    0    0  0.38710914639E+02  0.11033092121E+02 -0.14416206933E+03  0.14967620475E+03  0.00000000000E+00 0. -1.
         22    1    4    4    0    0  0.38137971847E+00  0.18873005010E+01 -0.15889925126E+01  0.24964476513E+01  0.00000000000E+00 0. -1.
<mgrwt>
<rscale>  0 0.87948025E+02</rscale>
<asrwt>0</asrwt>
<pdfrwt beam="1">  1        3 0.12867118E-02 0.87948025E+02</pdfrwt>
<pdfrwt beam="2">  1       -3 0.35570026E-01 0.87948025E+02</pdfrwt>
<totfact> 0.29268546E+04</totfact>
</mgrwt>
</event>
<event>
 7    1  0.1312339E-009  0.9086106E+02  0.7818608E-02  0.1300780E+00
          3   -1    0    0  501    0  0.00000000000E+00  0.00000000000E+00  0.70864847938E+02  0.70864919913E+02  0.10100000000E+00 0. -1.
         -3   -1    0    0    0  501 -0.00000000000E+00 -0.00000000000E+00 -0.29124745455E+02  0.29124920580E+02  0.10100000000E+00 0.  1.
         23    2    1    2    0    0  0.00000000000E+00  0.88817841970E-15  0.41740102483E+02  0.99989840493E+02  0.90861059022E+02 0.  0.
    9000005    2    3    3    0    0 -0.14461792372E+02 -0.73418644029E+01 -0.24192008285E+02  0.32092199578E+02  0.13476260513E+02 0.  0.
         22    1    3    3    0    0  0.14461792372E+02  0.73418644029E+01  0.65932110767E+02  0.67897640915E+02  0.00000000000E+00 0. -1.
         22    1    4    4    0    0 -0.86561312928E+01 -0.79658367798E+01 -0.64539242898E+01  0.13417760741E+02  0.00000000000E+00 0. -1.
         22    1    4    4    0    0 -0.58056610789E+01  0.62397237691E+00 -0.17738083995E+02  0.18674438838E+02  0.00000000000E+00 0. -1.
<mgrwt>
<rscale>  0 0.90861059E+02</rscale>
<asrwt>0</asrwt>
<pdfrwt beam="1">  1        3 0.10902303E-01 0.90861059E+02</pdfrwt>
<pdfrwt beam="2">  1       -3 0.44807491E-02 0.90861059E+02</pdfrwt>
<totfact> 0.35000627E+04</totfact>
</mgrwt>
</event>
<event>
 7    1  0.1312339E-009  0.9260152E+02  0.7818608E-02  0.1296671E+00
         -3   -1    0    0    0  501 -0.00000000000E+00  0.00000000000E+00  0.23436246959E+02  0.23436464591E+02  0.10100000000E+00 0.  1.
          3   -1    0    0  501    0  0.00000000000E+00 -0.00000000000E+00 -0.91471323402E+02  0.91471379163E+02  0.10100000000E+00 0. -1.
         23    2    1    2    0    0  0.35527136788E-14 -0.35527136788E-14 -0.68035076443E+02  0.11490784375E+03  0.92601516886E+02 0.  0.
    9000005    2    3    3    0    0  0.26241010225E+02 -0.29075790852E+02 -0.40746845157E+01  0.39908350644E+02  0.64869997601E+01 0.  0.
         22    1    3    3    0    0 -0.26241010225E+02  0.29075790852E+02 -0.63960391927E+02  0.74999493110E+02  0.00000000000E+00 0. -1.
         22    1    4    4    0    0  0.47364053426E+01 -0.89877195219E+01 -0.23662310670E+01  0.10431284065E+02  0.00000000000E+00 0. -1.
         22    1    4    4    0    0  0.21504604883E+02 -0.20088071330E+02 -0.17084534487E+01  0.29477066579E+02  0.00000000000E+00 0. -1.
<mgrwt>
<rscale>  0 0.92601517E+02</rscale>
<asrwt>0</asrwt>
<pdfrwt beam="2">  1        3 0.14072532E-01 0.92601517E+02</pdfrwt>
<pdfrwt beam="1">  1       -3 0.36055975E-02 0.92601517E+02</pdfrwt>
<totfact> 0.32208855E+04</totfact>
</mgrwt>
</event>
<event>
 7    1  0.1312339E-009  0.8826241E+02  0.7818608E-02  0.1307115E+00
         -3   -1    0    0    0  501 -0.00000000000E+00  0.00000000000E+00  0.81599737589E+01  0.81605987982E+01  0.10100000000E+00 0.  1.
          3   -1    0    0  501    0  0.00000000000E+00 -0.00000000000E+00 -0.23866296423E+03  0.23866298560E+03  0.10100000000E+00 0. -1.
         23    2    1    2    0    0  0.00000000000E+00  0.00000000000E+00 -0.23050299047E+03  0.24682358440E+03  0.88262411024E+02 0.  0.
    9000005    2    3    3    0    0  0.26293886257E+02  0.55159670563E+01 -0.21237993313E+03  0.21441618471E+03  0.12135482057E+02 0.  0.
         22    1    3    3    0    0 -0.26293886257E+02 -0.55159670563E+01 -0.18123057348E+02  0.32407399690E+02  0.00000000000E+00 0.  1.
         22    1    4    4    0    0  0.14736363077E+01 -0.29115756632E+01 -0.24733871746E+02  0.24948212127E+02  0.00000000000E+00 0.  1.
         22    1    4    4    0    0  0.24820249949E+02  0.84275427196E+01 -0.18764606138E+03  0.18946797258E+03  0.00000000000E+00 0.  1.
<mgrwt>
<rscale>  0 0.88262411E+02</rscale>
<asrwt>0</asrwt>
<pdfrwt beam="2">  1        3 0.36717424E-01 0.88262411E+02</pdfrwt>
<pdfrwt beam="1">  1       -3 0.12554305E-02 0.88262411E+02</pdfrwt>
<totfact> 0.28634675E+04</totfact>
</mgrwt>
</event>
<event>
 7    1  0.1312339E-009  0.9125499E+02  0.7818608E-02  0.1299841E+00
         -3   -1    0    0    0  501 -0.00000000000E+00  0.00000000000E+00  0.21083026602E+03  0.21083029022E+03  0.10100000000E+00 0.  1.
          3   -1    0    0  501    0  0.00000000000E+00 -0.00000000000E+00 -0.98743347910E+01  0.98748513186E+01  0.10100000000E+00 0. -1.
         23    2    1    2    0    0  0.00000000000E+00  0.35527136788E-14  0.20095593123E+03  0.22070514153E+03  0.91254990013E+02 0.  0.
    9000005    2    3    3    0    0  0.46357841225E+01  0.29153000924E+02  0.18341917703E+03  0.18636965399E+03  0.14821115548E+02 0.  0.
         22    1    3    3    0    0 -0.46357841225E+01 -0.29153000924E+02  0.17536754198E+02  0.34335487547E+02  0.00000000000E+00 0. -1.
         22    1    4    4    0    0  0.82060570417E+01  0.84925183873E+01  0.55377691878E+02  0.56622884052E+02  0.00000000000E+00 0.  1.
         22    1    4    4    0    0 -0.35702729192E+01  0.20660482537E+02  0.12804148516E+03  0.12974676993E+03  0.00000000000E+00 0.  1.
<mgrwt>
<rscale>  0 0.91254990E+02</rscale>
<asrwt>0</asrwt>
<pdfrwt beam="2">  1        3 0.15191701E-02 0.91254990E+02</pdfrwt>
<pdfrwt beam="1">  1       -3 0.32435465E-01 0.91254990E+02</pdfrwt>
<totfact> 0.27396521E+04</totfact>
</mgrwt>
</event>
<event>
 7    1  0.1312339E-009  0.9177383E+02  0.7818608E-02  0.1298612E+00
         -3   -1    0    0    0  501 -0.00000000000E+00  0.00000000000E+00  0.36175863638E+02  0.36176004629E+02  0.10100000000E+00 0.  1.
          3   -1    0    0  501    0  0.00000000000E+00 -0.00000000000E+00 -0.58204498445E+02  0.58204586076E+02  0.10100000000E+00 0. -1.
         23    2    1    2    0    0  0.00000000000E+00  0.00000000000E+00 -0.22028634807E+02  0.94380590705E+02  0.91773826063E+02 0.  0.
    9000005    2    3    3    0    0 -0.26370111600E+02  0.28982357181E+02 -0.35065638811E+02  0.53085030569E+02  0.72843415429E+01 0.  0.
         22    1    3    3    0    0  0.26370111600E+02 -0.28982357181E+02  0.13037004003E+02  0.41295560136E+02  0.00000000000E+00 0.  1.
         22    1    4    4    0    0 -0.17764007502E+02  0.24146171014E+02 -0.26790395286E+02  0.40203517468E+02  0.00000000000E+00 0. -1.
         22    1    4    4    0    0 -0.86061040975E+01  0.48361861667E+01 -0.82752435249E+01  0.12881513101E+02  0.00000000000E+00 0. -1.
<mgrwt>
<rscale>  0 0.91773826E+02</rscale>
<asrwt>0</asrwt>
<pdfrwt beam="2">  1        3 0.89545558E-02 0.91773826E+02</pdfrwt>
<pdfrwt beam="1">  1       -3 0.55655351E-02 0.91773826E+02</pdfrwt>
<totfact> 0.34474376E+04</totfact>
</mgrwt>
</event>
<event>
 7    1  0.1312339E-009  0.9261881E+02  0.7818608E-02  0.1296631E+00
         -3   -1    0    0    0  501 -0.00000000000E+00  0.00000000000E+00  0.18475423618E+02  0.18475699686E+02  0.10100000000E+00 0.  1.
          3   -1    0    0  501    0  0.00000000000E+00 -0.00000000000E+00 -0.11607524713E+03  0.11607529108E+03  0.10100000000E+00 0. -1.
         23    2    1    2    0    0  0.00000000000E+00  0.00000000000E+00 -0.97599823516E+02  0.13455099076E+03  0.92618807834E+02 0.  0.
    9000005    2    3    3    0    0 -0.31854024125E+02 -0.65517918317E+01 -0.96284902271E+02  0.10200358154E+03  0.87374717333E+01 0.  0.
         22    1    3    3    0    0  0.31854024125E+02  0.65517918317E+01 -0.13149212447E+01  0.32547409222E+02  0.00000000000E+00 0.  1.
         22    1    4    4    0    0 -0.48035519528E+01  0.20660722169E+01 -0.12968110877E+02  0.13982655881E+02  0.00000000000E+00 0.  1.
         22    1    4    4    0    0 -0.27050472173E+02 -0.86178640486E+01 -0.83316791395E+02  0.88020925659E+02  0.00000000000E+00 0.  1.
<mgrwt>
<rscale>  0 0.92618808E+02</rscale>
<asrwt>0</asrwt>
<pdfrwt beam="2">  1        3 0.17857754E-01 0.92618808E+02</pdfrwt>
<pdfrwt beam="1">  1       -3 0.28423976E-02 0.92618808E+02</pdfrwt>
<totfact> 0.30931110E+04</totfact>
</mgrwt>
</event>
<event>
 7    1  0.1312339E-009  0.9439695E+02  0.7818608E-02  0.1292540E+00
         -3   -1    0    0    0  501 -0.00000000000E+00  0.00000000000E+00  0.19197939012E+02  0.19198204689E+02  0.10100000000E+00 0.  1.
          3   -1    0    0  501    0  0.00000000000E+00 -0.00000000000E+00 -0.11603720076E+03  0.11603724471E+03  0.10100000000E+00 0. -1.
         23    2    1    2    0    0  0.00000000000E+00  0.00000000000E+00 -0.96839261747E+02  0.13523544940E+03  0.94396949950E+02 0.  0.
    9000005    2    3    3    0    0 -0.18023774668E+02 -0.12279040074E+01  0.11513441855E+02  0.25387042136E+02  0.13622714985E+02 0.  0.
         22    1    3    3    0    0  0.18023774668E+02  0.12279040074E+01 -0.10835270360E+03  0.10984840727E+03  0.00000000000E+00 0. -1.
         22    1    4    4    0    0 -0.69517360407E+01  0.61813503137E+01  0.48659038217E+01  0.10498225835E+02  0.00000000000E+00 0.  1.
         22    1    4    4    0    0 -0.11072038627E+02 -0.74092543211E+01  0.66475380329E+01  0.14888816301E+02  0.00000000000E+00 0.  1.
<mgrwt>
<rscale>  0 0.94396950E+02</rscale>
<asrwt>0</asrwt>
<pdfrwt beam="2">  1        3 0.17851900E-01 0.94396950E+02</pdfrwt>
<pdfrwt beam="1">  1       -3 0.29535530E-02 0.94396950E+02</pdfrwt>
<totfact> 0.29329825E+04</totfact>
</mgrwt>
</event>
<event>
 7    1  0.1312339E-009  0.9138484E+02  0.7818608E-02  0.1299532E+00
          3   -1    0    0  501    0  0.00000000000E+00  0.00000000000E+00  0.14352780898E+03  0.14352784452E+03  0.10100000000E+00 0. -1.
         -3   -1    0    0    0  501 -0.00000000000E+00 -0.00000000000E+00 -0.14546078866E+02  0.14546429506E+02  0.10100000000E+00 0.  1.
         23    2    1    2    0    0 -0.35527136788E-14  0.00000000000E+00  0.12898173011E+03  0.15807427402E+03  0.91384842312E+02 0.  0.
    9000005    2    3    3    0    0 -0.20368652982E+02 -0.34475216322E+02  0.31747551514E+02  0.52917685770E+02  0.13745976698E+02 0.  0.
         22    1    3    3    0    0  0.20368652982E+02  0.34475216322E+02  0.97234178601E+02  0.10515658825E+03  0.00000000000E+00 0. -1.
         22    1    4    4    0    0 -0.39750980005E+01 -0.19947347830E+02  0.13542697626E+02  0.24435685964E+02  0.00000000000E+00 0. -1.
         22    1    4    4    0    0 -0.16393554981E+02 -0.14527868492E+02  0.18204853887E+02  0.28481999805E+02  0.00000000000E+00 0. -1.
<mgrwt>
<rscale>  0 0.91384842E+02</rscale>
<asrwt>0</asrwt>
<pdfrwt beam="1">  1        3 0.22081231E-01 0.91384842E+02</pdfrwt>
<pdfrwt beam="2">  1       -3 0.22378880E-02 0.91384842E+02</pdfrwt>
<totfact> 0.30630458E+04</totfact>
</mgrwt>
</event>
<event>
 7    1  0.1312339E-009  0.8869587E+02  0.7818608E-02  0.1306041E+00
         -3   -1    0    0    0  501 -0.00000000000E+00  0.00000000000E+00  0.44008636689E+01  0.44020224934E+01  0.10100000000E+00 0.  1.
          3   -1    0    0  501    0  0.00000000000E+00 -0.00000000000E+00 -0.44683852405E+03  0.44683853547E+03  0.10100000000E+00 0. -1.
         23    2    1    2    0    0 -0.71054273576E-14  0.00000000000E+00 -0.44243766038E+03  0.45124055796E+03  0.88695872637E+02 0.  0.
    9000005    2    3    3    0    0  0.38663673150E+02  0.20643034549E+02 -0.24471873402E+03  0.24872194564E+03  0.73710896067E+01 0.  0.
         22    1    3    3    0    0 -0.38663673150E+02 -0.20643034549E+02 -0.19771892636E+03  0.20251861232E+03  0.00000000000E+00 0.  1.
         22    1    4    4    0    0  0.25809972193E+02  0.99270045706E+01 -0.14627951989E+03  0.14887040681E+03  0.00000000000E+00 0. -1.
         22    1    4    4    0    0  0.12853700957E+02  0.10716029979E+02 -0.98439214137E+02  0.99851538830E+02  0.00000000000E+00 0. -1.
<mgrwt>
<rscale>  0 0.88695873E+02</rscale>
<asrwt>0</asrwt>
<pdfrwt beam="2">  1        3 0.68744443E-01 0.88695873E+02</pdfrwt>
<pdfrwt beam="1">  1       -3 0.67714632E-03 0.88695873E+02</pdfrwt>
<totfact> 0.20616203E+04</totfact>
</mgrwt>
</event>
<event>
 7    1  0.1312339E-009  0.9308371E+02  0.7818608E-02  0.1295551E+00
         -3   -1    0    0    0  501 -0.00000000000E+00  0.00000000000E+00  0.27290354389E+03  0.27290356258E+03  0.10100000000E+00 0.  1.
          3   -1    0    0  501    0  0.00000000000E+00 -0.00000000000E+00 -0.79370590952E+01  0.79377016875E+01  0.10100000000E+00 0. -1.
         23    2    1    2    0    0  0.00000000000E+00  0.00000000000E+00  0.26496648480E+03  0.28084126427E+03  0.93083713134E+02 0.  0.
    9000005    2    3    3    0    0  0.40768405525E+02  0.20399183119E+02  0.14844706257E+03  0.15572146042E+03  0.11595399367E+02 0.  0.
         22    1    3    3    0    0 -0.40768405525E+02 -0.20399183119E+02  0.11651942222E+03  0.12511980385E+03  0.00000000000E+00 0.  1.
         22    1    4    4    0    0  0.40965584737E+02  0.21072671184E+02  0.14319917567E+03  0.15042686102E+03  0.00000000000E+00 0.  1.
         22    1    4    4    0    0 -0.19717921230E+00 -0.67348806543E+00  0.52478869041E+01  0.52945993969E+01  0.00000000000E+00 0.  1.
<mgrwt>
<rscale>  0 0.93083713E+02</rscale>
<asrwt>0</asrwt>
<pdfrwt beam="2">  1        3 0.12211369E-02 0.93083713E+02</pdfrwt>
<pdfrwt beam="1">  1       -3 0.41985210E-01 0.93083713E+02</pdfrwt>
<totfact> 0.23441758E+04</totfact>
</mgrwt>
</event>
<event>
 7    1  0.1312339E-009  0.8948154E+02  0.7818608E-02  0.1304112E+00
          3   -1    0    0  501    0  0.00000000000E+00  0.00000000000E+00  0.87267387019E+02  0.87267445465E+02  0.10100000000E+00 0. -1.
         -3   -1    0    0    0  501 -0.00000000000E+00 -0.00000000000E+00 -0.22937790008E+02  0.22938012369E+02  0.10100000000E+00 0.  1.
         23    2    1    2    0    0  0.00000000000E+00  0.00000000000E+00  0.64329597011E+02  0.11020545783E+03  0.89481539352E+02 0.  0.
    9000005    2    3    3    0    0  0.12946590577E+02 -0.34191457426E+02  0.39512661013E+01  0.39620666187E+02  0.14748380143E+02 0.  0.
         22    1    3    3    0    0 -0.12946590577E+02  0.34191457426E+02  0.60378330910E+02  0.70584791647E+02  0.00000000000E+00 0. -1.
         22    1    4    4    0    0  0.16062723025E+02 -0.29028428418E+02  0.18253025368E+01  0.33226381939E+02  0.00000000000E+00 0.  1.
         22    1    4    4    0    0 -0.31161324481E+01 -0.51630290077E+01  0.21259635645E+01  0.63942842482E+01  0.00000000000E+00 0.  1.
<mgrwt>
<rscale>  0 0.89481539E+02</rscale>
<asrwt>0</asrwt>
<pdfrwt beam="1">  1        3 0.13425773E-01 0.89481539E+02</pdfrwt>
<pdfrwt beam="2">  1       -3 0.35289124E-02 0.89481539E+02</pdfrwt>
<totfact> 0.35701388E+04</totfact>
</mgrwt>
</event>
<event>
 7    1  0.1312339E-009  0.9007513E+02  0.7818608E-02  0.1302670E+00
          3   -1    0    0  501    0  0.00000000000E+00  0.00000000000E+00  0.77780256479E+01  0.77786813779E+01  0.10100000000E+00 0. -1.
         -3   -1    0    0    0  501 -0.00000000000E+00 -0.00000000000E+00 -0.26077201050E+03  0.26077203005E+03  0.10100000000E+00 0.  1.
         23    2    1    2    0    0 -0.71054273576E-14 -0.35527136788E-14 -0.25299398485E+03  0.26855071143E+03  0.90075125545E+02 0.  0.
    9000005    2    3    3    0    0  0.29322700865E+02  0.31285078653E+02 -0.96621786394E+02  0.10640620372E+03  0.12162797857E+02 0.  0.
         22    1    3    3    0    0 -0.29322700865E+02 -0.31285078653E+02 -0.15637219845E+03  0.16214450771E+03  0.00000000000E+00 0.  1.
         22    1    4    4    0    0  0.23053089400E+02  0.19373764355E+02 -0.55578472073E+02  0.63211978565E+02  0.00000000000E+00 0. -1.
         22    1    4    4    0    0  0.62696114649E+01  0.11911314298E+02 -0.41043314322E+02  0.43194225155E+02  0.00000000000E+00 0. -1.
<mgrwt>
<rscale>  0 0.90075126E+02</rscale>
<asrwt>0</asrwt>
<pdfrwt beam="1">  1        3 0.11966715E-02 0.90075126E+02</pdfrwt>
<pdfrwt beam="2">  1       -3 0.40118816E-01 0.90075126E+02</pdfrwt>
<totfact> 0.26134298E+04</totfact>
</mgrwt>
</event>
<event>
 7    1  0.1312339E-009  0.9137307E+02  0.7818608E-02  0.1299560E+00
          3   -1    0    0  501    0  0.00000000000E+00  0.00000000000E+00  0.69081444930E+02  0.69081518763E+02  0.10100000000E+00 0. -1.
         -3   -1    0    0    0  501 -0.00000000000E+00 -0.00000000000E+00 -0.30214298325E+02  0.30214467136E+02  0.10100000000E+00 0.  1.
         23    2    1    2    0    0  0.35527136788E-14  0.17763568394E-14  0.38867146605E+02  0.99295985899E+02  0.91373068956E+02 0.  0.
    9000005    2    3    3    0    0 -0.26285657104E+02 -0.83121686222E+01  0.58009725712E+02  0.65733115767E+02  0.13988792467E+02 0.  0.
         22    1    3    3    0    0  0.26285657104E+02  0.83121686222E+01 -0.19142579108E+02  0.33562870132E+02  0.00000000000E+00 0. -1.
         22    1    4    4    0    0 -0.15212061859E+02 -0.74650882068E+01  0.20409500232E+02  0.26527006383E+02  0.00000000000E+00 0. -1.
         22    1    4    4    0    0 -0.11073595245E+02 -0.84708041534E+00  0.37600225480E+02  0.39206109384E+02  0.00000000000E+00 0. -1.
<mgrwt>
<rscale>  0 0.91373069E+02</rscale>
<asrwt>0</asrwt>
<pdfrwt beam="1">  1        3 0.10627933E-01 0.91373069E+02</pdfrwt>
<pdfrwt beam="2">  1       -3 0.46483723E-02 0.91373069E+02</pdfrwt>
<totfact> 0.34520295E+04</totfact>
</mgrwt>
</event>
<event>
 7    1  0.1312339E-009  0.9164736E+02  0.7818608E-02  0.1298911E+00
         -3   -1    0    0    0  501 -0.00000000000E+00  0.00000000000E+00  0.73357093736E+02  0.73357163265E+02  0.10100000000E+00 0.  1.
          3   -1    0    0  501    0  0.00000000000E+00 -0.00000000000E+00 -0.28624323886E+02  0.28624502073E+02  0.10100000000E+00 0. -1.
         23    2    1    2    0    0  0.00000000000E+00  0.00000000000E+00  0.44732769850E+02  0.10198166534E+03  0.91647364211E+02 0.  0.
    9000005    2    3    3    0    0 -0.32942501317E+02 -0.16516550963E+02 -0.61225392476E+01  0.39178263264E+02  0.11808724605E+02 0.  0.
         22    1    3    3    0    0  0.32942501317E+02  0.16516550963E+02  0.50855309097E+02  0.62803402074E+02  0.00000000000E+00 0.  1.
         22    1    4    4    0    0 -0.18377000038E+02 -0.15590023540E+02 -0.40473552189E+01  0.24436531027E+02  0.00000000000E+00 0.  1.
         22    1    4    4    0    0 -0.14565501279E+02 -0.92652742247E+00 -0.20751840288E+01  0.14741732237E+02  0.00000000000E+00 0.  1.
<mgrwt>
<rscale>  0 0.91647364E+02</rscale>
<asrwt>0</asrwt>
<pdfrwt beam="2">  1        3 0.44037613E-02 0.91647364E+02</pdfrwt>
<pdfrwt beam="1">  1       -3 0.11285726E-01 0.91647364E+02</pdfrwt>
<totfact> 0.34045019E+04</totfact>
</mgrwt>
</event>
<event>
 7    1  0.1312339E-009  0.9441901E+02  0.7818608E-02  0.1292490E+00
         -3   -1    0    0    0  501 -0.00000000000E+00  0.00000000000E+00  0.13367840394E+02  0.13368221938E+02  0.10100000000E+00 0.  1.
          3   -1    0    0  501    0  0.00000000000E+00 -0.00000000000E+00 -0.16672105755E+03  0.16672108815E+03  0.10100000000E+00 0. -1.
         23    2    1    2    0    0  0.00000000000E+00 -0.71054273576E-14 -0.15335321716E+03  0.18008931008E+03  0.94419014999E+02 0.  0.
    9000005    2    3    3    0    0 -0.24050905121E+01 -0.45691782745E+02 -0.58254317987E+02  0.74555788896E+02  0.84543848329E+01 0.  0.
         22    1    3    3    0    0  0.24050905121E+01  0.45691782745E+02 -0.95098899172E+02  0.10553352119E+03  0.00000000000E+00 0. -1.
         22    1    4    4    0    0 -0.19901389986E+01 -0.37220513003E+01 -0.30481370235E+01  0.52062902752E+01  0.00000000000E+00 0.  1.
         22    1    4    4    0    0 -0.41495151356E+00 -0.41969731444E+02 -0.55206180964E+02  0.69349498620E+02  0.00000000000E+00 0.  1.
<mgrwt>
<rscale>  0 0.94419015E+02</rscale>
<asrwt>0</asrwt>
<pdfrwt beam="2">  1        3 0.25649424E-01 0.94419015E+02</pdfrwt>
<pdfrwt beam="1">  1       -3 0.20566226E-02 0.94419015E+02</pdfrwt>
<totfact> 0.26889606E+04</totfact>
</mgrwt>
</event>
<event>
 7    1  0.1312339E-009  0.9673099E+02  0.7818608E-02  0.1287324E+00
         -3   -1    0    0    0  501 -0.00000000000E+00  0.00000000000E+00  0.15868144134E+03  0.15868147348E+03  0.10100000000E+00 0.  1.
          3   -1    0    0  501    0  0.00000000000E+00 -0.00000000000E+00 -0.14741409395E+02  0.14741755389E+02  0.10100000000E+00 0. -1.
         23    2    1    2    0    0  0.00000000000E+00  0.17763568394E-14  0.14394003194E+03  0.17342322887E+03  0.96730985293E+02 0.  0.
    9000005    2    3    3    0    0 -0.39280574187E+02  0.15016562393E+02  0.11449705123E+03  0.12208757101E+03  0.52287283498E+01 0.  0.
         22    1    3    3    0    0  0.39280574187E+02 -0.15016562393E+02  0.29442980713E+02  0.51335657860E+02  0.00000000000E+00 0. -1.
         22    1    4    4    0    0 -0.18010209739E+02  0.77392884676E+01  0.60541594117E+02  0.63636065710E+02  0.00000000000E+00 0. -1.
         22    1    4    4    0    0 -0.21270364448E+02  0.72772739258E+01  0.53955457112E+02  0.58451505299E+02  0.00000000000E+00 0. -1.
<mgrwt>
<rscale>  0 0.96730985E+02</rscale>
<asrwt>0</asrwt>
<pdfrwt beam="2">  1        3 0.22679383E-02 0.96730985E+02</pdfrwt>
<pdfrwt beam="1">  1       -3 0.24412558E-01 0.96730985E+02</pdfrwt>
<totfact> 0.25491401E+04</totfact>
</mgrwt>
</event>
<event>
 7    1  0.1312339E-009  0.9239062E+02  0.7818608E-02  0.1297164E+00
         -3   -1    0    0    0  501 -0.00000000000E+00  0.00000000000E+00  0.11888127405E+04  0.11888127448E+04  0.10100000000E+00 0.  1.
          3   -1    0    0  501    0  0.00000000000E+00 -0.00000000000E+00 -0.17936490318E+01  0.17964904256E+01  0.10100000000E+00 0. -1.
         23    2    1    2    0    0  0.00000000000E+00  0.00000000000E+00  0.11870190914E+04  0.11906092352E+04  0.92390624369E+02 0.  0.
    9000005    2    3    3    0    0  0.20711265152E+02 -0.25489507526E+02  0.10079768337E+04  0.10085795630E+04  0.11694705567E+02 0.  0.
         22    1    3    3    0    0 -0.20711265152E+02  0.25489507526E+02  0.17904225774E+03  0.18202967218E+03  0.00000000000E+00 0. -1.
         22    1    4    4    0    0  0.14438429640E+02 -0.22541998777E+02  0.67501419200E+03  0.67554479449E+03  0.00000000000E+00 0.  1.
         22    1    4    4    0    0  0.62728355120E+01 -0.29475087492E+01  0.33296264170E+03  0.33303476852E+03  0.00000000000E+00 0.  1.
<mgrwt>
<rscale>  0 0.92390624E+02</rscale>
<asrwt>0</asrwt>
<pdfrwt beam="2">  1        3 0.27616514E-03 0.92390624E+02</pdfrwt>
<pdfrwt beam="1">  1       -3 0.18289433E+00 0.92390624E+02</pdfrwt>
<totfact> 0.79412542E+03</totfact>
</mgrwt>
</event>
<event>
 7    1  0.1312339E-009  0.9101283E+02  0.7818608E-02  0.1300417E+00
          3   -1    0    0  501    0  0.00000000000E+00  0.00000000000E+00  0.11626236983E+03  0.11626241370E+03  0.10100000000E+00 0. -1.
         -3   -1    0    0    0  501 -0.00000000000E+00 -0.00000000000E+00 -0.17811538363E+02  0.17811824720E+02  0.10100000000E+00 0.  1.
         23    2    1    2    0    0  0.00000000000E+00  0.00000000000E+00  0.98450831470E+02  0.13407423842E+03  0.91012829819E+02 0.  0.
    9000005    2    3    3    0    0  0.61192351315E+01  0.42799676836E+02  0.33396617567E+02  0.55963367718E+02  0.12137013041E+02 0.  0.
         22    1    3    3    0    0 -0.61192351315E+01 -0.42799676836E+02  0.65054213903E+02  0.78110870706E+02  0.00000000000E+00 0. -1.
         22    1    4    4    0    0 -0.92692933776E+00  0.72290140150E+01  0.10357044722E+01  0.73614214239E+01  0.00000000000E+00 0. -1.
         22    1    4    4    0    0  0.70461644692E+01  0.35570662821E+02  0.32360913094E+02  0.48601946294E+02  0.00000000000E+00 0. -1.
<mgrwt>
<rscale>  0 0.91012830E+02</rscale>
<asrwt>0</asrwt>
<pdfrwt beam="1">  1        3 0.17886544E-01 0.91012830E+02</pdfrwt>
<pdfrwt beam="2">  1       -3 0.27402621E-02 0.91012830E+02</pdfrwt>
<totfact> 0.32468182E+04</totfact>
</mgrwt>
</event>
<event>
 7    1  0.1312339E-009  0.9101779E+02  0.7818608E-02  0.1300406E+00
          3   -1    0    0  501    0  0.00000000000E+00  0.00000000000E+00  0.17255919099E+03  0.17255922055E+03  0.10100000000E+00 0. -1.
         -3   -1    0    0    0  501 -0.00000000000E+00 -0.00000000000E+00 -0.12001779915E+02  0.12002204886E+02  0.10100000000E+00 0.  1.
         23    2    1    2    0    0  0.17763568394E-14 -0.71054273576E-14  0.16055741107E+03  0.18456142543E+03  0.91017786761E+02 0.  0.
    9000005    2    3    3    0    0  0.13584723505E+02 -0.42793676600E+02  0.75190822672E+02  0.88107820601E+02  0.96687521073E+01 0.  0.
         22    1    3    3    0    0 -0.13584723505E+02  0.42793676600E+02  0.85366588401E+02  0.96453604830E+02  0.00000000000E+00 0.  1.
         22    1    4    4    0    0  0.46476665727E+01 -0.25873977532E+02  0.49817950505E+02  0.56328427196E+02  0.00000000000E+00 0. -1.
         22    1    4    4    0    0  0.89370569324E+01 -0.16919699068E+02  0.25372872167E+02  0.31779393405E+02  0.00000000000E+00 0. -1.
<mgrwt>
<rscale>  0 0.91017787E+02</rscale>
<asrwt>0</asrwt>
<pdfrwt beam="1">  1        3 0.26547603E-01 0.91017787E+02</pdfrwt>
<pdfrwt beam="2">  1       -3 0.18464627E-02 0.91017787E+02</pdfrwt>
<totfact> 0.29455379E+04</totfact>
</mgrwt>
</event>
<event>
 7    1  0.1312339E-009  0.9117232E+02  0.7818608E-02  0.1300037E+00
         -3   -1    0    0    0  501 -0.00000000000E+00  0.00000000000E+00  0.16794337578E+02  0.16794641279E+02  0.10100000000E+00 0.  1.
          3   -1    0    0  501    0  0.00000000000E+00 -0.00000000000E+00 -0.12373656363E+03  0.12373660485E+03  0.10100000000E+00 0. -1.
         23    2    1    2    0    0 -0.44408920985E-15  0.00000000000E+00 -0.10694222605E+03  0.14053124613E+03  0.91172317212E+02 0.  0.
    9000005    2    3    3    0    0  0.20900478264E+01  0.35718423669E+02 -0.95882904378E+02  0.10308151068E+03  0.12332574875E+02 0.  0.
         22    1    3    3    0    0 -0.20900478264E+01 -0.35718423669E+02 -0.11059321675E+02  0.37449735450E+02  0.00000000000E+00 0.  1.
         22    1    4    4    0    0 -0.43022907573E+01  0.11249359160E+02 -0.39295535270E+02  0.41099840382E+02  0.00000000000E+00 0.  1.
         22    1    4    4    0    0  0.63923385837E+01  0.24469064509E+02 -0.56587369107E+02  0.61981670299E+02  0.00000000000E+00 0.  1.
<mgrwt>
<rscale>  0 0.91172317E+02</rscale>
<asrwt>0</asrwt>
<pdfrwt beam="2">  1        3 0.19036420E-01 0.91172317E+02</pdfrwt>
<pdfrwt beam="1">  1       -3 0.25837709E-02 0.91172317E+02</pdfrwt>
<totfact> 0.31900787E+04</totfact>
</mgrwt>
</event>
<event>
 7    1  0.1312339E-009  0.9252028E+02  0.7818608E-02  0.1296861E+00
          3   -1    0    0  501    0  0.00000000000E+00  0.00000000000E+00  0.38888551329E+03  0.38888552641E+03  0.10100000000E+00 0. -1.
         -3   -1    0    0    0  501 -0.00000000000E+00 -0.00000000000E+00 -0.55024291003E+01  0.55033559765E+01  0.10100000000E+00 0.  1.
         23    2    1    2    0    0  0.00000000000E+00  0.00000000000E+00  0.38338308419E+03  0.39438888239E+03  0.92520275097E+02 0.  0.
    9000005    2    3    3    0    0  0.22135349519E+02  0.32142240731E+02  0.29556093132E+03  0.29828566770E+03  0.97456705893E+01 0.  0.
         22    1    3    3    0    0 -0.22135349519E+02 -0.32142240731E+02  0.87822152871E+02  0.96103214683E+02  0.00000000000E+00 0.  1.
         22    1    4    4    0    0  0.89206037330E+01  0.21418516420E+02  0.17279829611E+03  0.17434902109E+03  0.00000000000E+00 0. -1.
         22    1    4    4    0    0  0.13214745786E+02  0.10723724310E+02  0.12276263521E+03  0.12393664661E+03  0.00000000000E+00 0. -1.
<mgrwt>
<rscale>  0 0.92520275E+02</rscale>
<asrwt>0</asrwt>
<pdfrwt beam="1">  1        3 0.59828607E-01 0.92520275E+02</pdfrwt>
<pdfrwt beam="2">  1       -3 0.84659994E-03 0.92520275E+02</pdfrwt>
<totfact> 0.19986067E+04</totfact>
</mgrwt>
</event>
<event>
 7    1  0.1312339E-009  0.8777341E+02  0.7818608E-02  0.1308335E+00
          3   -1    0    0  501    0  0.00000000000E+00  0.00000000000E+00  0.12044049349E+03  0.12044053584E+03  0.10100000000E+00 0. -1.
         -3   -1    0    0    0  501 -0.00000000000E+00 -0.00000000000E+00 -0.15991450864E+02  0.15991769813E+02  0.10100000000E+00 0.  1.
         23    2    1    2    0    0  0.00000000000E+00  0.17763568394E-14  0.10444904263E+03  0.13643230565E+03  0.87773410096E+02 0.  0.
    9000005    2    3    3    0    0 -0.39925029902E+02  0.14144883497E+02  0.43370433525E+02  0.62104099488E+02  0.13484766489E+02 0.  0.
         22    1    3    3    0    0  0.39925029902E+02 -0.14144883497E+02  0.61078609101E+02  0.74328206164E+02  0.00000000000E+00 0. -1.
         22    1    4    4    0    0 -0.25011139647E+01  0.64847637451E+00  0.95330160922E+01  0.98769675755E+01  0.00000000000E+00 0. -1.
         22    1    4    4    0    0 -0.37423915937E+02  0.13496407123E+02  0.33837417433E+02  0.52227131913E+02  0.00000000000E+00 0. -1.
<mgrwt>
<rscale>  0 0.87773410E+02</rscale>
<asrwt>0</asrwt>
<pdfrwt beam="1">  1        3 0.18529334E-01 0.87773410E+02</pdfrwt>
<pdfrwt beam="2">  1       -3 0.24602511E-02 0.87773410E+02</pdfrwt>
<totfact> 0.35638183E+04</totfact>
</mgrwt>
</event>
<event>
 7    1  0.1312339E-009  0.9158169E+02  0.7818608E-02  0.1299066E+00
          3   -1    0    0  501    0  0.00000000000E+00  0.00000000000E+00  0.54233826624E+02  0.54233920671E+02  0.10100000000E+00 0. -1.
         -3   -1    0    0    0  501 -0.00000000000E+00 -0.00000000000E+00 -0.38662051831E+02  0.38662183756E+02  0.10100000000E+00 0.  1.
         23    2    1    2    0    0  0.00000000000E+00  0.00000000000E+00  0.15571774793E+02  0.92896104427E+02  0.91581690569E+02 0.  0.
    9000005    2    3    3    0    0 -0.95100117699E+01 -0.33811154614E+02 -0.21864004118E+02  0.41563151629E+02  0.39782404471E+01 0.  0.
         22    1    3    3    0    0  0.95100117699E+01  0.33811154614E+02  0.37435778912E+02  0.51332952798E+02  0.00000000000E+00 0. -1.
         22    1    4    4    0    0 -0.35370246418E+00 -0.63957703126E+01 -0.47260876770E+01  0.79603321574E+01  0.00000000000E+00 0. -1.
         22    1    4    4    0    0 -0.91563093057E+01 -0.27415384302E+02 -0.17137916441E+02  0.33602819472E+02  0.00000000000E+00 0. -1.
<mgrwt>
<rscale>  0 0.91581691E+02</rscale>
<asrwt>0</asrwt>
<pdfrwt beam="1">  1        3 0.83436830E-02 0.91581691E+02</pdfrwt>
<pdfrwt beam="2">  1       -3 0.59480254E-02 0.91581691E+02</pdfrwt>
<totfact> 0.34783891E+04</totfact>
</mgrwt>
</event>
<event>
 7    1  0.1312339E-009  0.8734588E+02  0.7818608E-02  0.1309409E+00
         -3   -1    0    0    0  501 -0.00000000000E+00  0.00000000000E+00  0.30768435243E+02  0.30768601013E+02  0.10100000000E+00 0.  1.
          3   -1    0    0  501    0  0.00000000000E+00 -0.00000000000E+00 -0.61989319982E+02  0.61989402263E+02  0.10100000000E+00 0. -1.
         23    2    1    2    0    0  0.71054273576E-14  0.88817841970E-15 -0.31220884739E+02  0.92758003276E+02  0.87345884435E+02 0.  0.
    9000005    2    3    3    0    0 -0.38324634554E+02 -0.56476052457E+01 -0.34550522237E+02  0.53876651131E+02  0.14431974623E+02 0.  0.
         22    1    3    3    0    0  0.38324634554E+02  0.56476052457E+01  0.33296374977E+01  0.38881352145E+02  0.00000000000E+00 0.  1.
         22    1    4    4    0    0 -0.48827248924E+01 -0.39689417397E+01 -0.11868788841E+02  0.13433601508E+02  0.00000000000E+00 0.  1.
         22    1    4    4    0    0 -0.33441909662E+02 -0.16786635060E+01 -0.22681733396E+02  0.40443049623E+02  0.00000000000E+00 0.  1.
<mgrwt>
<rscale>  0 0.87345884E+02</rscale>
<asrwt>0</asrwt>
<pdfrwt beam="2">  1        3 0.95368375E-02 0.87345884E+02</pdfrwt>
<pdfrwt beam="1">  1       -3 0.47336245E-02 0.87345884E+02</pdfrwt>
<totfact> 0.39566505E+04</totfact>
</mgrwt>
</event>
<event>
 7    1  0.1312339E-009  0.8933251E+02  0.7818608E-02  0.1304476E+00
         -3   -1    0    0    0  501 -0.00000000000E+00  0.00000000000E+00  0.58326988782E+01  0.58335732792E+01  0.10100000000E+00 0.  1.
          3   -1    0    0  501    0  0.00000000000E+00 -0.00000000000E+00 -0.34202344132E+03  0.34202345623E+03  0.10100000000E+00 0. -1.
         23    2    1    2    0    0  0.71054273576E-14  0.00000000000E+00 -0.33619074244E+03  0.34785702951E+03  0.89332511871E+02 0.  0.
    9000005    2    3    3    0    0 -0.43560105606E+02 -0.85510152575E+01 -0.18193996614E+03  0.18734564471E+03  0.50632646802E+01 0.  0.
         22    1    3    3    0    0  0.43560105606E+02  0.85510152575E+01 -0.15425077630E+03  0.16051138480E+03  0.00000000000E+00 0. -1.
         22    1    4    4    0    0 -0.79457980666E+01 -0.34675045903E+01 -0.38332381293E+02  0.39300518452E+02  0.00000000000E+00 0.  1.
         22    1    4    4    0    0 -0.35614307539E+02 -0.50835106672E+01 -0.14360758485E+03  0.14804512626E+03  0.00000000000E+00 0.  1.
<mgrwt>
<rscale>  0 0.89332512E+02</rscale>
<asrwt>0</asrwt>
<pdfrwt beam="2">  1        3 0.52619044E-01 0.89332512E+02</pdfrwt>
<pdfrwt beam="1">  1       -3 0.89740696E-03 0.89332512E+02</pdfrwt>
<totfact> 0.23541688E+04</totfact>
</mgrwt>
</event>
<event>
 7    1  0.1312339E-009  0.9160582E+02  0.7818608E-02  0.1299009E+00
          3   -1    0    0  501    0  0.00000000000E+00  0.00000000000E+00  0.16282296803E+02  0.16282610054E+02  0.10100000000E+00 0. -1.
         -3   -1    0    0    0  501 -0.00000000000E+00 -0.00000000000E+00 -0.12884428404E+03  0.12884432363E+03  0.10100000000E+00 0.  1.
         23    2    1    2    0    0  0.00000000000E+00  0.71054273576E-14 -0.11256198724E+03  0.14512693368E+03  0.91605818095E+02 0.  0.
    9000005    2    3    3    0    0  0.51732753093E+01  0.44783622681E+02 -0.63185465343E+02  0.78266059081E+02  0.10041779501E+02 0.  0.
         22    1    3    3    0    0 -0.51732753093E+01 -0.44783622681E+02 -0.49376521895E+02  0.66860874601E+02  0.00000000000E+00 0. -1.
         22    1    4    4    0    0  0.26878207436E+01  0.29515614546E+01 -0.33267742834E+01  0.51964913646E+01  0.00000000000E+00 0. -1.
         22    1    4    4    0    0  0.24854545658E+01  0.41832061227E+02 -0.59858691059E+02  0.73069567716E+02  0.00000000000E+00 0. -1.
<mgrwt>
<rscale>  0 0.91605818E+02</rscale>
<asrwt>0</asrwt>
<pdfrwt beam="1">  1        3 0.25049960E-02 0.91605818E+02</pdfrwt>
<pdfrwt beam="2">  1       -3 0.19822224E-01 0.91605818E+02</pdfrwt>
<totfact> 0.31208893E+04</totfact>
</mgrwt>
</event>
<event>
 7    1  0.1312339E-009  0.9035811E+02  0.7818608E-02  0.1301987E+00
          3   -1    0    0  501    0  0.00000000000E+00  0.00000000000E+00  0.14466016226E+03  0.14466019752E+03  0.10100000000E+00 0. -1.
         -3   -1    0    0    0  501 -0.00000000000E+00 -0.00000000000E+00 -0.14109727588E+02  0.14110089072E+02  0.10100000000E+00 0.  1.
         23    2    1    2    0    0  0.00000000000E+00  0.00000000000E+00  0.13055043467E+03  0.15877028659E+03  0.90358109271E+02 0.  0.
    9000005    2    3    3    0    0  0.32870975930E+02  0.20855793539E+02  0.25719780876E+02  0.46944837082E+02  0.51812563713E+01 0.  0.
         22    1    3    3    0    0 -0.32870975930E+02 -0.20855793539E+02  0.10483065380E+03  0.11182544951E+03  0.00000000000E+00 0. -1.
         22    1    4    4    0    0  0.12341666828E+02  0.10843038665E+02  0.11049449058E+02  0.19798448224E+02  0.00000000000E+00 0.  1.
         22    1    4    4    0    0  0.20529309102E+02  0.10012754874E+02  0.14670331818E+02  0.27146388857E+02  0.00000000000E+00 0.  1.
<mgrwt>
<rscale>  0 0.90358109E+02</rscale>
<asrwt>0</asrwt>
<pdfrwt beam="1">  1        3 0.22255440E-01 0.90358109E+02</pdfrwt>
<pdfrwt beam="2">  1       -3 0.21707578E-02 0.90358109E+02</pdfrwt>
<totfact> 0.31538278E+04</totfact>
</mgrwt>
</event>
<event>
 7    1  0.1312339E-009  0.9072922E+02  0.7818608E-02  0.1301095E+00
         -3   -1    0    0    0  501 -0.00000000000E+00  0.00000000000E+00  0.36708413603E+02  0.36708552549E+02  0.10100000000E+00 0.  1.
          3   -1    0    0  501    0  0.00000000000E+00 -0.00000000000E+00 -0.56061728593E+02  0.56061819573E+02  0.10100000000E+00 0. -1.
         23    2    1    2    0    0 -0.35527136788E-14 -0.35527136788E-14 -0.19353314990E+02  0.92770372122E+02  0.90729218791E+02 0.  0.
    9000005    2    3    3    0    0 -0.20273733516E+02 -0.19678217083E+02  0.25349716592E+02  0.39887316888E+02  0.12252894309E+02 0.  0.
         22    1    3    3    0    0  0.20273733516E+02  0.19678217083E+02 -0.44703031582E+02  0.52883055234E+02  0.00000000000E+00 0. -1.
         22    1    4    4    0    0 -0.71533459532E-01 -0.42801895838E+01  0.42834100668E+00  0.43021640981E+01  0.00000000000E+00 0.  1.
         22    1    4    4    0    0 -0.20202200056E+02 -0.15398027499E+02  0.24921375585E+02  0.35585152790E+02  0.00000000000E+00 0.  1.
<mgrwt>
<rscale>  0 0.90729219E+02</rscale>
<asrwt>0</asrwt>
<pdfrwt beam="2">  1        3 0.86248990E-02 0.90729219E+02</pdfrwt>
<pdfrwt beam="1">  1       -3 0.56474660E-02 0.90729219E+02</pdfrwt>
<totfact> 0.35691393E+04</totfact>
</mgrwt>
</event>
<event>
 6    1  0.1312339E-009  0.1320832E+03  0.7818608E-02  0.1224397E+00
         -3   -1    0    0    0  501 -0.00000000000E+00  0.00000000000E+00  0.49424435563E+02  0.49424538761E+02  0.10100000000E+00 0.  1.
          3   -1    0    0  501    0  0.00000000000E+00 -0.00000000000E+00 -0.88245478360E+02  0.88245536159E+02  0.10100000000E+00 0. -1.
    9000005    2    1    2    0    0 -0.15658162793E+02 -0.32632639492E+02 -0.76122360179E+02  0.85694547018E+02  0.15455563630E+02 0.  0.
         22    1    1    2    0    0  0.15658162793E+02  0.32632639492E+02  0.37301317382E+02  0.51975527902E+02  0.00000000000E+00 0.  1.
         22    1    3    3    0    0 -0.16826404486E+02 -0.31008343105E+02 -0.61215094551E+02  0.70653613007E+02  0.00000000000E+00 0. -1.
         22    1    3    3    0    0  0.11682416937E+01 -0.16242963866E+01 -0.14907265628E+02  0.15040934011E+02  0.00000000000E+00 0. -1.
<mgrwt>
<rscale>  0 0.13208322E+03</rscale>
<asrwt>0</asrwt>
<pdfrwt beam="2">  1        3 0.13576240E-01 0.13208322E+03</pdfrwt>
<pdfrwt beam="1">  1       -3 0.76037717E-02 0.13208322E+03</pdfrwt>
<totfact> 0.11471262E+04</totfact>
</mgrwt>
</event>
<event>
 7    1  0.1312339E-009  0.9190451E+02  0.7818608E-02  0.1298304E+00
          3   -1    0    0  501    0  0.00000000000E+00  0.00000000000E+00  0.18009252812E+03  0.18009255644E+03  0.10100000000E+00 0.  1.
         -3   -1    0    0    0  501 -0.00000000000E+00 -0.00000000000E+00 -0.11724891268E+02  0.11725326274E+02  0.10100000000E+00 0. -1.
         23    2    1    2    0    0  0.00000000000E+00 -0.71054273576E-14  0.16836763686E+03  0.19181788272E+03  0.91904510175E+02 0.  0.
    9000005    2    3    3    0    0 -0.17119135651E+02  0.41784992080E+02  0.73201027728E+02  0.86481593334E+02  0.90346641659E+01 0.  0.
         22    1    3    3    0    0  0.17119135651E+02 -0.41784992080E+02  0.95166609128E+02  0.10533628939E+03  0.00000000000E+00 0.  1.
         22    1    4    4    0    0 -0.10866283604E+02  0.14984332052E+02  0.28169419001E+02  0.33706416203E+02  0.00000000000E+00 0.  1.
         22    1    4    4    0    0 -0.62528520476E+01  0.26800660028E+02  0.45031608726E+02  0.52775177131E+02  0.00000000000E+00 0.  1.
<mgrwt>
<rscale>  0 0.91904510E+02</rscale>
<asrwt>0</asrwt>
<pdfrwt beam="1">  1        3 0.27706581E-01 0.91904510E+02</pdfrwt>
<pdfrwt beam="2">  1       -3 0.18038649E-02 0.91904510E+02</pdfrwt>
<totfact> 0.28311914E+04</totfact>
</mgrwt>
</event>
<event>
 7    1  0.1312339E-009  0.8066569E+02  0.7818608E-02  0.1327173E+00
          3   -1    0    0  501    0  0.00000000000E+00  0.00000000000E+00  0.11404442589E+03  0.11404447061E+03  0.10100000000E+00 0. -1.
         -3   -1    0    0    0  501 -0.00000000000E+00 -0.00000000000E+00 -0.14263850956E+02  0.14264208534E+02  0.10100000000E+00 0.  1.
         23    2    1    2    0    0  0.00000000000E+00  0.00000000000E+00  0.99780574934E+02  0.12830867915E+03  0.80665692895E+02 0.  0.
    9000005    2    3    3    0    0  0.20188421210E+02 -0.34528613712E+02  0.48145911008E+02  0.62994545649E+02  0.71053866134E+01 0.  0.
         22    1    3    3    0    0 -0.20188421210E+02  0.34528613712E+02  0.51634663926E+02  0.65314133498E+02  0.00000000000E+00 0. -1.
         22    1    4    4    0    0  0.26243907587E+01 -0.43222155435E+01  0.29068990394E+01  0.58325839972E+01  0.00000000000E+00 0.  1.
         22    1    4    4    0    0  0.17564030452E+02 -0.30206398168E+02  0.45239011968E+02  0.57161961652E+02  0.00000000000E+00 0.  1.
<mgrwt>
<rscale>  0 0.80665693E+02</rscale>
<asrwt>0</asrwt>
<pdfrwt beam="1">  1        3 0.17545327E-01 0.80665693E+02</pdfrwt>
<pdfrwt beam="2">  1       -3 0.21944695E-02 0.80665693E+02</pdfrwt>
<totfact> 0.45447880E+04</totfact>
</mgrwt>
</event>
<event>
 7    1  0.1866367E-009  0.9237689E+02  0.7818608E-02  0.1297196E+00
         -3   -1    0    0    0  501 -0.00000000000E+00  0.00000000000E+00  0.21780690841E+03  0.21780693183E+03  0.10100000000E+00 0.  1.
          3   -1    0    0  501    0  0.00000000000E+00 -0.00000000000E+00 -0.97945028675E+01  0.97950236049E+01  0.10100000000E+00 0. -1.
         23    2    1    2    0    0  0.00000000000E+00  0.00000000000E+00  0.20801240555E+03  0.22760195544E+03  0.92376887029E+02 0.  0.
    9000005    2    3    3    0    0  0.11580372601E+02  0.72897703502E+00  0.21375943937E+03  0.21465340977E+03  0.15759186721E+02 0.  0.
         22    1    3    3    0    0 -0.11580372601E+02 -0.72897703502E+00 -0.57470338285E+01  0.12948545668E+02  0.00000000000E+00 0. -1.
         22    1    4    4    0    0  0.11108655252E+00  0.55029716989E+01  0.32000375709E+02  0.32470280000E+02  0.00000000000E+00 0.  1.
         22    1    4    4    0    0  0.11469286048E+02 -0.47739946639E+01  0.18175906366E+03  0.18218312977E+03  0.00000000000E+00 0.  1.
<mgrwt>
<rscale>  0 0.92376887E+02</rscale>
<asrwt>0</asrwt>
<pdfrwt beam="2">  1        3 0.15068884E-02 0.92376887E+02</pdfrwt>
<pdfrwt beam="1">  1       -3 0.33508798E-01 0.92376887E+02</pdfrwt>
<totfact> 0.26187993E+04</totfact>
</mgrwt>
</event>
<event>
 7    1  0.1312339E-009  0.9128033E+02  0.7818608E-02  0.1299780E+00
         -3   -1    0    0    0  501 -0.00000000000E+00  0.00000000000E+00  0.60428357325E+02  0.60428441731E+02  0.10100000000E+00 0.  1.
          3   -1    0    0  501    0  0.00000000000E+00 -0.00000000000E+00 -0.34470793961E+02  0.34470941926E+02  0.10100000000E+00 0. -1.
         23    2    1    2    0    0  0.00000000000E+00  0.35527136788E-14  0.25957563364E+02  0.94899383657E+02  0.91280326044E+02 0.  0.
    9000005    2    3    3    0    0  0.23542582010E+02  0.19274541727E+02  0.47871974736E+02  0.57402683106E+02  0.88080040982E+01 0.  0.
         22    1    3    3    0    0 -0.23542582010E+02 -0.19274541727E+02 -0.21914411371E+02  0.37496700551E+02  0.00000000000E+00 0. -1.
         22    1    4    4    0    0  0.17800328446E+02  0.17432586071E+02  0.42796769925E+02  0.49520806394E+02  0.00000000000E+00 0.  1.
         22    1    4    4    0    0  0.57422535640E+01  0.18419556558E+01  0.50752048106E+01  0.78818767118E+01  0.00000000000E+00 0.  1.
<mgrwt>
<rscale>  0 0.91280326E+02</rscale>
<asrwt>0</asrwt>
<pdfrwt beam="2">  1        3 0.53032169E-02 0.91280326E+02</pdfrwt>
<pdfrwt beam="1">  1       -3 0.92966882E-02 0.91280326E+02</pdfrwt>
<totfact> 0.34946664E+04</totfact>
</mgrwt>
</event>
<event>
 7    1  0.1312339E-009  0.9151110E+02  0.7818608E-02  0.1299233E+00
          3   -1    0    0  501    0  0.00000000000E+00  0.00000000000E+00  0.56837290027E+01  0.56846263181E+01  0.10100000000E+00 0. -1.
         -3   -1    0    0    0  501 -0.00000000000E+00 -0.00000000000E+00 -0.36831455978E+03  0.36831457363E+03  0.10100000000E+00 0.  1.
         23    2    1    2    0    0  0.00000000000E+00  0.00000000000E+00 -0.36263083078E+03  0.37399919995E+03  0.91511103863E+02 0.  0.
    9000005    2    3    3    0    0 -0.41345799110E+02 -0.16491548544E+02 -0.16418352205E+03  0.17062078266E+03  0.13182423330E+02 0.  0.
         22    1    3    3    0    0  0.41345799110E+02  0.16491548544E+02 -0.19844730872E+03  0.20337841729E+03  0.00000000000E+00 0.  1.
         22    1    4    4    0    0 -0.39162822908E+02 -0.18246670237E+02 -0.15852165424E+03  0.16430393342E+03  0.00000000000E+00 0. -1.
         22    1    4    4    0    0 -0.21829762018E+01  0.17551216934E+01 -0.56618678072E+01  0.63168492401E+01  0.00000000000E+00 0. -1.
<mgrwt>
<rscale>  0 0.91511104E+02</rscale>
<asrwt>0</asrwt>
<pdfrwt beam="1">  1        3 0.87449022E-03 0.91511104E+02</pdfrwt>
<pdfrwt beam="2">  1       -3 0.56663830E-01 0.91511104E+02</pdfrwt>
<totfact> 0.21202275E+04</totfact>
</mgrwt>
</event>
<event>
 7    1  0.1312339E-009  0.9064312E+02  0.7818608E-02  0.1301302E+00
         -3   -1    0    0    0  501 -0.00000000000E+00  0.00000000000E+00  0.11034710805E+02  0.11035173018E+02  0.10100000000E+00 0.  1.
          3   -1    0    0  501    0  0.00000000000E+00 -0.00000000000E+00 -0.18613950883E+03  0.18613953624E+03  0.10100000000E+00 0. -1.
         23    2    1    2    0    0  0.00000000000E+00  0.00000000000E+00 -0.17510479803E+03  0.19717470925E+03  0.90643122610E+02 0.  0.
    9000005    2    3    3    0    0 -0.24562447537E+02  0.59836160234E+01 -0.16853631425E+03  0.17105455480E+03  0.14698775681E+02 0.  0.
         22    1    3    3    0    0  0.24562447537E+02 -0.59836160234E+01 -0.65684837818E+01  0.26120154458E+02  0.00000000000E+00 0.  1.
         22    1    4    4    0    0 -0.14695064435E+02  0.97693980148E+01 -0.82130860261E+02  0.84005144269E+02  0.00000000000E+00 0.  1.
         22    1    4    4    0    0 -0.98673831018E+01 -0.37857819913E+01 -0.86405453987E+02  0.87049410528E+02  0.00000000000E+00 0.  1.
<mgrwt>
<rscale>  0 0.90643123E+02</rscale>
<asrwt>0</asrwt>
<pdfrwt beam="2">  1        3 0.28636883E-01 0.90643123E+02</pdfrwt>
<pdfrwt beam="1">  1       -3 0.16976856E-02 0.90643123E+02</pdfrwt>
<totfact> 0.29102156E+04</totfact>
</mgrwt>
</event>
<event>
 7    1  0.1312339E-009  0.8875323E+02  0.7818608E-02  0.1305899E+00
         -3   -1    0    0    0  501 -0.00000000000E+00  0.00000000000E+00  0.55699774078E+01  0.55708930454E+01  0.10100000000E+00 0.  1.
          3   -1    0    0  501    0  0.00000000000E+00 -0.00000000000E+00 -0.35352335284E+03  0.35352336727E+03  0.10100000000E+00 0. -1.
         23    2    1    2    0    0  0.88817841970E-15  0.00000000000E+00 -0.34795337543E+03  0.35909426031E+03  0.88753232702E+02 0.  0.
    9000005    2    3    3    0    0 -0.42881373120E+01  0.39888207090E+02 -0.24752809331E+03  0.25095224962E+03  0.98700267085E+01 0.  0.
         22    1    3    3    0    0  0.42881373120E+01 -0.39888207090E+02 -0.10042528212E+03  0.10814201069E+03  0.00000000000E+00 0.  1.
         22    1    4    4    0    0 -0.70440671748E+01  0.32905469889E+02 -0.21023340367E+03  0.21290954147E+03  0.00000000000E+00 0. -1.
         22    1    4    4    0    0  0.27559298627E+01  0.69827372010E+01 -0.37294689637E+02  0.38042708149E+02  0.00000000000E+00 0. -1.
<mgrwt>
<rscale>  0 0.88753233E+02</rscale>
<asrwt>0</asrwt>
<pdfrwt beam="2">  1        3 0.54388262E-01 0.88753233E+02</pdfrwt>
<pdfrwt beam="1">  1       -3 0.85699142E-03 0.88753233E+02</pdfrwt>
<totfact> 0.23545819E+04</totfact>
</mgrwt>
</event>
<event>
 7    1  0.1312339E-009  0.9052162E+02  0.7818608E-02  0.1301593E+00
         -3   -1    0    0    0  501 -0.00000000000E+00  0.00000000000E+00  0.74687239023E+01  0.74694067856E+01  0.10100000000E+00 0.  1.
          3   -1    0    0  501    0  0.00000000000E+00 -0.00000000000E+00 -0.27426937517E+03  0.27426939376E+03  0.10100000000E+00 0. -1.
         23    2    1    2    0    0  0.00000000000E+00  0.00000000000E+00 -0.26680065126E+03  0.28173880055E+03  0.90521622939E+02 0.  0.
    9000005    2    3    3    0    0 -0.43342703099E+02  0.13938832497E+01 -0.10368370919E+03  0.11295589379E+03  0.11322083196E+02 0.  0.
         22    1    3    3    0    0  0.43342703099E+02 -0.13938832497E+01 -0.16311694207E+03  0.16878290676E+03  0.00000000000E+00 0.  1.
         22    1    4    4    0    0 -0.35557892541E+01 -0.16559091692E+01 -0.40962989979E+01  0.56714493629E+01  0.00000000000E+00 0.  1.
         22    1    4    4    0    0 -0.39786913845E+02  0.30497924189E+01 -0.99587410193E+02  0.10728444443E+03  0.00000000000E+00 0.  1.
<mgrwt>
<rscale>  0 0.90521623E+02</rscale>
<asrwt>0</asrwt>
<pdfrwt beam="2">  1        3 0.42195335E-01 0.90521623E+02</pdfrwt>
<pdfrwt beam="1">  1       -3 0.11490886E-02 0.90521623E+02</pdfrwt>
<totfact> 0.25238958E+04</totfact>
</mgrwt>
</event>
<event>
 7    1  0.1312339E-009  0.9243894E+02  0.7818608E-02  0.1297051E+00
          3   -1    0    0  501    0  0.00000000000E+00  0.00000000000E+00  0.50048751240E+01  0.50058941266E+01  0.10100000000E+00 0. -1.
         -3   -1    0    0    0  501 -0.00000000000E+00 -0.00000000000E+00 -0.42678725828E+03  0.42678727023E+03  0.10100000000E+00 0.  1.
         23    2    1    2    0    0  0.00000000000E+00 -0.35527136788E-14 -0.42178238316E+03  0.43179316436E+03  0.92438942254E+02 0.  0.
    9000005    2    3    3    0    0  0.21742165639E+02  0.22586502630E+02 -0.36800882533E+03  0.36954794454E+03  0.12341634105E+02 0.  0.
         22    1    3    3    0    0 -0.21742165639E+02 -0.22586502630E+02 -0.53773557830E+02  0.62245219812E+02  0.00000000000E+00 0. -1.
         22    1    4    4    0    0  0.70593538860E+01  0.16214269224E+02 -0.19529338307E+03  0.19609243350E+03  0.00000000000E+00 0. -1.
         22    1    4    4    0    0  0.14682811753E+02  0.63722334059E+01 -0.17271544225E+03  0.17345551105E+03  0.00000000000E+00 0. -1.
<mgrwt>
<rscale>  0 0.92438942E+02</rscale>
<asrwt>0</asrwt>
<pdfrwt beam="1">  1        3 0.77006043E-03 0.92438942E+02</pdfrwt>
<pdfrwt beam="2">  1       -3 0.65659628E-01 0.92438942E+02</pdfrwt>
<totfact> 0.18961718E+04</totfact>
</mgrwt>
</event>
<event>
 7    1  0.1312339E-009  0.9042992E+02  0.7818608E-02  0.1301814E+00
          3   -1    0    0  501    0  0.00000000000E+00  0.00000000000E+00  0.42311020035E+02  0.42311140583E+02  0.10100000000E+00 0. -1.
         -3   -1    0    0    0  501 -0.00000000000E+00 -0.00000000000E+00 -0.48317961835E+02  0.48318067396E+02  0.10100000000E+00 0.  1.
         23    2    1    2    0    0  0.00000000000E+00  0.00000000000E+00 -0.60069417999E+01  0.90629207979E+02  0.90429917556E+02 0.  0.
    9000005    2    3    3    0    0 -0.14308597415E+02 -0.26316633630E+02 -0.35995243701E+02  0.48242896315E+02  0.11593891072E+02 0.  0.
         22    1    3    3    0    0  0.14308597415E+02  0.26316633630E+02  0.29988301901E+02  0.42386311664E+02  0.00000000000E+00 0. -1.
         22    1    4    4    0    0 -0.37903753648E+01 -0.18577929028E+02 -0.23176752283E+02  0.29944419159E+02  0.00000000000E+00 0.  1.
         22    1    4    4    0    0 -0.10518222050E+02 -0.77387046016E+01 -0.12818491417E+02  0.18298477156E+02  0.00000000000E+00 0.  1.
<mgrwt>
<rscale>  0 0.90429918E+02</rscale>
<asrwt>0</asrwt>
<pdfrwt beam="1">  1        3 0.65094051E-02 0.90429918E+02</pdfrwt>
<pdfrwt beam="2">  1       -3 0.74335499E-02 0.90429918E+02</pdfrwt>
<totfact> 0.36181791E+04</totfact>
</mgrwt>
</event>
<event>
 7    1  0.1312339E-009  0.9160283E+02  0.7818608E-02  0.1299016E+00
         -3   -1    0    0    0  501 -0.00000000000E+00  0.00000000000E+00  0.64758254795E+01  0.64766130532E+01  0.10100000000E+00 0.  1.
          3   -1    0    0  501    0  0.00000000000E+00 -0.00000000000E+00 -0.32391809096E+03  0.32391810671E+03  0.10100000000E+00 0. -1.
         23    2    1    2    0    0  0.00000000000E+00  0.44408920985E-15 -0.31744226548E+03  0.33039471976E+03  0.91602832552E+02 0.  0.
    9000005    2    3    3    0    0  0.23234090300E+02  0.39185506050E+01 -0.29966557428E+03  0.30087881318E+03  0.13169123901E+02 0.  0.
         22    1    3    3    0    0 -0.23234090300E+02 -0.39185506050E+01 -0.17776691203E+02  0.29515906577E+02  0.00000000000E+00 0.  1.
         22    1    4    4    0    0  0.24349743698E+02  0.38617682435E+01 -0.29647522521E+03  0.29749854190E+03  0.00000000000E+00 0.  1.
         22    1    4    4    0    0 -0.11156533982E+01  0.56782361525E-01 -0.31903490695E+01  0.33802712800E+01  0.00000000000E+00 0.  1.
<mgrwt>
<rscale>  0 0.91602833E+02</rscale>
<asrwt>0</asrwt>
<pdfrwt beam="2">  1        3 0.49833602E-01 0.91602833E+02</pdfrwt>
<pdfrwt beam="1">  1       -3 0.99634289E-03 0.91602833E+02</pdfrwt>
<totfact> 0.22616197E+04</totfact>
</mgrwt>
</event>
<event>
 7    1  0.1312339E-009  0.9131512E+02  0.7818608E-02  0.1299698E+00
          3   -1    0    0  501    0  0.00000000000E+00  0.00000000000E+00  0.43488204234E+02  0.43488321518E+02  0.10100000000E+00 0. -1.
         -3   -1    0    0    0  501 -0.00000000000E+00 -0.00000000000E+00 -0.47934892945E+02  0.47934999349E+02  0.10100000000E+00 0.  1.
         23    2    1    2    0    0  0.00000000000E+00  0.35527136788E-14 -0.44466887110E+01  0.91423320867E+02  0.91315116809E+02 0.  0.
    9000005    2    3    3    0    0  0.24173763770E+02  0.19582414369E+02 -0.34181464175E+02  0.48388466630E+02  0.14325829902E+02 0.  0.
         22    1    3    3    0    0 -0.24173763770E+02 -0.19582414369E+02  0.29734775464E+02  0.43034854237E+02  0.00000000000E+00 0. -1.
         22    1    4    4    0    0  0.10331283734E+01  0.44099712462E+00 -0.93598236278E+01  0.94269895005E+01  0.00000000000E+00 0. -1.
         22    1    4    4    0    0  0.23140635396E+02  0.19141417245E+02 -0.24821640547E+02  0.38961477130E+02  0.00000000000E+00 0. -1.
<mgrwt>
<rscale>  0 0.91315117E+02</rscale>
<asrwt>0</asrwt>
<pdfrwt beam="1">  1        3 0.66905102E-02 0.91315117E+02</pdfrwt>
<pdfrwt beam="2">  1       -3 0.73746161E-02 0.91315117E+02</pdfrwt>
<totfact> 0.35173966E+04</totfact>
</mgrwt>
</event>
<event>
 7    1  0.1312339E-009  0.9096570E+02  0.7818608E-02  0.1300530E+00
         -3   -1    0    0    0  501 -0.00000000000E+00  0.00000000000E+00  0.59004055611E+03  0.59004056475E+03  0.10100000000E+00 0.  1.
          3   -1    0    0  501    0  0.00000000000E+00 -0.00000000000E+00 -0.35052767618E+01  0.35067315518E+01  0.10100000000E+00 0. -1.
         23    2    1    2    0    0  0.00000000000E+00 -0.35527136788E-14  0.58653527935E+03  0.59354729630E+03  0.90965702505E+02 0.  0.
    9000005    2    3    3    0    0  0.29826616918E+02 -0.25188124088E+02  0.44508798893E+03  0.44681146347E+03  0.36190227145E+01 0.  0.
         22    1    3    3    0    0 -0.29826616918E+02  0.25188124088E+02  0.14144729042E+03  0.14673583284E+03  0.00000000000E+00 0. -1.
         22    1    4    4    0    0  0.11916607434E+02 -0.81195994811E+01  0.15358192018E+03  0.15425738113E+03  0.00000000000E+00 0.  1.
         22    1    4    4    0    0  0.17910009483E+02 -0.17068524607E+02  0.29150606875E+03  0.29255408233E+03  0.00000000000E+00 0.  1.
<mgrwt>
<rscale>  0 0.90965703E+02</rscale>
<asrwt>0</asrwt>
<pdfrwt beam="2">  1        3 0.53938654E-03 0.90965703E+02</pdfrwt>
<pdfrwt beam="1">  1       -3 0.90775478E-01 0.90965703E+02</pdfrwt>
<totfact> 0.15927272E+04</totfact>
</mgrwt>
</event>
<event>
 7    1  0.1312339E-009  0.9008313E+02  0.7818608E-02  0.1302651E+00
          3   -1    0    0  501    0  0.00000000000E+00  0.00000000000E+00  0.48989395527E+03  0.48989396568E+03  0.10100000000E+00 0. -1.
         -3   -1    0    0    0  501 -0.00000000000E+00 -0.00000000000E+00 -0.41405606230E+01  0.41417922779E+01  0.10100000000E+00 0.  1.
         23    2    1    2    0    0  0.00000000000E+00 -0.35527136788E-14  0.48575339464E+03  0.49403575796E+03  0.90083126785E+02 0.  0.
    9000005    2    3    3    0    0  0.35156596441E+02 -0.26786593649E+02  0.27489181540E+03  0.27859176645E+03  0.97136136515E+01 0.  0.
         22    1    3    3    0    0 -0.35156596441E+02  0.26786593649E+02  0.21086157925E+03  0.21544399150E+03  0.00000000000E+00 0.  1.
         22    1    4    4    0    0  0.16704344698E+02 -0.12779087841E+02  0.10124759333E+03  0.10340897143E+03  0.00000000000E+00 0. -1.
         22    1    4    4    0    0  0.18452251743E+02 -0.14007505809E+02  0.17364422207E+03  0.17518279502E+03  0.00000000000E+00 0. -1.
<mgrwt>
<rscale>  0 0.90083127E+02</rscale>
<asrwt>0</asrwt>
<pdfrwt beam="1">  1        3 0.75368412E-01 0.90083127E+02</pdfrwt>
<pdfrwt beam="2">  1       -3 0.63710474E-03 0.90083127E+02</pdfrwt>
<totfact> 0.18647301E+04</totfact>
</mgrwt>
</event>
<event>
 7    1  0.1312339E-009  0.9206631E+02  0.7818608E-02  0.1297924E+00
          3   -1    0    0  501    0  0.00000000000E+00  0.00000000000E+00  0.12084248390E+03  0.12084252611E+03  0.10100000000E+00 0. -1.
         -3   -1    0    0    0  501 -0.00000000000E+00 -0.00000000000E+00 -0.17535458493E+02  0.17535749359E+02  0.10100000000E+00 0.  1.
         23    2    1    2    0    0 -0.35527136788E-14  0.00000000000E+00  0.10330702540E+03  0.13837827546E+03  0.92066311008E+02 0.  0.
    9000005    2    3    3    0    0 -0.23380760954E+02 -0.15981037233E+02  0.10578506371E+03  0.10994951876E+03  0.98164880181E+01 0.  0.
         22    1    3    3    0    0  0.23380760954E+02  0.15981037233E+02 -0.24780383104E+01  0.28428756703E+02  0.00000000000E+00 0.  1.
         22    1    4    4    0    0 -0.18412988299E+02 -0.16107128488E+02  0.78778865386E+02  0.82489922765E+02  0.00000000000E+00 0.  1.
         22    1    4    4    0    0 -0.49677726544E+01  0.12609125500E+00  0.27006198328E+02  0.27459595996E+02  0.00000000000E+00 0.  1.
<mgrwt>
<rscale>  0 0.92066311E+02</rscale>
<asrwt>0</asrwt>
<pdfrwt beam="1">  1        3 0.18591177E-01 0.92066311E+02</pdfrwt>
<pdfrwt beam="2">  1       -3 0.26977885E-02 0.92066311E+02</pdfrwt>
<totfact> 0.31199604E+04</totfact>
</mgrwt>
</event>
<event>
 7    1  0.1312339E-009  0.9118003E+02  0.7818608E-02  0.1300019E+00
          3   -1    0    0  501    0  0.00000000000E+00  0.00000000000E+00  0.58441829538E+02  0.58441916813E+02  0.10100000000E+00 0.  1.
         -3   -1    0    0    0  501 -0.00000000000E+00 -0.00000000000E+00 -0.35564227821E+02  0.35564371238E+02  0.10100000000E+00 0. -1.
         23    2    1    2    0    0  0.17763568394E-14  0.00000000000E+00  0.22877601717E+02  0.94006288050E+02  0.91180028146E+02 0.  0.
    9000005    2    3    3    0    0  0.98949753599E+01  0.42316200334E+02 -0.65165169354E+00  0.44587697276E+02  0.99532281421E+01 0.  0.
         22    1    3    3    0    0 -0.98949753599E+01 -0.42316200334E+02  0.23529253410E+02  0.49418590774E+02  0.00000000000E+00 0.  1.
         22    1    4    4    0    0  0.89149975580E+01  0.19765391957E+02  0.23791879968E+01  0.21813033632E+02  0.00000000000E+00 0.  1.
         22    1    4    4    0    0  0.97997780189E+00  0.22550808376E+02 -0.30308396903E+01  0.22774663645E+02  0.00000000000E+00 0.  1.
<mgrwt>
<rscale>  0 0.91180028E+02</rscale>
<asrwt>0</asrwt>
<pdfrwt beam="1">  1        3 0.89910683E-02 0.91180028E+02</pdfrwt>
<pdfrwt beam="2">  1       -3 0.54714375E-02 0.91180028E+02</pdfrwt>
<totfact> 0.35118906E+04</totfact>
</mgrwt>
</event>
<event>
 7    1  0.1312339E-009  0.9438074E+02  0.7818608E-02  0.1292577E+00
         -3   -1    0    0    0  501 -0.00000000000E+00  0.00000000000E+00  0.21867888503E+02  0.21868121743E+02  0.10100000000E+00 0.  1.
          3   -1    0    0  501    0  0.00000000000E+00 -0.00000000000E+00 -0.10183486173E+03  0.10183491182E+03  0.10100000000E+00 0. -1.
         23    2    1    2    0    0  0.17763568394E-14  0.00000000000E+00 -0.79966973228E+02  0.12370303356E+03  0.94380737996E+02 0.  0.
    9000005    2    3    3    0    0 -0.13243956546E+02  0.24426544014E+02  0.97385120510E+01  0.29792797022E+02  0.45512305965E+01 0.  0.
         22    1    3    3    0    0  0.13243956546E+02 -0.24426544014E+02 -0.89705485279E+02  0.93910236538E+02  0.00000000000E+00 0. -1.
         22    1    4    4    0    0 -0.12917822433E+02  0.20597448698E+02  0.83719410842E+01  0.25714090044E+02  0.00000000000E+00 0.  1.
         22    1    4    4    0    0 -0.32613411226E+00  0.38290953162E+01  0.13665709668E+01  0.40787069774E+01  0.00000000000E+00 0.  1.
<mgrwt>
<rscale>  0 0.94380738E+02</rscale>
<asrwt>0</asrwt>
<pdfrwt beam="2">  1        3 0.15666923E-01 0.94380738E+02</pdfrwt>
<pdfrwt beam="1">  1       -3 0.33643124E-02 0.94380738E+02</pdfrwt>
<totfact> 0.30031934E+04</totfact>
</mgrwt>
</event>
<event>
 7    1  0.1312339E-009  0.9075085E+02  0.7818608E-02  0.1301044E+00
          3   -1    0    0  501    0  0.00000000000E+00  0.00000000000E+00  0.30938959994E+02  0.30939124850E+02  0.10100000000E+00 0. -1.
         -3   -1    0    0    0  501 -0.00000000000E+00 -0.00000000000E+00 -0.66547721999E+02  0.66547798643E+02  0.10100000000E+00 0.  1.
         23    2    1    2    0    0  0.00000000000E+00 -0.35527136788E-14 -0.35608762005E+02  0.97486923494E+02  0.90750847493E+02 0.  0.
    9000005    2    3    3    0    0  0.32408172708E+02  0.21003958047E+02 -0.42299505783E+02  0.58292255945E+02  0.10829727688E+02 0.  0.
         22    1    3    3    0    0 -0.32408172708E+02 -0.21003958047E+02  0.66907437776E+01  0.39194667548E+02  0.00000000000E+00 0.  1.
         22    1    4    4    0    0  0.30126232617E+02  0.20126164848E+02 -0.42490445251E+02  0.55839863367E+02  0.00000000000E+00 0.  1.
         22    1    4    4    0    0  0.22819400906E+01  0.87779319973E+00  0.19093946815E+00  0.24523925785E+01  0.00000000000E+00 0.  1.
<mgrwt>
<rscale>  0 0.90750847E+02</rscale>
<asrwt>0</asrwt>
<pdfrwt beam="1">  1        3 0.47598586E-02 0.90750847E+02</pdfrwt>
<pdfrwt beam="2">  1       -3 0.10238130E-01 0.90750847E+02</pdfrwt>
<totfact> 0.35306530E+04</totfact>
</mgrwt>
</event>
<event>
 7    1  0.1312339E-009  0.8980107E+02  0.7818608E-02  0.1303334E+00
          3   -1    0    0  501    0  0.00000000000E+00  0.00000000000E+00  0.15779273915E+03  0.15779277147E+03  0.10100000000E+00 0. -1.
         -3   -1    0    0    0  501 -0.00000000000E+00 -0.00000000000E+00 -0.12776387573E+02  0.12776786779E+02  0.10100000000E+00 0.  1.
         23    2    1    2    0    0  0.00000000000E+00  0.00000000000E+00  0.14501635158E+03  0.17056955825E+03  0.89801068912E+02 0.  0.
    9000005    2    3    3    0    0 -0.30895649856E+02  0.14039056511E+02  0.17122542397E+02  0.38250010512E+02  0.42714819808E+01 0.  0.
         22    1    3    3    0    0  0.30895649856E+02 -0.14039056511E+02  0.12789380918E+03  0.13231954774E+03  0.00000000000E+00 0. -1.
         22    1    4    4    0    0 -0.88817264851E+01  0.60133731877E+01  0.63092686029E+01  0.12443978172E+02  0.00000000000E+00 0.  1.
         22    1    4    4    0    0 -0.22013923371E+02  0.80256833234E+01  0.10813273794E+02  0.25806032340E+02  0.00000000000E+00 0.  1.
<mgrwt>
<rscale>  0 0.89801069E+02</rscale>
<asrwt>0</asrwt>
<pdfrwt beam="1">  1        3 0.24275841E-01 0.89801069E+02</pdfrwt>
<pdfrwt beam="2">  1       -3 0.19656311E-02 0.89801069E+02</pdfrwt>
<totfact> 0.31354012E+04</totfact>
</mgrwt>
</event>
<event>
 7    1  0.1312339E-009  0.7415843E+02  0.7818608E-02  0.1346497E+00
         -3   -1    0    0    0  501 -0.00000000000E+00  0.00000000000E+00  0.14284578870E+03  0.14284582441E+03  0.10100000000E+00 0.  1.
          3   -1    0    0  501    0  0.00000000000E+00 -0.00000000000E+00 -0.96245406019E+01  0.96250705347E+01  0.10100000000E+00 0. -1.
         23    2    1    2    0    0  0.00000000000E+00  0.00000000000E+00  0.13322124810E+03  0.15247089494E+03  0.74158430804E+02 0.  0.
    9000005    2    3    3    0    0  0.23973678891E+02 -0.24633574337E+02  0.39858639516E+02  0.52981564129E+02  0.60650415721E+01 0.  0.
         22    1    3    3    0    0 -0.23973678891E+02  0.24633574337E+02  0.93362608583E+02  0.99489330813E+02  0.00000000000E+00 0. -1.
         22    1    4    4    0    0  0.13675528913E+02 -0.11544862302E+02  0.16874491862E+02  0.24597813159E+02  0.00000000000E+00 0.  1.
         22    1    4    4    0    0  0.10298149978E+02 -0.13088712035E+02  0.22984147655E+02  0.28383750970E+02  0.00000000000E+00 0.  1.
<mgrwt>
<rscale>  0 0.74158431E+02</rscale>
<asrwt>0</asrwt>
<pdfrwt beam="2">  1        3 0.14807421E-02 0.74158431E+02</pdfrwt>
<pdfrwt beam="1">  1       -3 0.21976319E-01 0.74158431E+02</pdfrwt>
<totfact> 0.54112422E+04</totfact>
</mgrwt>
</event>
<event>
 7    1  0.1312339E-009  0.9181860E+02  0.7818608E-02  0.1298507E+00
         -3   -1    0    0    0  501 -0.00000000000E+00  0.00000000000E+00  0.33357699793E+01  0.33372986613E+01  0.10100000000E+00 0.  1.
          3   -1    0    0  501    0  0.00000000000E+00 -0.00000000000E+00 -0.63169099219E+03  0.63169100027E+03  0.10100000000E+00 0. -1.
         23    2    1    2    0    0  0.00000000000E+00  0.35527136788E-14 -0.62835522222E+03  0.63502829893E+03  0.91818599189E+02 0.  0.
    9000005    2    3    3    0    0  0.25239020110E+02  0.13339432331E+02 -0.56231550259E+03  0.56308253353E+03  0.69474111114E+01 0.  0.
         22    1    3    3    0    0 -0.25239020110E+02 -0.13339432331E+02 -0.66039719628E+02  0.71945765404E+02  0.00000000000E+00 0.  1.
         22    1    4    4    0    0  0.14826148648E+02  0.78845244289E+01 -0.39357696731E+03  0.39393503221E+03  0.00000000000E+00 0. -1.
         22    1    4    4    0    0  0.10412871462E+02  0.54549079022E+01 -0.16873853528E+03  0.16914750132E+03  0.00000000000E+00 0. -1.
<mgrwt>
<rscale>  0 0.91818599E+02</rscale>
<asrwt>0</asrwt>
<pdfrwt beam="2">  1        3 0.97183253E-01 0.91818599E+02</pdfrwt>
<pdfrwt beam="1">  1       -3 0.51331409E-03 0.91818599E+02</pdfrwt>
<totfact> 0.14779059E+04</totfact>
</mgrwt>
</event>
<event>
 7    1  0.1312339E-009  0.8668299E+02  0.7818608E-02  0.1311089E+00
         -3   -1    0    0    0  501 -0.00000000000E+00  0.00000000000E+00  0.14270016303E+03  0.14270019877E+03  0.10100000000E+00 0.  1.
          3   -1    0    0  501    0  0.00000000000E+00 -0.00000000000E+00 -0.13163631215E+02  0.13164018678E+02  0.10100000000E+00 0. -1.
         23    2    1    2    0    0  0.00000000000E+00  0.00000000000E+00  0.12953653182E+03  0.15586421745E+03  0.86682992604E+02 0.  0.
    9000005    2    3    3    0    0  0.22405764957E+02  0.21605564960E+02  0.13050728601E+02  0.35291579216E+02  0.10312870889E+02 0.  0.
         22    1    3    3    0    0 -0.22405764957E+02 -0.21605564960E+02  0.11648580322E+03  0.12057263824E+03  0.00000000000E+00 0.  1.
         22    1    4    4    0    0  0.22514400623E+02  0.18621843799E+02  0.13645800166E+02  0.32247157457E+02  0.00000000000E+00 0. -1.
         22    1    4    4    0    0 -0.10863566639E+00  0.29837211612E+01 -0.59507156507E+00  0.30444217584E+01  0.00000000000E+00 0. -1.
<mgrwt>
<rscale>  0 0.86682993E+02</rscale>
<asrwt>0</asrwt>
<pdfrwt beam="2">  1        3 0.20252067E-02 0.86682993E+02</pdfrwt>
<pdfrwt beam="1">  1       -3 0.21953903E-01 0.86682993E+02</pdfrwt>
<totfact> 0.35470056E+04</totfact>
</mgrwt>
</event>
<event>
 7    1  0.1312339E-009  0.9204890E+02  0.7818608E-02  0.1297964E+00
          3   -1    0    0  501    0  0.00000000000E+00  0.00000000000E+00  0.83941132838E+02  0.83941193601E+02  0.10100000000E+00 0. -1.
         -3   -1    0    0    0  501 -0.00000000000E+00 -0.00000000000E+00 -0.25234775205E+02  0.25234977326E+02  0.10100000000E+00 0.  1.
         23    2    1    2    0    0  0.44408920985E-15  0.35527136788E-14  0.58706357633E+02  0.10917617093E+03  0.92048899352E+02 0.  0.
    9000005    2    3    3    0    0 -0.29433500094E+01 -0.27269189573E+02  0.73127981116E+02  0.78188185624E+02  0.36631598016E+01 0.  0.
         22    1    3    3    0    0  0.29433500094E+01  0.27269189573E+02 -0.14421623483E+02  0.30987985303E+02  0.00000000000E+00 0.  1.
         22    1    4    4    0    0 -0.35170156102E+01 -0.18604087118E+02  0.47825591130E+02  0.51437035522E+02  0.00000000000E+00 0.  1.
         22    1    4    4    0    0  0.57366560084E+00 -0.86651024558E+01  0.25302389986E+02  0.26751150102E+02  0.00000000000E+00 0.  1.
<mgrwt>
<rscale>  0 0.92048899E+02</rscale>
<asrwt>0</asrwt>
<pdfrwt beam="1">  1        3 0.12914041E-01 0.92048899E+02</pdfrwt>
<pdfrwt beam="2">  1       -3 0.38822934E-02 0.92048899E+02</pdfrwt>
<totfact> 0.33133129E+04</totfact>
</mgrwt>
</event>
<event>
 7    1  0.1312339E-009  0.9110369E+02  0.7818608E-02  0.1300201E+00
          3   -1    0    0  501    0  0.00000000000E+00  0.00000000000E+00  0.13849043687E+02  0.13849411975E+02  0.10100000000E+00 0. -1.
         -3   -1    0    0    0  501 -0.00000000000E+00 -0.00000000000E+00 -0.14982533091E+03  0.14982536495E+03  0.10100000000E+00 0.  1.
         23    2    1    2    0    0  0.71054273576E-14 -0.88817841970E-15 -0.13597628722E+03  0.16367477693E+03  0.91103687715E+02 0.  0.
    9000005    2    3    3    0    0  0.37457225779E+02  0.70106471426E+01 -0.27396252457E+02  0.48601683261E+02  0.12624421993E+02 0.  0.
         22    1    3    3    0    0 -0.37457225779E+02 -0.70106471426E+01 -0.10858003476E+03  0.11507309367E+03  0.00000000000E+00 0.  1.
         22    1    4    4    0    0  0.37750832084E+02  0.83051234603E+01 -0.27188989243E+02  0.47258243035E+02  0.00000000000E+00 0. -1.
         22    1    4    4    0    0 -0.29360630495E+00 -0.12944763177E+01 -0.20726321413E+00  0.13434402254E+01  0.00000000000E+00 0. -1.
<mgrwt>
<rscale>  0 0.91103688E+02</rscale>
<asrwt>0</asrwt>
<pdfrwt beam="1">  1        3 0.21306532E-02 0.91103688E+02</pdfrwt>
<pdfrwt beam="2">  1       -3 0.23050081E-01 0.91103688E+02</pdfrwt>
<totfact> 0.30557810E+04</totfact>
</mgrwt>
</event>
<event>
 7    1  0.1312339E-009  0.9229919E+02  0.7818608E-02  0.1297377E+00
         -3   -1    0    0    0  501 -0.00000000000E+00  0.00000000000E+00  0.18154404083E+03  0.18154406893E+03  0.10100000000E+00 0.  1.
          3   -1    0    0  501    0  0.00000000000E+00 -0.00000000000E+00 -0.11731259748E+02  0.11731694519E+02  0.10100000000E+00 0. -1.
         23    2    1    2    0    0  0.00000000000E+00  0.44408920985E-15  0.16981278109E+03  0.19327576345E+03  0.92299188059E+02 0.  0.
    9000005    2    3    3    0    0  0.39448190654E+02 -0.20039771219E+01  0.35035532473E+02  0.52829750995E+02  0.18216433169E+01 0.  0.
         22    1    3    3    0    0 -0.39448190654E+02  0.20039771219E+01  0.13477724861E+03  0.14044601245E+03  0.00000000000E+00 0.  1.
         22    1    4    4    0    0  0.14177054836E+02 -0.34773157755E+00  0.11528431843E+02  0.18276064725E+02  0.00000000000E+00 0.  1.
         22    1    4    4    0    0  0.25271135818E+02 -0.16562455444E+01  0.23507100630E+02  0.34553686270E+02  0.00000000000E+00 0.  1.
<mgrwt>
<rscale>  0 0.92299188E+02</rscale>
<asrwt>0</asrwt>
<pdfrwt beam="2">  1        3 0.18048450E-02 0.92299188E+02</pdfrwt>
<pdfrwt beam="1">  1       -3 0.27929885E-01 0.92299188E+02</pdfrwt>
<totfact> 0.27909999E+04</totfact>
</mgrwt>
</event>
<event>
 7    1  0.1312339E-009  0.9299489E+02  0.7818608E-02  0.1295757E+00
         -3   -1    0    0    0  501 -0.00000000000E+00  0.00000000000E+00  0.10897305219E+03  0.10897309899E+03  0.10100000000E+00 0.  1.
          3   -1    0    0  501    0  0.00000000000E+00 -0.00000000000E+00 -0.19839699295E+02  0.19839956379E+02  0.10100000000E+00 0. -1.
         23    2    1    2    0    0  0.27755575616E-15  0.00000000000E+00  0.89133352894E+02  0.12881305537E+03  0.92994885002E+02 0.  0.
    9000005    2    3    3    0    0  0.45796023173E+00 -0.32101200535E+02  0.12633171593E+01  0.35261786096E+02  0.14529307798E+02 0.  0.
         22    1    3    3    0    0 -0.45796023173E+00  0.32101200535E+02  0.87870035734E+02  0.93551269277E+02  0.00000000000E+00 0.  1.
         22    1    4    4    0    0  0.47079561147E+01 -0.18039390110E+02 -0.49843218313E+01  0.19298391395E+02  0.00000000000E+00 0. -1.
         22    1    4    4    0    0 -0.42499958830E+01 -0.14061810426E+02  0.62476389906E+01  0.15963394702E+02  0.00000000000E+00 0. -1.
<mgrwt>
<rscale>  0 0.92994885E+02</rscale>
<asrwt>0</asrwt>
<pdfrwt beam="2">  1        3 0.30522849E-02 0.92994885E+02</pdfrwt>
<pdfrwt beam="1">  1       -3 0.16765108E-01 0.92994885E+02</pdfrwt>
<totfact> 0.30947660E+04</totfact>
</mgrwt>
</event>
<event>
 7    1  0.1312339E-009  0.9021182E+02  0.7818608E-02  0.1302340E+00
          3   -1    0    0  501    0  0.00000000000E+00  0.00000000000E+00  0.10738929671E+03  0.10738934421E+03  0.10100000000E+00 0. -1.
         -3   -1    0    0    0  501 -0.00000000000E+00 -0.00000000000E+00 -0.18945307227E+02  0.18945576447E+02  0.10100000000E+00 0.  1.
         23    2    1    2    0    0  0.00000000000E+00  0.00000000000E+00  0.88443989488E+02  0.12633492066E+03  0.90211822401E+02 0.  0.
    9000005    2    3    3    0    0 -0.20444368763E+02 -0.37901404702E+02  0.31605722894E+02  0.55025193116E+02  0.13204600157E+02 0.  0.
         22    1    3    3    0    0  0.20444368763E+02  0.37901404702E+02  0.56838266594E+02  0.71309727541E+02  0.00000000000E+00 0.  1.
         22    1    4    4    0    0 -0.41755869983E+01 -0.15209768751E+02  0.52326225892E+01  0.16617849783E+02  0.00000000000E+00 0.  1.
         22    1    4    4    0    0 -0.16268781765E+02 -0.22691635951E+02  0.26373100305E+02  0.38407343333E+02  0.00000000000E+00 0.  1.
<mgrwt>
<rscale>  0 0.90211822E+02</rscale>
<asrwt>0</asrwt>
<pdfrwt beam="1">  1        3 0.16521454E-01 0.90211822E+02</pdfrwt>
<pdfrwt beam="2">  1       -3 0.29146870E-02 0.90211822E+02</pdfrwt>
<totfact> 0.33778391E+04</totfact>
</mgrwt>
</event>
<event>
 7    1  0.1312339E-009  0.9019750E+02  0.7818608E-02  0.1302374E+00
         -3   -1    0    0    0  501 -0.00000000000E+00  0.00000000000E+00  0.90126643429E+01  0.90132302510E+01  0.10100000000E+00 0.  1.
          3   -1    0    0  501    0  0.00000000000E+00 -0.00000000000E+00 -0.22566337382E+03  0.22566339642E+03  0.10100000000E+00 0. -1.
         23    2    1    2    0    0 -0.35527136788E-14 -0.71054273576E-14 -0.21665070948E+03  0.23467662667E+03  0.90197501018E+02 0.  0.
    9000005    2    3    3    0    0  0.21069729236E+02  0.33367339746E+02 -0.16092816492E+03  0.16639548122E+03  0.15240375848E+02 0.  0.
         22    1    3    3    0    0 -0.21069729236E+02 -0.33367339746E+02 -0.55722544563E+02  0.68281145453E+02  0.00000000000E+00 0.  1.
         22    1    4    4    0    0  0.36591183457E+01  0.59809805709E+00 -0.57456923361E+01  0.68381173414E+01  0.00000000000E+00 0. -1.
         22    1    4    4    0    0  0.17410610891E+02  0.32769241689E+02 -0.15518247258E+03  0.15955736388E+03  0.00000000000E+00 0. -1.
<mgrwt>
<rscale>  0 0.90197501E+02</rscale>
<asrwt>0</asrwt>
<pdfrwt beam="2">  1        3 0.34717483E-01 0.90197501E+02</pdfrwt>
<pdfrwt beam="1">  1       -3 0.13866092E-02 0.90197501E+02</pdfrwt>
<totfact> 0.27589058E+04</totfact>
</mgrwt>
</event>
<event>
 7    1  0.1312339E-009  0.8909297E+02  0.7818608E-02  0.1305063E+00
          3   -1    0    0  501    0  0.00000000000E+00  0.00000000000E+00  0.43530198944E+02  0.43530316115E+02  0.10100000000E+00 0. -1.
         -3   -1    0    0    0  501 -0.00000000000E+00 -0.00000000000E+00 -0.45586263639E+02  0.45586375526E+02  0.10100000000E+00 0.  1.
         23    2    1    2    0    0  0.00000000000E+00  0.00000000000E+00 -0.20560646948E+01  0.89116691641E+02  0.89092970132E+02 0.  0.
    9000005    2    3    3    0    0 -0.10401250665E+02  0.17492148353E+02  0.38602087068E+02  0.43649708300E+02  0.10072930559E+01 0.  0.
         22    1    3    3    0    0  0.10401250665E+02 -0.17492148353E+02 -0.40658151762E+02  0.45466983341E+02  0.00000000000E+00 0.  1.
         22    1    4    4    0    0 -0.61923887929E+01  0.10759180606E+02  0.24516620421E+02  0.27480362500E+02  0.00000000000E+00 0. -1.
         22    1    4    4    0    0 -0.42088618725E+01  0.67329677467E+01  0.14085466646E+02  0.16169345800E+02  0.00000000000E+00 0. -1.
<mgrwt>
<rscale>  0 0.89092970E+02</rscale>
<asrwt>0</asrwt>
<pdfrwt beam="1">  1        3 0.66969713E-02 0.89092970E+02</pdfrwt>
<pdfrwt beam="2">  1       -3 0.70132889E-02 0.89092970E+02</pdfrwt>
<totfact> 0.37800037E+04</totfact>
</mgrwt>
</event>
<event>
 7    1  0.1520593E-009  0.9047815E+02  0.7818608E-02  0.1301698E+00
         -3   -1    0    0    0  501 -0.00000000000E+00  0.00000000000E+00  0.45089647529E+01  0.45100958020E+01  0.10100000000E+00 0.  1.
          3   -1    0    0  501    0  0.00000000000E+00 -0.00000000000E+00 -0.45383195604E+03  0.45383196728E+03  0.10100000000E+00 0. -1.
         23    2    1    2    0    0  0.00000000000E+00  0.00000000000E+00 -0.44932299129E+03  0.45834206308E+03  0.90478153661E+02 0.  0.
    9000005    2    3    3    0    0  0.40356470154E+02 -0.14347407706E+02 -0.28293738437E+03  0.28653210126E+03  0.14580424829E+02 0.  0.
         22    1    3    3    0    0 -0.40356470154E+02  0.14347407706E+02 -0.16638560692E+03  0.17180996182E+03  0.00000000000E+00 0.  1.
         22    1    4    4    0    0  0.97198978421E+01 -0.40264204567E+01 -0.36589423404E+02  0.38071963185E+02  0.00000000000E+00 0.  1.
         22    1    4    4    0    0  0.30636572312E+02 -0.10320987249E+02 -0.24634796096E+03  0.24846013807E+03  0.00000000000E+00 0.  1.
<mgrwt>
<rscale>  0 0.90478154E+02</rscale>
<asrwt>0</asrwt>
<pdfrwt beam="2">  1        3 0.69820353E-01 0.90478154E+02</pdfrwt>
<pdfrwt beam="1">  1       -3 0.69377511E-03 0.90478154E+02</pdfrwt>
<totfact> 0.19359227E+04</totfact>
</mgrwt>
</event>
<event>
 7    1  0.1312339E-009  0.9139149E+02  0.7818608E-02  0.1299517E+00
          3   -1    0    0  501    0  0.00000000000E+00  0.00000000000E+00  0.29124889485E+02  0.29125064610E+02  0.10100000000E+00 0. -1.
         -3   -1    0    0    0  501 -0.00000000000E+00 -0.00000000000E+00 -0.71694299655E+02  0.71694370797E+02  0.10100000000E+00 0.  1.
         23    2    1    2    0    0 -0.35527136788E-14  0.71054273576E-14 -0.42569410169E+02  0.10081943541E+03  0.91391486877E+02 0.  0.
    9000005    2    3    3    0    0 -0.19396252214E+02  0.39221331536E+02 -0.88080780983E+01  0.45553216154E+02  0.91096550312E+01 0.  0.
         22    1    3    3    0    0  0.19396252214E+02 -0.39221331536E+02 -0.33761332071E+02  0.55266219254E+02  0.00000000000E+00 0.  1.
         22    1    4    4    0    0 -0.38311579089E+01  0.14682412390E+02  0.49667845110E-01  0.15174105292E+02  0.00000000000E+00 0.  1.
         22    1    4    4    0    0 -0.15565094305E+02  0.24538919145E+02 -0.88577459434E+01  0.30379110861E+02  0.00000000000E+00 0.  1.
<mgrwt>
<rscale>  0 0.91391487E+02</rscale>
<asrwt>0</asrwt>
<pdfrwt beam="1">  1        3 0.44807712E-02 0.91391487E+02</pdfrwt>
<pdfrwt beam="2">  1       -3 0.11029911E-01 0.91391487E+02</pdfrwt>
<totfact> 0.34390562E+04</totfact>
</mgrwt>
</event>
<event>
 7    1  0.1312339E-009  0.9185118E+02  0.7818608E-02  0.1298430E+00
          3   -1    0    0  501    0  0.00000000000E+00  0.00000000000E+00  0.86293063655E+02  0.86293122761E+02  0.10100000000E+00 0. -1.
         -3   -1    0    0    0  501 -0.00000000000E+00 -0.00000000000E+00 -0.24441653136E+02  0.24441861816E+02  0.10100000000E+00 0.  1.
         23    2    1    2    0    0  0.17763568394E-14  0.00000000000E+00  0.61851410519E+02  0.11073498458E+03  0.91851183041E+02 0.  0.
    9000005    2    3    3    0    0 -0.13057249439E+02 -0.16691351280E+02 -0.16982235525E+02  0.29102658143E+02  0.10463050087E+02 0.  0.
         22    1    3    3    0    0  0.13057249439E+02  0.16691351280E+02  0.78833646044E+02  0.81632326434E+02  0.00000000000E+00 0. -1.
         22    1    4    4    0    0 -0.11859028110E+02 -0.17896966574E+02 -0.13880543293E+02  0.25565747444E+02  0.00000000000E+00 0. -1.
         22    1    4    4    0    0 -0.11982213292E+01  0.12056152943E+01 -0.31016922324E+01  0.35369106995E+01  0.00000000000E+00 0. -1.
<mgrwt>
<rscale>  0 0.91851183E+02</rscale>
<asrwt>0</asrwt>
<pdfrwt beam="1">  1        3 0.13275877E-01 0.91851183E+02</pdfrwt>
<pdfrwt beam="2">  1       -3 0.37602749E-02 0.91851183E+02</pdfrwt>
<totfact> 0.33218932E+04</totfact>
</mgrwt>
</event>
<event>
 7    1  0.1312339E-009  0.9210068E+02  0.7818608E-02  0.1297843E+00
          3   -1    0    0  501    0  0.00000000000E+00  0.00000000000E+00  0.82661917147E+02  0.82661978850E+02  0.10100000000E+00 0. -1.
         -3   -1    0    0    0  501 -0.00000000000E+00 -0.00000000000E+00 -0.25654132155E+02  0.25654330972E+02  0.10100000000E+00 0.  1.
         23    2    1    2    0    0  0.00000000000E+00 -0.88817841970E-15  0.57007784992E+02  0.10831630982E+03  0.92100680909E+02 0.  0.
    9000005    2    3    3    0    0 -0.34461825851E+02 -0.72289212148E+01 -0.59566210284E+01  0.36174843464E+02  0.57674277291E+01 0.  0.
         22    1    3    3    0    0  0.34461825851E+02  0.72289212148E+01  0.62964406020E+02  0.72141466359E+02  0.00000000000E+00 0.  1.
         22    1    4    4    0    0 -0.27166452689E+02 -0.79007934965E+01 -0.38573852286E+01  0.28553775764E+02  0.00000000000E+00 0.  1.
         22    1    4    4    0    0 -0.72953731627E+01  0.67187228168E+00 -0.20992357998E+01  0.76210677001E+01  0.00000000000E+00 0.  1.
<mgrwt>
<rscale>  0 0.92100681E+02</rscale>
<asrwt>0</asrwt>
<pdfrwt beam="1">  1        3 0.12717238E-01 0.92100681E+02</pdfrwt>
<pdfrwt beam="2">  1       -3 0.39468096E-02 0.92100681E+02</pdfrwt>
<totfact> 0.33142069E+04</totfact>
</mgrwt>
</event>
<event>
 7    1  0.1312339E-009  0.9306238E+02  0.7818608E-02  0.1295601E+00
          3   -1    0    0  501    0  0.00000000000E+00  0.00000000000E+00  0.18747935642E+03  0.18747938362E+03  0.10100000000E+00 0. -1.
         -3   -1    0    0    0  501 -0.00000000000E+00 -0.00000000000E+00 -0.11548498692E+02  0.11548940342E+02  0.10100000000E+00 0.  1.
         23    2    1    2    0    0 -0.71054273576E-14  0.00000000000E+00  0.17593085772E+03  0.19902832396E+03  0.93062382521E+02 0.  0.
    9000005    2    3    3    0    0  0.36302128487E+02 -0.19588480538E+02  0.49554063728E+02  0.66089815009E+02  0.14515691973E+02 0.  0.
         22    1    3    3    0    0 -0.36302128487E+02  0.19588480538E+02  0.12637679400E+03  0.13293850896E+03  0.00000000000E+00 0. -1.
         22    1    4    4    0    0  0.37569397202E+02 -0.19762579620E+02  0.48097346427E+02  0.64151179979E+02  0.00000000000E+00 0. -1.
         22    1    4    4    0    0 -0.12672687144E+01  0.17409908266E+00  0.14567173007E+01  0.19386350299E+01  0.00000000000E+00 0. -1.
<mgrwt>
<rscale>  0 0.93062383E+02</rscale>
<asrwt>0</asrwt>
<pdfrwt beam="1">  1        3 0.28843014E-01 0.93062383E+02</pdfrwt>
<pdfrwt beam="2">  1       -3 0.17767282E-02 0.93062383E+02</pdfrwt>
<totfact> 0.27011034E+04</totfact>
</mgrwt>
</event>
<event>
 7    1  0.1312339E-009  0.8921886E+02  0.7818608E-02  0.1304754E+00
          3   -1    0    0  501    0  0.00000000000E+00  0.00000000000E+00  0.34790548955E+02  0.34790695561E+02  0.10100000000E+00 0. -1.
         -3   -1    0    0    0  501 -0.00000000000E+00 -0.00000000000E+00 -0.57199164879E+02  0.57199254050E+02  0.10100000000E+00 0.  1.
         23    2    1    2    0    0  0.00000000000E+00  0.00000000000E+00 -0.22408615924E+02  0.91989949611E+02  0.89218858778E+02 0.  0.
    9000005    2    3    3    0    0 -0.29088895287E+02 -0.20730573497E+02  0.15171965454E+02  0.40141896578E+02  0.10259766988E+02 0.  0.
         22    1    3    3    0    0  0.29088895287E+02  0.20730573497E+02 -0.37580581378E+02  0.51848053032E+02  0.00000000000E+00 0.  1.
         22    1    4    4    0    0 -0.16323245916E+02 -0.17371462082E+02  0.81626413225E+01  0.25196126001E+02  0.00000000000E+00 0. -1.
         22    1    4    4    0    0 -0.12765649371E+02 -0.33591114144E+01  0.70093241318E+01  0.14945770577E+02  0.00000000000E+00 0. -1.
<mgrwt>
<rscale>  0 0.89218859E+02</rscale>
<asrwt>0</asrwt>
<pdfrwt beam="1">  1        3 0.53524103E-02 0.89218859E+02</pdfrwt>
<pdfrwt beam="2">  1       -3 0.87998896E-02 0.89218859E+02</pdfrwt>
<totfact> 0.37420213E+04</totfact>
</mgrwt>
</event>
<event>
 7    1  0.1312339E-009  0.9496259E+02  0.7818608E-02  0.1291260E+00
         -3   -1    0    0    0  501 -0.00000000000E+00  0.00000000000E+00  0.56304080814E+02  0.56304171403E+02  0.10100000000E+00 0.  1.
          3   -1    0    0  501    0  0.00000000000E+00 -0.00000000000E+00 -0.40040840524E+02  0.40040967906E+02  0.10100000000E+00 0. -1.
         23    2    1    2    0    0 -0.35527136788E-14  0.00000000000E+00  0.16263240291E+02  0.96345139308E+02  0.94962586757E+02 0.  0.
    9000005    2    3    3    0    0 -0.27221536999E+02 -0.48606765043E+01  0.46858365403E+02  0.55105595988E+02  0.87339594856E+01 0.  0.
         22    1    3    3    0    0  0.27221536999E+02  0.48606765043E+01 -0.30595125112E+02  0.41239543321E+02  0.00000000000E+00 0. -1.
         22    1    4    4    0    0 -0.19574908399E+02 -0.73061811502E+01  0.32004066094E+02  0.38220643222E+02  0.00000000000E+00 0.  1.
         22    1    4    4    0    0 -0.76466286001E+01  0.24455046459E+01  0.14854299309E+02  0.16884952765E+02  0.00000000000E+00 0.  1.
<mgrwt>
<rscale>  0 0.94962587E+02</rscale>
<asrwt>0</asrwt>
<pdfrwt beam="2">  1        3 0.61601460E-02 0.94962587E+02</pdfrwt>
<pdfrwt beam="1">  1       -3 0.86621831E-02 0.94962587E+02</pdfrwt>
<totfact> 0.31268345E+04</totfact>
</mgrwt>
</event>
<event>
 7    1  0.1312339E-009  0.9140394E+02  0.7818608E-02  0.1299487E+00
          3   -1    0    0  501    0  0.00000000000E+00  0.00000000000E+00  0.20505532842E+02  0.20505781578E+02  0.10100000000E+00 0. -1.
         -3   -1    0    0    0  501 -0.00000000000E+00 -0.00000000000E+00 -0.10185795136E+03  0.10185800144E+03  0.10100000000E+00 0.  1.
         23    2    1    2    0    0  0.00000000000E+00 -0.44408920985E-15 -0.81352418520E+02  0.12236378301E+03  0.91403935334E+02 0.  0.
    9000005    2    3    3    0    0  0.38076438202E+02  0.23504377530E+01 -0.72471552050E+02  0.83194796647E+02  0.14625615507E+02 0.  0.
         22    1    3    3    0    0 -0.38076438202E+02 -0.23504377530E+01 -0.88808664705E+01  0.39168986367E+02  0.00000000000E+00 0. -1.
         22    1    4    4    0    0  0.35092354623E+02  0.28578929540E+01 -0.71978058057E+02  0.80127908663E+02  0.00000000000E+00 0. -1.
         22    1    4    4    0    0  0.29840835790E+01 -0.50745520104E+00 -0.49349399298E+00  0.30668879844E+01  0.00000000000E+00 0. -1.
<mgrwt>
<rscale>  0 0.91403935E+02</rscale>
<asrwt>0</asrwt>
<pdfrwt beam="1">  1        3 0.31547204E-02 0.91403935E+02</pdfrwt>
<pdfrwt beam="2">  1       -3 0.15670477E-01 0.91403935E+02</pdfrwt>
<totfact> 0.32863961E+04</totfact>
</mgrwt>
</event>
<event>
 7    1  0.1312339E-009  0.9393024E+02  0.7818608E-02  0.1293604E+00
         -3   -1    0    0    0  501 -0.00000000000E+00  0.00000000000E+00  0.12840753488E+02  0.12841150694E+02  0.10100000000E+00 0. -1.
          3   -1    0    0  501    0  0.00000000000E+00 -0.00000000000E+00 -0.17177207720E+03  0.17177210689E+03  0.10100000000E+00 0.  1.
         23    2    1    2    0    0  0.00000000000E+00  0.00000000000E+00 -0.15893132371E+03  0.18461325759E+03  0.93930235920E+02 0.  0.
    9000005    2    3    3    0    0  0.41888512486E+02 -0.95008008182E+01 -0.46836963754E+02  0.64571355616E+02  0.11438797921E+02 0.  0.
         22    1    3    3    0    0 -0.41888512486E+02  0.95008008182E+01 -0.11209435996E+03  0.12004190197E+03  0.00000000000E+00 0. -1.
         22    1    4    4    0    0  0.19686185223E+02 -0.34940536998E+01 -0.13711748007E+02  0.24243892701E+02  0.00000000000E+00 0.  1.
         22    1    4    4    0    0  0.22202327263E+02 -0.60067471184E+01 -0.33125215747E+02  0.40327462914E+02  0.00000000000E+00 0.  1.
<mgrwt>
<rscale>  0 0.93930236E+02</rscale>
<asrwt>0</asrwt>
<pdfrwt beam="2">  1        3 0.26426505E-01 0.93930236E+02</pdfrwt>
<pdfrwt beam="1">  1       -3 0.19755335E-02 0.93930236E+02</pdfrwt>
<totfact> 0.27043864E+04</totfact>
</mgrwt>
</event>
<event>
 7    1  0.1312339E-009  0.8876792E+02  0.7818608E-02  0.1305863E+00
         -3   -1    0    0    0  501 -0.00000000000E+00  0.00000000000E+00  0.36452907431E+02  0.36453047351E+02  0.10100000000E+00 0.  1.
          3   -1    0    0  501    0  0.00000000000E+00 -0.00000000000E+00 -0.54040280561E+02  0.54040374945E+02  0.10100000000E+00 0. -1.
         23    2    1    2    0    0  0.17763568394E-14  0.00000000000E+00 -0.17587373131E+02  0.90493422295E+02  0.88767920923E+02 0.  0.
    9000005    2    3    3    0    0  0.13848220752E+02 -0.34352247165E+02 -0.32559881478E+02  0.50543126808E+02  0.11073015959E+02 0.  0.
         22    1    3    3    0    0 -0.13848220752E+02  0.34352247165E+02  0.14972508347E+02  0.39950295487E+02  0.00000000000E+00 0.  1.
         22    1    4    4    0    0  0.11609875861E+02 -0.21663310080E+02 -0.15108722375E+02  0.28850679593E+02  0.00000000000E+00 0. -1.
         22    1    4    4    0    0  0.22383448909E+01 -0.12688937085E+02 -0.17451159102E+02  0.21692447216E+02  0.00000000000E+00 0. -1.
<mgrwt>
<rscale>  0 0.88767921E+02</rscale>
<asrwt>0</asrwt>
<pdfrwt beam="2">  1        3 0.83139074E-02 0.88767921E+02</pdfrwt>
<pdfrwt beam="1">  1       -3 0.56081576E-02 0.88767921E+02</pdfrwt>
<totfact> 0.38061350E+04</totfact>
</mgrwt>
</event>
<event>
 7    1  0.1495017E-009  0.9162679E+02  0.7818608E-02  0.1298959E+00
         -3   -1    0    0    0  501 -0.00000000000E+00  0.00000000000E+00  0.88582651586E+01  0.88588409299E+01  0.10100000000E+00 0.  1.
          3   -1    0    0  501    0  0.00000000000E+00 -0.00000000000E+00 -0.23693057591E+03  0.23693059744E+03  0.10100000000E+00 0. -1.
         23    2    1    2    0    0  0.00000000000E+00  0.00000000000E+00 -0.22807231075E+03  0.24578943837E+03  0.91626792377E+02 0.  0.
    9000005    2    3    3    0    0  0.18870287951E+02 -0.13943083261E+02 -0.21873242119E+03  0.22053610442E+03  0.15550046212E+02 0.  0.
         22    1    3    3    0    0 -0.18870287951E+02  0.13943083261E+02 -0.93398895612E+01  0.25253333942E+02  0.00000000000E+00 0.  1.
         22    1    4    4    0    0  0.10929258569E+02 -0.48626906929E+01 -0.16648592653E+03  0.16691512270E+03  0.00000000000E+00 0. -1.
         22    1    4    4    0    0  0.79410293820E+01 -0.90803925681E+01 -0.52246494662E+02  0.53620981726E+02  0.00000000000E+00 0. -1.
<mgrwt>
<rscale>  0 0.91626792E+02</rscale>
<asrwt>0</asrwt>
<pdfrwt beam="2">  1        3 0.36450899E-01 0.91626792E+02</pdfrwt>
<pdfrwt beam="1">  1       -3 0.13628562E-02 0.91626792E+02</pdfrwt>
<totfact> 0.25945441E+04</totfact>
</mgrwt>
</event>
<event>
 7    1  0.1312339E-009  0.9174564E+02  0.7818608E-02  0.1298679E+00
          3   -1    0    0  501    0  0.00000000000E+00  0.00000000000E+00  0.17486976859E+03  0.17486979775E+03  0.10100000000E+00 0. -1.
         -3   -1    0    0    0  501 -0.00000000000E+00 -0.00000000000E+00 -0.12033373637E+02  0.12033797493E+02  0.10100000000E+00 0.  1.
         23    2    1    2    0    0  0.00000000000E+00  0.44408920985E-15  0.16283639495E+03  0.18690359525E+03  0.91745639657E+02 0.  0.
    9000005    2    3    3    0    0  0.28649222602E+02 -0.25007859646E+01  0.15336078999E+03  0.15662457651E+03  0.13590223479E+02 0.  0.
         22    1    3    3    0    0 -0.28649222602E+02  0.25007859646E+01  0.94756049531E+01  0.30279018732E+02  0.00000000000E+00 0.  1.
         22    1    4    4    0    0  0.28279010172E+02  0.98362407543E+00  0.13536800845E+03  0.13829377298E+03  0.00000000000E+00 0.  1.
         22    1    4    4    0    0  0.37021242951E+00 -0.34844100400E+01  0.17992781547E+02  0.18330803539E+02  0.00000000000E+00 0.  1.
<mgrwt>
<rscale>  0 0.91745640E+02</rscale>
<asrwt>0</asrwt>
<pdfrwt beam="1">  1        3 0.26903074E-01 0.91745640E+02</pdfrwt>
<pdfrwt beam="2">  1       -3 0.18513232E-02 0.91745640E+02</pdfrwt>
<totfact> 0.28703036E+04</totfact>
</mgrwt>
</event>
<event>
 7    1  0.1312339E-009  0.9350742E+02  0.7818608E-02  0.1294574E+00
          3   -1    0    0  501    0  0.00000000000E+00  0.00000000000E+00  0.17668054234E+03  0.17668057121E+03  0.10100000000E+00 0. -1.
         -3   -1    0    0    0  501 -0.00000000000E+00 -0.00000000000E+00 -0.12371863019E+02  0.12372275278E+02  0.10100000000E+00 0.  1.
         23    2    1    2    0    0  0.71054273576E-14  0.10408340856E-15  0.16430867933E+03  0.18905284649E+03  0.93507415024E+02 0.  0.
    9000005    2    3    3    0    0  0.36476469204E+02  0.22722398081E-01  0.14010531137E+03  0.14527686743E+03  0.12055563696E+02 0.  0.
         22    1    3    3    0    0 -0.36476469204E+02 -0.22722398081E-01  0.24203367959E+02  0.43775979058E+02  0.00000000000E+00 0.  1.
         22    1    4    4    0    0  0.18751338080E+02  0.29863719859E+01  0.52019777331E+02  0.55376785127E+02  0.00000000000E+00 0. -1.
         22    1    4    4    0    0  0.17725131124E+02 -0.29636495878E+01  0.88085534036E+02  0.89900082306E+02  0.00000000000E+00 0. -1.
<mgrwt>
<rscale>  0 0.93507415E+02</rscale>
<asrwt>0</asrwt>
<pdfrwt beam="1">  1        3 0.27181656E-01 0.93507415E+02</pdfrwt>
<pdfrwt beam="2">  1       -3 0.19033975E-02 0.93507415E+02</pdfrwt>
<totfact> 0.27154102E+04</totfact>
</mgrwt>
</event>
<event>
 7    1  0.1312339E-009  0.1024141E+03  0.7818608E-02  0.1275300E+00
          3   -1    0    0  501    0  0.00000000000E+00  0.00000000000E+00  0.16136983161E+02  0.16137299233E+02  0.10100000000E+00 0. -1.
         -3   -1    0    0    0  501 -0.00000000000E+00 -0.00000000000E+00 -0.16249207875E+03  0.16249211014E+03  0.10100000000E+00 0.  1.
         23    2    1    2    0    0  0.00000000000E+00 -0.35527136788E-14 -0.14635509559E+03  0.17862940937E+03  0.10241411957E+03 0.  0.
    9000005    2    3    3    0    0 -0.78972868072E+01  0.19171413725E+02 -0.15452506752E+03  0.15634356892E+03  0.11636357190E+02 0.  0.
         22    1    3    3    0    0  0.78972868072E+01 -0.19171413725E+02  0.81699719315E+01  0.22285840448E+02  0.00000000000E+00 0. -1.
         22    1    4    4    0    0 -0.29431146007E+01  0.12796682345E+01 -0.75940206074E+01  0.82443085416E+01  0.00000000000E+00 0. -1.
         22    1    4    4    0    0 -0.49541722066E+01  0.17891745490E+02 -0.14693104691E+03  0.14809926038E+03  0.00000000000E+00 0. -1.
<mgrwt>
<rscale>  0 0.10241412E+03</rscale>
<asrwt>0</asrwt>
<pdfrwt beam="1">  1        3 0.24826396E-02 0.10241412E+03</pdfrwt>
<pdfrwt beam="2">  1       -3 0.24998807E-01 0.10241412E+03</pdfrwt>
<totfact> 0.21599602E+04</totfact>
</mgrwt>
</event>
<event>
 7    1  0.1312339E-009  0.9053497E+02  0.7818608E-02  0.1301561E+00
         -3   -1    0    0    0  501 -0.00000000000E+00  0.00000000000E+00  0.30709833582E+03  0.30709835243E+03  0.10100000000E+00 0.  1.
          3   -1    0    0  501    0  0.00000000000E+00 -0.00000000000E+00 -0.66722033437E+01  0.66729677400E+01  0.10100000000E+00 0. -1.
         23    2    1    2    0    0  0.00000000000E+00  0.00000000000E+00  0.30042613248E+03  0.31377132017E+03  0.90534967200E+02 0.  0.
    9000005    2    3    3    0    0  0.37737361480E+02  0.84815072332E+01  0.23029484110E+03  0.23368110575E+03  0.86660791778E+01 0.  0.
         22    1    3    3    0    0 -0.37737361480E+02 -0.84815072332E+01  0.70131291379E+02  0.80090214427E+02  0.00000000000E+00 0. -1.
         22    1    4    4    0    0  0.25045513198E+02  0.14401087112E+01  0.14100014954E+03  0.14321450281E+03  0.00000000000E+00 0. -1.
         22    1    4    4    0    0  0.12691848282E+02  0.70413985220E+01  0.89294691559E+02  0.90466602935E+02  0.00000000000E+00 0. -1.
<mgrwt>
<rscale>  0 0.90534967E+02</rscale>
<asrwt>0</asrwt>
<pdfrwt beam="2">  1        3 0.10265533E-02 0.90534967E+02</pdfrwt>
<pdfrwt beam="1">  1       -3 0.47245939E-01 0.90534967E+02</pdfrwt>
<totfact> 0.23948414E+04</totfact>
</mgrwt>
</event>
<event>
 7    1  0.1312339E-009  0.9175975E+02  0.7818608E-02  0.1298645E+00
          3   -1    0    0  501    0  0.00000000000E+00  0.00000000000E+00  0.27194040028E+02  0.27194227587E+02  0.10100000000E+00 0. -1.
         -3   -1    0    0    0  501 -0.00000000000E+00 -0.00000000000E+00 -0.77404819618E+02  0.77404885511E+02  0.10100000000E+00 0.  1.
         23    2    1    2    0    0  0.35527136788E-14  0.00000000000E+00 -0.50210779590E+02  0.10459911310E+03  0.91759751928E+02 0.  0.
    9000005    2    3    3    0    0 -0.25897365027E+02  0.24016929743E+02  0.67798559289E+01  0.37551227476E+02  0.10800083745E+02 0.  0.
         22    1    3    3    0    0  0.25897365027E+02 -0.24016929743E+02 -0.56990635519E+02  0.67047885622E+02  0.00000000000E+00 0.  1.
         22    1    4    4    0    0 -0.13028919511E+02  0.63446203398E+01 -0.52739328524E+00  0.14501210106E+02  0.00000000000E+00 0. -1.
         22    1    4    4    0    0 -0.12868445516E+02  0.17672309403E+02  0.73072492141E+01  0.23050017369E+02  0.00000000000E+00 0. -1.
<mgrwt>
<rscale>  0 0.91759752E+02</rscale>
<asrwt>0</asrwt>
<pdfrwt beam="1">  1        3 0.41837180E-02 0.91759752E+02</pdfrwt>
<pdfrwt beam="2">  1       -3 0.11908453E-01 0.91759752E+02</pdfrwt>
<totfact> 0.33743764E+04</totfact>
</mgrwt>
</event>
<event>
 7    1  0.1312339E-009  0.9317029E+02  0.7818608E-02  0.1295351E+00
          3   -1    0    0  501    0  0.00000000000E+00  0.00000000000E+00  0.40733423971E+02  0.40733549187E+02  0.10100000000E+00 0. -1.
         -3   -1    0    0    0  501 -0.00000000000E+00 -0.00000000000E+00 -0.53277266335E+02  0.53277362070E+02  0.10100000000E+00 0.  1.
         23    2    1    2    0    0  0.00000000000E+00  0.17763568394E-14 -0.12543842364E+02  0.94010911258E+02  0.93170292767E+02 0.  0.
    9000005    2    3    3    0    0 -0.55526774849E+01  0.15235543637E+02 -0.50144737141E+02  0.53062391074E+02  0.61780795082E+01 0.  0.
         22    1    3    3    0    0  0.55526774849E+01 -0.15235543637E+02  0.37600894777E+02  0.40948520183E+02  0.00000000000E+00 0. -1.
         22    1    4    4    0    0 -0.18049876519E+01  0.82495284855E+01 -0.16989264391E+02  0.18972290457E+02  0.00000000000E+00 0. -1.
         22    1    4    4    0    0 -0.37476898330E+01  0.69860151514E+01 -0.33155472751E+02  0.34090100617E+02  0.00000000000E+00 0. -1.
<mgrwt>
<rscale>  0 0.93170293E+02</rscale>
<asrwt>0</asrwt>
<pdfrwt beam="1">  1        3 0.62666976E-02 0.93170293E+02</pdfrwt>
<pdfrwt beam="2">  1       -3 0.81965195E-02 0.93170293E+02</pdfrwt>
<totfact> 0.33107673E+04</totfact>
</mgrwt>
</event>
<event>
 7    1  0.1312339E-009  0.8694292E+02  0.7818608E-02  0.1310428E+00
          3   -1    0    0  501    0  0.00000000000E+00  0.00000000000E+00  0.14810755395E+03  0.14810758839E+03  0.10100000000E+00 0. -1.
         -3   -1    0    0    0  501 -0.00000000000E+00 -0.00000000000E+00 -0.12759192198E+02  0.12759591942E+02  0.10100000000E+00 0.  1.
         23    2    1    2    0    0 -0.17763568394E-14  0.00000000000E+00  0.13534836176E+03  0.16086718033E+03  0.86942916207E+02 0.  0.
    9000005    2    3    3    0    0 -0.13161940558E+02 -0.21269225923E+02  0.56136551182E+01  0.28743334049E+02  0.13001902855E+02 0.  0.
         22    1    3    3    0    0  0.13161940558E+02  0.21269225923E+02  0.12973470664E+03  0.13212384628E+03  0.00000000000E+00 0. -1.
         22    1    4    4    0    0 -0.87783858503E+01 -0.28349353138E+01  0.23036390370E+01  0.95080844119E+01  0.00000000000E+00 0.  1.
         22    1    4    4    0    0 -0.43835547080E+01 -0.18434290610E+02  0.33100160813E+01  0.19235249638E+02  0.00000000000E+00 0.  1.
<mgrwt>
<rscale>  0 0.86942916E+02</rscale>
<asrwt>0</asrwt>
<pdfrwt beam="1">  1        3 0.22785812E-01 0.86942916E+02</pdfrwt>
<pdfrwt beam="2">  1       -3 0.19629860E-02 0.86942916E+02</pdfrwt>
<totfact> 0.34845180E+04</totfact>
</mgrwt>
</event>
<event>
 7    1  0.1312339E-009  0.9118489E+02  0.7818608E-02  0.1300007E+00
          3   -1    0    0  501    0  0.00000000000E+00  0.00000000000E+00  0.23981126718E+02  0.23981339405E+02  0.10100000000E+00 0. -1.
         -3   -1    0    0    0  501 -0.00000000000E+00 -0.00000000000E+00 -0.86678827649E+02  0.86678886492E+02  0.10100000000E+00 0.  1.
         23    2    1    2    0    0  0.00000000000E+00  0.00000000000E+00 -0.62697700931E+02  0.11066022590E+03  0.91184888517E+02 0.  0.
    9000005    2    3    3    0    0 -0.21246848255E+02  0.22971507790E+02 -0.70212640679E+02  0.78479594295E+02  0.15814963762E+02 0.  0.
         22    1    3    3    0    0  0.21246848255E+02 -0.22971507790E+02  0.75149397480E+01  0.32180631602E+02  0.00000000000E+00 0. -1.
         22    1    4    4    0    0 -0.13729849289E+02  0.36433043829E+01 -0.31731762283E+02  0.34766178477E+02  0.00000000000E+00 0. -1.
         22    1    4    4    0    0 -0.75169989658E+01  0.19328203407E+02 -0.38480878395E+02  0.43713415818E+02  0.00000000000E+00 0. -1.
<mgrwt>
<rscale>  0 0.91184889E+02</rscale>
<asrwt>0</asrwt>
<pdfrwt beam="1">  1        3 0.36894250E-02 0.91184889E+02</pdfrwt>
<pdfrwt beam="2">  1       -3 0.13335225E-01 0.91184889E+02</pdfrwt>
<totfact> 0.33891235E+04</totfact>
</mgrwt>
</event>
<event>
 7    1  0.1312339E-009  0.9629862E+02  0.7818608E-02  0.1288278E+00
         -3   -1    0    0    0  501 -0.00000000000E+00  0.00000000000E+00  0.16405459906E+02  0.16405770806E+02  0.10100000000E+00 0.  1.
          3   -1    0    0  501    0  0.00000000000E+00 -0.00000000000E+00 -0.14131445785E+03  0.14131449394E+03  0.10100000000E+00 0. -1.
         23    2    1    2    0    0  0.88817841970E-15  0.00000000000E+00 -0.12490899794E+03  0.15772026475E+03  0.96298619643E+02 0.  0.
    9000005    2    3    3    0    0  0.66394577494E+01 -0.33376950044E+02 -0.11470565259E+02  0.39287240624E+02  0.15931422254E+02 0.  0.
         22    1    3    3    0    0 -0.66394577494E+01  0.33376950044E+02 -0.11343843268E+03  0.11843302412E+03  0.00000000000E+00 0. -1.
         22    1    4    4    0    0 -0.99689484596E+00 -0.84744467290E+01  0.35246774151E+01  0.92321935409E+01  0.00000000000E+00 0.  1.
         22    1    4    4    0    0  0.76363525954E+01 -0.24902503315E+02 -0.14995242674E+02  0.30055047083E+02  0.00000000000E+00 0.  1.
<mgrwt>
<rscale>  0 0.96298620E+02</rscale>
<asrwt>0</asrwt>
<pdfrwt beam="2">  1        3 0.21740712E-01 0.96298620E+02</pdfrwt>
<pdfrwt beam="1">  1       -3 0.25239437E-02 0.96298620E+02</pdfrwt>
<totfact> 0.26583017E+04</totfact>
</mgrwt>
</event>
<event>
 7    1  0.1312339E-009  0.9204420E+02  0.7818608E-02  0.1297976E+00
         -3   -1    0    0    0  501 -0.00000000000E+00  0.00000000000E+00  0.89558772721E+01  0.89564467683E+01  0.10100000000E+00 0.  1.
          3   -1    0    0  501    0  0.00000000000E+00 -0.00000000000E+00 -0.23648842153E+03  0.23648844309E+03  0.10100000000E+00 0. -1.
         23    2    1    2    0    0  0.35527136788E-14  0.71054273576E-14 -0.22753254425E+03  0.24544488986E+03  0.92044202776E+02 0.  0.
    9000005    2    3    3    0    0  0.20440744658E+02  0.39829431956E+02 -0.91098191371E+02  0.10185331511E+03  0.84267215709E+01 0.  0.
         22    1    3    3    0    0 -0.20440744658E+02 -0.39829431956E+02 -0.13643435288E+03  0.14359157475E+03  0.00000000000E+00 0. -1.
         22    1    4    4    0    0  0.86833750865E+01  0.25596528695E+02 -0.51450225523E+02  0.58118060794E+02  0.00000000000E+00 0. -1.
         22    1    4    4    0    0  0.11757369571E+02  0.14232903261E+02 -0.39647965848E+02  0.43735254319E+02  0.00000000000E+00 0. -1.
<mgrwt>
<rscale>  0 0.92044203E+02</rscale>
<asrwt>0</asrwt>
<pdfrwt beam="2">  1        3 0.36382875E-01 0.92044203E+02</pdfrwt>
<pdfrwt beam="1">  1       -3 0.13778729E-02 0.92044203E+02</pdfrwt>
<totfact> 0.25644486E+04</totfact>
</mgrwt>
</event>
<event>
 7    1  0.1312339E-009  0.9132065E+02  0.7818608E-02  0.1299685E+00
         -3   -1    0    0    0  501 -0.00000000000E+00  0.00000000000E+00  0.40262349948E+02  0.40262476630E+02  0.10100000000E+00 0.  1.
          3   -1    0    0  501    0  0.00000000000E+00 -0.00000000000E+00 -0.51781743967E+02  0.51781842467E+02  0.10100000000E+00 0. -1.
         23    2    1    2    0    0  0.00000000000E+00  0.00000000000E+00 -0.11519394019E+02  0.92044319096E+02  0.91320645198E+02 0.  0.
    9000005    2    3    3    0    0  0.35215066946E+02 -0.75547291180E+01  0.22046124516E+02  0.42812023735E+02  0.70471907957E+01 0.  0.
         22    1    3    3    0    0 -0.35215066946E+02  0.75547291180E+01 -0.33565518534E+02  0.49232295361E+02  0.00000000000E+00 0. -1.
         22    1    4    4    0    0  0.24581440105E+02 -0.53657502919E+01  0.11455482460E+02  0.27645371262E+02  0.00000000000E+00 0.  1.
         22    1    4    4    0    0  0.10633626841E+02 -0.21889788261E+01  0.10590642056E+02  0.15166652474E+02  0.00000000000E+00 0.  1.
<mgrwt>
<rscale>  0 0.91320645E+02</rscale>
<asrwt>0</asrwt>
<pdfrwt beam="2">  1        3 0.79664395E-02 0.91320645E+02</pdfrwt>
<pdfrwt beam="1">  1       -3 0.61942250E-02 0.91320645E+02</pdfrwt>
<totfact> 0.35120919E+04</totfact>
</mgrwt>
</event>
<event>
 7    1  0.1312339E-009  0.9342436E+02  0.7818608E-02  0.1294765E+00
         -3   -1    0    0    0  501 -0.00000000000E+00  0.00000000000E+00  0.67895367512E+03  0.67895368263E+03  0.10100000000E+00 0.  1.
          3   -1    0    0  501    0  0.00000000000E+00 -0.00000000000E+00 -0.32130084359E+01  0.32145954969E+01  0.10100000000E+00 0. -1.
         23    2    1    2    0    0 -0.71054273576E-14 -0.17763568394E-14  0.67574066668E+03  0.68216827813E+03  0.93424360180E+02 0.  0.
    9000005    2    3    3    0    0 -0.43730269526E+02 -0.13521291275E+02  0.40517811207E+03  0.40776117590E+03  0.21707800636E+01 0.  0.
         22    1    3    3    0    0  0.43730269526E+02  0.13521291275E+02  0.27056255462E+03  0.27440710222E+03  0.00000000000E+00 0.  1.
         22    1    4    4    0    0 -0.36752253231E+02 -0.10972738881E+02  0.34549729853E+03  0.34761978138E+03  0.00000000000E+00 0. -1.
         22    1    4    4    0    0 -0.69780162955E+01 -0.25485523939E+01  0.59680813535E+02  0.60141394521E+02  0.00000000000E+00 0. -1.
<mgrwt>
<rscale>  0 0.93424360E+02</rscale>
<asrwt>0</asrwt>
<pdfrwt beam="2">  1        3 0.49443173E-03 0.93424360E+02</pdfrwt>
<pdfrwt beam="1">  1       -3 0.10445452E+00 0.93424360E+02</pdfrwt>
<totfact> 0.13296107E+04</totfact>
</mgrwt>
</event>
<event>
 7    1  0.1312339E-009  0.9081283E+02  0.7818608E-02  0.1300895E+00
         -3   -1    0    0    0  501 -0.00000000000E+00  0.00000000000E+00  0.79956222506E+02  0.79956286297E+02  0.10100000000E+00 0.  1.
          3   -1    0    0  501    0  0.00000000000E+00 -0.00000000000E+00 -0.25785721922E+02  0.25785919724E+02  0.10100000000E+00 0. -1.
         23    2    1    2    0    0  0.00000000000E+00  0.00000000000E+00  0.54170500585E+02  0.10574220602E+03  0.90812835000E+02 0.  0.
    9000005    2    3    3    0    0  0.22915363351E+02  0.34178955993E+02  0.47854350133E+02  0.64110383255E+02  0.11259995747E+02 0.  0.
         22    1    3    3    0    0 -0.22915363351E+02 -0.34178955993E+02  0.63161504517E+01  0.41631822766E+02  0.00000000000E+00 0. -1.
         22    1    4    4    0    0  0.10209052214E+01  0.52193957613E+01  0.11807044662E+02  0.12949542202E+02  0.00000000000E+00 0.  1.
         22    1    4    4    0    0  0.21894458129E+02  0.28959560232E+02  0.36047305471E+02  0.51160841054E+02  0.00000000000E+00 0.  1.
<mgrwt>
<rscale>  0 0.90812835E+02</rscale>
<asrwt>0</asrwt>
<pdfrwt beam="2">  1        3 0.39670543E-02 0.90812835E+02</pdfrwt>
<pdfrwt beam="1">  1       -3 0.12300977E-01 0.90812835E+02</pdfrwt>
<totfact> 0.34626534E+04</totfact>
</mgrwt>
</event>
<event>
 7    1  0.1312339E-009  0.9413484E+02  0.7818608E-02  0.1293137E+00
         -3   -1    0    0    0  501 -0.00000000000E+00  0.00000000000E+00  0.36283947489E+02  0.36284088061E+02  0.10100000000E+00 0.  1.
          3   -1    0    0  501    0  0.00000000000E+00 -0.00000000000E+00 -0.61055407072E+02  0.61055490611E+02  0.10100000000E+00 0. -1.
         23    2    1    2    0    0  0.00000000000E+00  0.00000000000E+00 -0.24771459583E+02  0.97339578671E+02  0.94134841403E+02 0.  0.
    9000005    2    3    3    0    0  0.35242017469E+02  0.18888580170E+02  0.10946288277E+02  0.43724881355E+02  0.13902005840E+02 0.  0.
         22    1    3    3    0    0 -0.35242017469E+02 -0.18888580170E+02 -0.35717747860E+02  0.53614697316E+02  0.00000000000E+00 0. -1.
         22    1    4    4    0    0  0.19620194747E+02  0.14607624571E+02  0.12469140714E+02  0.27455677148E+02  0.00000000000E+00 0. -1.
         22    1    4    4    0    0  0.15621822722E+02  0.42809555986E+01 -0.15228524368E+01  0.16269204207E+02  0.00000000000E+00 0. -1.
<mgrwt>
<rscale>  0 0.94134841E+02</rscale>
<asrwt>0</asrwt>
<pdfrwt beam="2">  1        3 0.93931568E-02 0.94134841E+02</pdfrwt>
<pdfrwt beam="1">  1       -3 0.55821630E-02 0.94134841E+02</pdfrwt>
<totfact> 0.31957551E+04</totfact>
</mgrwt>
</event>
<event>
 7    1  0.1312339E-009  0.9150620E+02  0.7818608E-02  0.1299245E+00
          3   -1    0    0  501    0  0.00000000000E+00  0.00000000000E+00  0.28230916542E+03  0.28230918349E+03  0.10100000000E+00 0. -1.
         -3   -1    0    0    0  501 -0.00000000000E+00 -0.00000000000E+00 -0.74147219096E+01  0.74154097659E+01  0.10100000000E+00 0.  1.
         23    2    1    2    0    0  0.00000000000E+00  0.88817841970E-15  0.27489444351E+03  0.28972459326E+03  0.91506201226E+02 0.  0.
    9000005    2    3    3    0    0  0.23488581934E+02  0.50238641809E+01  0.26012731415E+03  0.26152848001E+03  0.12408609744E+02 0.  0.
         22    1    3    3    0    0 -0.23488581934E+02 -0.50238641809E+01  0.14767129360E+02  0.28196113244E+02  0.00000000000E+00 0.  1.
         22    1    4    4    0    0  0.19104614010E+02  0.80372842526E+01  0.23027416530E+03  0.23120505059E+03  0.00000000000E+00 0.  1.
         22    1    4    4    0    0  0.43839679238E+01 -0.30134200717E+01  0.29853148855E+02  0.30323429421E+02  0.00000000000E+00 0.  1.
<mgrwt>
<rscale>  0 0.91506201E+02</rscale>
<asrwt>0</asrwt>
<pdfrwt beam="1">  1        3 0.43432229E-01 0.91506201E+02</pdfrwt>
<pdfrwt beam="2">  1       -3 0.11407809E-02 0.91506201E+02</pdfrwt>
<totfact> 0.24198470E+04</totfact>
</mgrwt>
</event>
<event>
 7    1  0.1312339E-009  0.8867199E+02  0.7818608E-02  0.1306100E+00
         -3   -1    0    0    0  501 -0.00000000000E+00  0.00000000000E+00  0.29843664327E+03  0.29843666037E+03  0.10100000000E+00 0.  1.
          3   -1    0    0  501    0  0.00000000000E+00 -0.00000000000E+00 -0.65861880784E+01  0.65869624565E+01  0.10100000000E+00 0. -1.
         23    2    1    2    0    0  0.71054273576E-14 -0.44408920985E-15  0.29185045520E+03  0.30502362282E+03  0.88671992653E+02 0.  0.
    9000005    2    3    3    0    0 -0.42806042752E+02  0.34771214429E+01  0.13046689415E+03  0.13802331909E+03  0.13578603562E+02 0.  0.
         22    1    3    3    0    0  0.42806042752E+02 -0.34771214429E+01  0.16138356105E+03  0.16700030373E+03  0.00000000000E+00 0.  1.
         22    1    4    4    0    0 -0.38157972789E+02  0.52713962153E+01  0.12408695660E+03  0.12992840838E+03  0.00000000000E+00 0. -1.
         22    1    4    4    0    0 -0.46480699622E+01 -0.17942747723E+01  0.63799375482E+01  0.80949107130E+01  0.00000000000E+00 0. -1.
<mgrwt>
<rscale>  0 0.88671993E+02</rscale>
<asrwt>0</asrwt>
<pdfrwt beam="2">  1        3 0.10133206E-02 0.88671993E+02</pdfrwt>
<pdfrwt beam="1">  1       -3 0.45913390E-01 0.88671993E+02</pdfrwt>
<totfact> 0.25674308E+04</totfact>
</mgrwt>
</event>
<event>
 7    1  0.1312339E-009  0.9282157E+02  0.7818608E-02  0.1296159E+00
         -3   -1    0    0    0  501 -0.00000000000E+00  0.00000000000E+00  0.45152198536E+02  0.45152311499E+02  0.10100000000E+00 0.  1.
          3   -1    0    0  501    0  0.00000000000E+00 -0.00000000000E+00 -0.47704229576E+02  0.47704336495E+02  0.10100000000E+00 0. -1.
         23    2    1    2    0    0  0.00000000000E+00  0.00000000000E+00 -0.25520310397E+01  0.92856647994E+02  0.92821571923E+02 0.  0.
    9000005    2    3    3    0    0 -0.11386560704E+02 -0.43859005953E+02 -0.52312343841E+01  0.47464530854E+02  0.13124393631E+02 0.  0.
         22    1    3    3    0    0  0.11386560704E+02  0.43859005953E+02  0.26792033444E+01  0.45392117140E+02  0.00000000000E+00 0.  1.
         22    1    4    4    0    0  0.17865284519E+01 -0.18281769695E+02 -0.29473332713E+01  0.18603805001E+02  0.00000000000E+00 0.  1.
         22    1    4    4    0    0 -0.13173089156E+02 -0.25577236258E+02 -0.22839011129E+01  0.28860725853E+02  0.00000000000E+00 0.  1.
<mgrwt>
<rscale>  0 0.92821572E+02</rscale>
<asrwt>0</asrwt>
<pdfrwt beam="2">  1        3 0.73391291E-02 0.92821572E+02</pdfrwt>
<pdfrwt beam="1">  1       -3 0.69465090E-02 0.92821572E+02</pdfrwt>
<totfact> 0.33531497E+04</totfact>
</mgrwt>
</event>
